45085118                                                                
Freq      RMP2-FC                                                     6-31G(d)            
Number of atoms                            I               19
Info1-9                                    I   N=           9
          31          29        1002           0           0         100
           6           2           1
Charge                                     I                0
Multiplicity                               I                1
Number of electrons                        I               64
Number of alpha electrons                  I               32
Number of beta electrons                   I               32
Number of basis functions                  I              142
Number of independent functions            I              142
Number of point charges in /Mol/           I                0
Number of translation vectors              I                0
Atomic numbers                             I   N=          19
           8           8           7           6           6           6
           6           6           1           1           1           1
           1           1           1           1           1           1
           1
Nuclear charges                            R   N=          19
  8.00000000E+00  8.00000000E+00  7.00000000E+00  6.00000000E+00  6.00000000E+00
  6.00000000E+00  6.00000000E+00  6.00000000E+00  1.00000000E+00  1.00000000E+00
  1.00000000E+00  1.00000000E+00  1.00000000E+00  1.00000000E+00  1.00000000E+00
  1.00000000E+00  1.00000000E+00  1.00000000E+00  1.00000000E+00
Current cartesian coordinates              R   N=          57
 -4.78746932E+00 -1.41576293E+00 -7.18919996E-02 -5.85654704E-02 -2.62988556E+00
 -9.91455763E-01  1.60139404E+00  4.75462679E-01  1.49443435E+00 -2.98462498E+00
  3.85567598E-01  7.26500532E-01  4.21396145E+00 -2.87871371E-01  1.06419410E+00
 -3.44118862E-01 -7.29928565E-01  3.49351041E-01 -3.27017520E+00  2.82925059E+00
 -7.83195371E-01  5.26785650E+00  7.40423610E-01 -1.41020217E+00 -3.28278045E+00
  7.66261593E-01  2.74713291E+00  5.32594924E+00  3.61612964E-01  2.68075978E+00
  4.24824718E+00 -2.35174262E+00  1.05546027E+00  1.24638091E+00  2.07980018E+00
  2.47272002E+00 -2.87286400E+00  2.45123412E+00 -2.77528021E+00 -1.99247069E+00
  4.31307178E+00 -1.14159307E-01 -5.21415345E+00  3.50264108E+00 -6.18361441E-01
  4.14547659E+00  3.17865749E-02 -2.98995704E+00  5.21884625E+00  2.80602816E+00
 -1.42989301E+00  7.22670858E+00  1.32378365E-01 -1.67222794E+00 -3.78821355E+00
 -2.68077426E+00 -9.90341099E-01
Force Field                                I                0
Int Atom Types                             I   N=          19
           0           0           0           0           0           0
           0           0           0           0           0           0
           0           0           0           0           0           0
           0
MM charges                                 R   N=          19
  0.00000000E+00  0.00000000E+00  0.00000000E+00  0.00000000E+00  0.00000000E+00
  0.00000000E+00  0.00000000E+00  0.00000000E+00  0.00000000E+00  0.00000000E+00
  0.00000000E+00  0.00000000E+00  0.00000000E+00  0.00000000E+00  0.00000000E+00
  0.00000000E+00  0.00000000E+00  0.00000000E+00  0.00000000E+00
Integer atomic weights                     I   N=          19
          16          16          14          12          12          12
          12          12           1           1           1           1
           1           1           1           1           1           1
           1
Real atomic weights                        R   N=          19
  1.59949146E+01  1.59949146E+01  1.40030740E+01  1.20000000E+01  1.20000000E+01
  1.20000000E+01  1.20000000E+01  1.20000000E+01  1.00782504E+00  1.00782504E+00
  1.00782504E+00  1.00782504E+00  1.00782504E+00  1.00782504E+00  1.00782504E+00
  1.00782504E+00  1.00782504E+00  1.00782504E+00  1.00782504E+00
Atom fragment info                         I   N=          19
           0           0           0           0           0           0
           0           0           0           0           0           0
           0           0           0           0           0           0
           0
Atom residue num                           I   N=          19
           0           0           0           0           0           0
           0           0           0           0           0           0
           0           0           0           0           0           0
           0
Nuclear spins                              I   N=          19
           0           0           2           0           0           0
           0           0           1           1           1           1
           1           1           1           1           1           1
           1
Nuclear ZEff                               R   N=          19
 -5.60000000E+00 -5.60000000E+00 -4.55000000E+00 -3.60000000E+00 -3.60000000E+00
 -3.60000000E+00 -3.60000000E+00 -3.60000000E+00 -1.00000000E+00 -1.00000000E+00
 -1.00000000E+00 -1.00000000E+00 -1.00000000E+00 -1.00000000E+00 -1.00000000E+00
 -1.00000000E+00 -1.00000000E+00 -1.00000000E+00 -1.00000000E+00
Nuclear QMom                               R   N=          19
  0.00000000E+00  0.00000000E+00  2.04400000E+00  0.00000000E+00  0.00000000E+00
  0.00000000E+00  0.00000000E+00  0.00000000E+00  0.00000000E+00  0.00000000E+00
  0.00000000E+00  0.00000000E+00  0.00000000E+00  0.00000000E+00  0.00000000E+00
  0.00000000E+00  0.00000000E+00  0.00000000E+00  0.00000000E+00
Nuclear GFac                               R   N=          19
  0.00000000E+00  0.00000000E+00  4.03761000E-01  0.00000000E+00  0.00000000E+00
  0.00000000E+00  0.00000000E+00  0.00000000E+00  2.79284600E+00  2.79284600E+00
  2.79284600E+00  2.79284600E+00  2.79284600E+00  2.79284600E+00  2.79284600E+00
  2.79284600E+00  2.79284600E+00  2.79284600E+00  2.79284600E+00
MicOpt                                     I   N=          19
          -1          -1          -1          -1          -1          -1
          -1          -1          -1          -1          -1          -1
          -1          -1          -1          -1          -1          -1
          -1
Number of contracted shells                I               54
Number of primitive shells                 I              132
Pure/Cartesian d shells                    I                1
Pure/Cartesian f shells                    I                0
Highest angular momentum                   I                2
Largest degree of contraction              I                6
Shell types                                I   N=          54
           0          -1          -1           2           0          -1
          -1           2           0          -1          -1           2
           0          -1          -1           2           0          -1
          -1           2           0          -1          -1           2
           0          -1          -1           2           0          -1
          -1           2           0           0           0           0
           0           0           0           0           0           0
           0           0           0           0           0           0
           0           0           0           0           0           0
Number of primitives per shell             I   N=          54
           6           3           1           1           6           3
           1           1           6           3           1           1
           6           3           1           1           6           3
           1           1           6           3           1           1
           6           3           1           1           6           3
           1           1           3           1           3           1
           3           1           3           1           3           1
           3           1           3           1           3           1
           3           1           3           1           3           1
Shell to atom map                          I   N=          54
           1           1           1           1           2           2
           2           2           3           3           3           3
           4           4           4           4           5           5
           5           5           6           6           6           6
           7           7           7           7           8           8
           8           8           9           9          10          10
          11          11          12          12          13          13
          14          14          15          15          16          16
          17          17          18          18          19          19
Primitive exponents                        R   N=         132
  5.48467166E+03  8.25234946E+02  1.88046958E+02  5.29645000E+01  1.68975704E+01
  5.79963534E+00  1.55396162E+01  3.59993359E+00  1.01376175E+00  2.70005823E-01
  8.00000000E-01  5.48467166E+03  8.25234946E+02  1.88046958E+02  5.29645000E+01
  1.68975704E+01  5.79963534E+00  1.55396162E+01  3.59993359E+00  1.01376175E+00
  2.70005823E-01  8.00000000E-01  4.17351146E+03  6.27457911E+02  1.42902093E+02
  4.02343293E+01  1.28202129E+01  4.39043701E+00  1.16263619E+01  2.71627981E+00
  7.72218397E-01  2.12031498E-01  8.00000000E-01  3.04752488E+03  4.57369518E+02
  1.03948685E+02  2.92101553E+01  9.28666296E+00  3.16392696E+00  7.86827235E+00
  1.88128854E+00  5.44249258E-01  1.68714478E-01  8.00000000E-01  3.04752488E+03
  4.57369518E+02  1.03948685E+02  2.92101553E+01  9.28666296E+00  3.16392696E+00
  7.86827235E+00  1.88128854E+00  5.44249258E-01  1.68714478E-01  8.00000000E-01
  3.04752488E+03  4.57369518E+02  1.03948685E+02  2.92101553E+01  9.28666296E+00
  3.16392696E+00  7.86827235E+00  1.88128854E+00  5.44249258E-01  1.68714478E-01
  8.00000000E-01  3.04752488E+03  4.57369518E+02  1.03948685E+02  2.92101553E+01
  9.28666296E+00  3.16392696E+00  7.86827235E+00  1.88128854E+00  5.44249258E-01
  1.68714478E-01  8.00000000E-01  3.04752488E+03  4.57369518E+02  1.03948685E+02
  2.92101553E+01  9.28666296E+00  3.16392696E+00  7.86827235E+00  1.88128854E+00
  5.44249258E-01  1.68714478E-01  8.00000000E-01  1.87311370E+01  2.82539436E+00
  6.40121692E-01  1.61277759E-01  1.87311370E+01  2.82539436E+00  6.40121692E-01
  1.61277759E-01  1.87311370E+01  2.82539436E+00  6.40121692E-01  1.61277759E-01
  1.87311370E+01  2.82539436E+00  6.40121692E-01  1.61277759E-01  1.87311370E+01
  2.82539436E+00  6.40121692E-01  1.61277759E-01  1.87311370E+01  2.82539436E+00
  6.40121692E-01  1.61277759E-01  1.87311370E+01  2.82539436E+00  6.40121692E-01
  1.61277759E-01  1.87311370E+01  2.82539436E+00  6.40121692E-01  1.61277759E-01
  1.87311370E+01  2.82539436E+00  6.40121692E-01  1.61277759E-01  1.87311370E+01
  2.82539436E+00  6.40121692E-01  1.61277759E-01  1.87311370E+01  2.82539436E+00
  6.40121692E-01  1.61277759E-01
Contraction coefficients                   R   N=         132
  1.83107443E-03  1.39501722E-02  6.84450781E-02  2.32714336E-01  4.70192898E-01
  3.58520853E-01 -1.10777550E-01 -1.48026263E-01  1.13076702E+00  1.00000000E+00
  1.00000000E+00  1.83107443E-03  1.39501722E-02  6.84450781E-02  2.32714336E-01
  4.70192898E-01  3.58520853E-01 -1.10777550E-01 -1.48026263E-01  1.13076702E+00
  1.00000000E+00  1.00000000E+00  1.83477216E-03  1.39946270E-02  6.85865518E-02
  2.32240873E-01  4.69069948E-01  3.60455199E-01 -1.14961182E-01 -1.69117479E-01
  1.14585195E+00  1.00000000E+00  1.00000000E+00  1.83473713E-03  1.40373228E-02
  6.88426223E-02  2.32184443E-01  4.67941348E-01  3.62311985E-01 -1.19332420E-01
 -1.60854152E-01  1.14345644E+00  1.00000000E+00  1.00000000E+00  1.83473713E-03
  1.40373228E-02  6.88426223E-02  2.32184443E-01  4.67941348E-01  3.62311985E-01
 -1.19332420E-01 -1.60854152E-01  1.14345644E+00  1.00000000E+00  1.00000000E+00
  1.83473713E-03  1.40373228E-02  6.88426223E-02  2.32184443E-01  4.67941348E-01
  3.62311985E-01 -1.19332420E-01 -1.60854152E-01  1.14345644E+00  1.00000000E+00
  1.00000000E+00  1.83473713E-03  1.40373228E-02  6.88426223E-02  2.32184443E-01
  4.67941348E-01  3.62311985E-01 -1.19332420E-01 -1.60854152E-01  1.14345644E+00
  1.00000000E+00  1.00000000E+00  1.83473713E-03  1.40373228E-02  6.88426223E-02
  2.32184443E-01  4.67941348E-01  3.62311985E-01 -1.19332420E-01 -1.60854152E-01
  1.14345644E+00  1.00000000E+00  1.00000000E+00  3.34946043E-02  2.34726953E-01
  8.13757326E-01  1.00000000E+00  3.34946043E-02  2.34726953E-01  8.13757326E-01
  1.00000000E+00  3.34946043E-02  2.34726953E-01  8.13757326E-01  1.00000000E+00
  3.34946043E-02  2.34726953E-01  8.13757326E-01  1.00000000E+00  3.34946043E-02
  2.34726953E-01  8.13757326E-01  1.00000000E+00  3.34946043E-02  2.34726953E-01
  8.13757326E-01  1.00000000E+00  3.34946043E-02  2.34726953E-01  8.13757326E-01
  1.00000000E+00  3.34946043E-02  2.34726953E-01  8.13757326E-01  1.00000000E+00
  3.34946043E-02  2.34726953E-01  8.13757326E-01  1.00000000E+00  3.34946043E-02
  2.34726953E-01  8.13757326E-01  1.00000000E+00  3.34946043E-02  2.34726953E-01
  8.13757326E-01  1.00000000E+00
P(S=P) Contraction coefficients            R   N=         132
  0.00000000E+00  0.00000000E+00  0.00000000E+00  0.00000000E+00  0.00000000E+00
  0.00000000E+00  7.08742682E-02  3.39752839E-01  7.27158577E-01  1.00000000E+00
  0.00000000E+00  0.00000000E+00  0.00000000E+00  0.00000000E+00  0.00000000E+00
  0.00000000E+00  0.00000000E+00  7.08742682E-02  3.39752839E-01  7.27158577E-01
  1.00000000E+00  0.00000000E+00  0.00000000E+00  0.00000000E+00  0.00000000E+00
  0.00000000E+00  0.00000000E+00  0.00000000E+00  6.75797439E-02  3.23907296E-01
  7.40895140E-01  1.00000000E+00  0.00000000E+00  0.00000000E+00  0.00000000E+00
  0.00000000E+00  0.00000000E+00  0.00000000E+00  0.00000000E+00  6.89990666E-02
  3.16423961E-01  7.44308291E-01  1.00000000E+00  0.00000000E+00  0.00000000E+00
  0.00000000E+00  0.00000000E+00  0.00000000E+00  0.00000000E+00  0.00000000E+00
  6.89990666E-02  3.16423961E-01  7.44308291E-01  1.00000000E+00  0.00000000E+00
  0.00000000E+00  0.00000000E+00  0.00000000E+00  0.00000000E+00  0.00000000E+00
  0.00000000E+00  6.89990666E-02  3.16423961E-01  7.44308291E-01  1.00000000E+00
  0.00000000E+00  0.00000000E+00  0.00000000E+00  0.00000000E+00  0.00000000E+00
  0.00000000E+00  0.00000000E+00  6.89990666E-02  3.16423961E-01  7.44308291E-01
  1.00000000E+00  0.00000000E+00  0.00000000E+00  0.00000000E+00  0.00000000E+00
  0.00000000E+00  0.00000000E+00  0.00000000E+00  6.89990666E-02  3.16423961E-01
  7.44308291E-01  1.00000000E+00  0.00000000E+00  0.00000000E+00  0.00000000E+00
  0.00000000E+00  0.00000000E+00  0.00000000E+00  0.00000000E+00  0.00000000E+00
  0.00000000E+00  0.00000000E+00  0.00000000E+00  0.00000000E+00  0.00000000E+00
  0.00000000E+00  0.00000000E+00  0.00000000E+00  0.00000000E+00  0.00000000E+00
  0.00000000E+00  0.00000000E+00  0.00000000E+00  0.00000000E+00  0.00000000E+00
  0.00000000E+00  0.00000000E+00  0.00000000E+00  0.00000000E+00  0.00000000E+00
  0.00000000E+00  0.00000000E+00  0.00000000E+00  0.00000000E+00  0.00000000E+00
  0.00000000E+00  0.00000000E+00  0.00000000E+00  0.00000000E+00  0.00000000E+00
  0.00000000E+00  0.00000000E+00  0.00000000E+00  0.00000000E+00  0.00000000E+00
  0.00000000E+00  0.00000000E+00
Coordinates of each shell                  R   N=         162
 -4.78746932E+00 -1.41576293E+00 -7.18919996E-02 -4.78746932E+00 -1.41576293E+00
 -7.18919996E-02 -4.78746932E+00 -1.41576293E+00 -7.18919996E-02 -4.78746932E+00
 -1.41576293E+00 -7.18919996E-02 -5.85654704E-02 -2.62988556E+00 -9.91455763E-01
 -5.85654704E-02 -2.62988556E+00 -9.91455763E-01 -5.85654704E-02 -2.62988556E+00
 -9.91455763E-01 -5.85654704E-02 -2.62988556E+00 -9.91455763E-01  1.60139404E+00
  4.75462679E-01  1.49443435E+00  1.60139404E+00  4.75462679E-01  1.49443435E+00
  1.60139404E+00  4.75462679E-01  1.49443435E+00  1.60139404E+00  4.75462679E-01
  1.49443435E+00 -2.98462498E+00  3.85567598E-01  7.26500532E-01 -2.98462498E+00
  3.85567598E-01  7.26500532E-01 -2.98462498E+00  3.85567598E-01  7.26500532E-01
 -2.98462498E+00  3.85567598E-01  7.26500532E-01  4.21396145E+00 -2.87871371E-01
  1.06419410E+00  4.21396145E+00 -2.87871371E-01  1.06419410E+00  4.21396145E+00
 -2.87871371E-01  1.06419410E+00  4.21396145E+00 -2.87871371E-01  1.06419410E+00
 -3.44118862E-01 -7.29928565E-01  3.49351041E-01 -3.44118862E-01 -7.29928565E-01
  3.49351041E-01 -3.44118862E-01 -7.29928565E-01  3.49351041E-01 -3.44118862E-01
 -7.29928565E-01  3.49351041E-01 -3.27017520E+00  2.82925059E+00 -7.83195371E-01
 -3.27017520E+00  2.82925059E+00 -7.83195371E-01 -3.27017520E+00  2.82925059E+00
 -7.83195371E-01 -3.27017520E+00  2.82925059E+00 -7.83195371E-01  5.26785650E+00
  7.40423610E-01 -1.41020217E+00  5.26785650E+00  7.40423610E-01 -1.41020217E+00
  5.26785650E+00  7.40423610E-01 -1.41020217E+00  5.26785650E+00  7.40423610E-01
 -1.41020217E+00 -3.28278045E+00  7.66261593E-01  2.74713291E+00 -3.28278045E+00
  7.66261593E-01  2.74713291E+00  5.32594924E+00  3.61612964E-01  2.68075978E+00
  5.32594924E+00  3.61612964E-01  2.68075978E+00  4.24824718E+00 -2.35174262E+00
  1.05546027E+00  4.24824718E+00 -2.35174262E+00  1.05546027E+00  1.24638091E+00
  2.07980018E+00  2.47272002E+00  1.24638091E+00  2.07980018E+00  2.47272002E+00
 -2.87286400E+00  2.45123412E+00 -2.77528021E+00 -2.87286400E+00  2.45123412E+00
 -2.77528021E+00 -1.99247069E+00  4.31307178E+00 -1.14159307E-01 -1.99247069E+00
  4.31307178E+00 -1.14159307E-01 -5.21415345E+00  3.50264108E+00 -6.18361441E-01
 -5.21415345E+00  3.50264108E+00 -6.18361441E-01  4.14547659E+00  3.17865749E-02
 -2.98995704E+00  4.14547659E+00  3.17865749E-02 -2.98995704E+00  5.21884625E+00
  2.80602816E+00 -1.42989301E+00  5.21884625E+00  2.80602816E+00 -1.42989301E+00
  7.22670858E+00  1.32378365E-01 -1.67222794E+00  7.22670858E+00  1.32378365E-01
 -1.67222794E+00 -3.78821355E+00 -2.68077426E+00 -9.90341099E-01 -3.78821355E+00
 -2.68077426E+00 -9.90341099E-01
Constraint Structure                       R   N=          57
 -4.78746932E+00 -1.41576293E+00 -7.18919996E-02 -5.85654704E-02 -2.62988556E+00
 -9.91455763E-01  1.60139404E+00  4.75462679E-01  1.49443435E+00 -2.98462498E+00
  3.85567598E-01  7.26500532E-01  4.21396145E+00 -2.87871371E-01  1.06419410E+00
 -3.44118862E-01 -7.29928565E-01  3.49351041E-01 -3.27017520E+00  2.82925059E+00
 -7.83195371E-01  5.26785650E+00  7.40423610E-01 -1.41020217E+00 -3.28278045E+00
  7.66261593E-01  2.74713291E+00  5.32594924E+00  3.61612964E-01  2.68075978E+00
  4.24824718E+00 -2.35174262E+00  1.05546027E+00  1.24638091E+00  2.07980018E+00
  2.47272002E+00 -2.87286400E+00  2.45123412E+00 -2.77528021E+00 -1.99247069E+00
  4.31307178E+00 -1.14159307E-01 -5.21415345E+00  3.50264108E+00 -6.18361441E-01
  4.14547659E+00  3.17865749E-02 -2.98995704E+00  5.21884625E+00  2.80602816E+00
 -1.42989301E+00  7.22670858E+00  1.32378365E-01 -1.67222794E+00 -3.78821355E+00
 -2.68077426E+00 -9.90341099E-01
Num ILSW                                   I              100
ILSW                                       I   N=         100
           0           1           0           0           2           0
           0           0           0           0           0          -1
           0           0           0           0           0           0
           0           0           0           0           1           0
           1           0           0           0           0           0
           0           0      100000           0          -1           0
           0           0           0           0           0           0
           0           0           0           1           1           0
           0           0           1           0           0           0
           0           0           4          40           0           0
           0           0           0           0           0           0
           0           0           0           0           0           0
           0           0           0           0           0           0
           0           0           0           0           0           0
           0           0           0           0           0           0
           0           0           0           0           0           0
           0           0           0           0
Num RLSW                                   I               40
RLSW                                       R   N=          40
  1.00000000E+00  1.00000000E+00  1.00000000E+00  1.00000000E+00  1.00000000E+00
  0.00000000E+00  0.00000000E+00  1.00000000E+00  0.00000000E+00  0.00000000E+00
  0.00000000E+00  0.00000000E+00  1.00000000E+00  0.00000000E+00  0.00000000E+00
  0.00000000E+00  0.00000000E+00  1.00000000E+00  0.00000000E+00  0.00000000E+00
  0.00000000E+00  0.00000000E+00  1.00000000E+00  0.00000000E+00  0.00000000E+00
  0.00000000E+00  0.00000000E+00  1.00000000E+00  0.00000000E+00  0.00000000E+00
  0.00000000E+00  0.00000000E+00  0.00000000E+00  0.00000000E+00  0.00000000E+00
  0.00000000E+00  0.00000000E+00  0.00000000E+00  1.00000000E+00  1.00000000E+00
MxBond                                     I                4
NBond                                      I   N=          19
           2           1           3           4           4           3
           4           4           1           1           1           1
           1           1           1           1           1           1
           1
IBond                                      I   N=          76
           4          19           0           0           6           0
           0           0           5           6          12           0
           1           6           7           9           3           8
          10          11           2           3           4           0
           4          13          14          15           5          16
          17          18           4           0           0           0
           5           0           0           0           5           0
           0           0           3           0           0           0
           7           0           0           0           7           0
           0           0           7           0           0           0
           8           0           0           0           8           0
           0           0           8           0           0           0
           1           0           0           0
RBond                                      R   N=          76
  1.00000000E+00  1.00000000E+00  0.00000000E+00  0.00000000E+00  2.00000000E+00
  0.00000000E+00  0.00000000E+00  0.00000000E+00  1.00000000E+00  1.00000000E+00
  1.00000000E+00  0.00000000E+00  1.00000000E+00  1.00000000E+00  1.00000000E+00
  1.00000000E+00  1.00000000E+00  1.00000000E+00  1.00000000E+00  1.00000000E+00
  2.00000000E+00  1.00000000E+00  1.00000000E+00  0.00000000E+00  1.00000000E+00
  1.00000000E+00  1.00000000E+00  1.00000000E+00  1.00000000E+00  1.00000000E+00
  1.00000000E+00  1.00000000E+00  1.00000000E+00  0.00000000E+00  0.00000000E+00
  0.00000000E+00  1.00000000E+00  0.00000000E+00  0.00000000E+00  0.00000000E+00
  1.00000000E+00  0.00000000E+00  0.00000000E+00  0.00000000E+00  1.00000000E+00
  0.00000000E+00  0.00000000E+00  0.00000000E+00  1.00000000E+00  0.00000000E+00
  0.00000000E+00  0.00000000E+00  1.00000000E+00  0.00000000E+00  0.00000000E+00
  0.00000000E+00  1.00000000E+00  0.00000000E+00  0.00000000E+00  0.00000000E+00
  1.00000000E+00  0.00000000E+00  0.00000000E+00  0.00000000E+00  1.00000000E+00
  0.00000000E+00  0.00000000E+00  0.00000000E+00  1.00000000E+00  0.00000000E+00
  0.00000000E+00  0.00000000E+00  1.00000000E+00  0.00000000E+00  0.00000000E+00
  0.00000000E+00
Virial Ratio                               R      2.002438023244471E+00
SCF Energy                                 R     -3.999277032716534E+02
MP2 Energy                                 R     -4.010973218448689E+02
Total Energy                               R     -4.010973218448689E+02
Post-SCF wavefunction norm                 R      1.650995765798994E+00
RMS Force                                  R      2.352546834982023E-07
RMS Density                                R      1.917016204214300E-09
External E-field                           R   N=          35
  0.00000000E+00  0.00000000E+00  0.00000000E+00  0.00000000E+00  0.00000000E+00
  0.00000000E+00  0.00000000E+00  0.00000000E+00  0.00000000E+00  0.00000000E+00
  0.00000000E+00  0.00000000E+00  0.00000000E+00  0.00000000E+00  0.00000000E+00
  0.00000000E+00  0.00000000E+00  0.00000000E+00  0.00000000E+00  0.00000000E+00
  0.00000000E+00  0.00000000E+00  0.00000000E+00  0.00000000E+00  0.00000000E+00
  0.00000000E+00  0.00000000E+00  0.00000000E+00  0.00000000E+00  0.00000000E+00
  0.00000000E+00  0.00000000E+00  0.00000000E+00  0.00000000E+00  0.00000000E+00
IOpCl                                      I                0
IROHF                                      I                0
Alpha Orbital Energies                     R   N=         142
 -2.05513880E+01 -2.05401021E+01 -1.56034678E+01 -1.13613654E+01 -1.12969537E+01
 -1.12745465E+01 -1.12304156E+01 -1.12237990E+01 -1.39478996E+00 -1.34252090E+00
 -1.24315714E+00 -1.05102336E+00 -1.01198092E+00 -9.01365655E-01 -8.47166976E-01
 -7.92352422E-01 -7.42488644E-01 -6.72516416E-01 -6.43069473E-01 -6.34700649E-01
 -6.12423380E-01 -5.95755025E-01 -5.78853838E-01 -5.63243204E-01 -5.39754573E-01
 -5.31519030E-01 -5.18991803E-01 -5.08329153E-01 -5.01497658E-01 -4.41115511E-01
 -4.28818829E-01 -3.99125168E-01  1.81381571E-01  1.97891045E-01  2.50733030E-01
  2.66107465E-01  2.85210036E-01  2.92098664E-01  2.98746310E-01  3.11668780E-01
  3.15433030E-01  3.20785902E-01  3.26071217E-01  3.36915784E-01  3.80503365E-01
  3.89356780E-01  4.21370572E-01  4.30366223E-01  4.85388466E-01  5.34768735E-01
  5.96209867E-01  6.94481504E-01  7.15920819E-01  7.40837285E-01  7.56687267E-01
  7.75647198E-01  7.90956594E-01  8.00383771E-01  8.20971427E-01  8.52605459E-01
  8.83391928E-01  9.10485619E-01  9.31704337E-01  9.58640324E-01  1.00569743E+00
  1.01553675E+00  1.04894086E+00  1.07008341E+00  1.09396951E+00  1.10272566E+00
  1.12666846E+00  1.13916069E+00  1.14686270E+00  1.16095884E+00  1.16503551E+00
  1.17985033E+00  1.19638577E+00  1.21389112E+00  1.22495604E+00  1.23498836E+00
  1.26286091E+00  1.29088473E+00  1.30656739E+00  1.33231083E+00  1.36201603E+00
  1.41316397E+00  1.46398387E+00  1.50553778E+00  1.54072307E+00  1.61608609E+00
  1.64083714E+00  1.66200317E+00  1.72101484E+00  1.75607419E+00  1.81274532E+00
  1.85876709E+00  1.95412363E+00  1.96038437E+00  2.02194332E+00  2.03334835E+00
  2.06202203E+00  2.10462606E+00  2.12298297E+00  2.14467250E+00  2.17921999E+00
  2.20003597E+00  2.24530041E+00  2.25277864E+00  2.29697328E+00  2.31213837E+00
  2.34356163E+00  2.38888911E+00  2.44074128E+00  2.47604680E+00  2.52098614E+00
  2.53536723E+00  2.55574659E+00  2.61138828E+00  2.65842898E+00  2.69478563E+00
  2.71321693E+00  2.72533083E+00  2.74728494E+00  2.81500644E+00  2.86054815E+00
  2.89704887E+00  2.95459880E+00  2.97580484E+00  3.04143812E+00  3.09435278E+00
  3.21471306E+00  3.27761860E+00  3.38012047E+00  3.51038438E+00  4.24863538E+00
  4.40838690E+00  4.49730604E+00  4.62066585E+00  4.67497880E+00  4.78923746E+00
  4.85638134E+00  5.00615869E+00
Alpha MO coefficients                      R   N=       20164
  9.94658896E-01  2.12032805E-02  1.27690650E-03  4.07794220E-05 -1.78213305E-04
  3.79608525E-03 -7.01695171E-04 -5.67866319E-05  7.28745453E-05 -4.08719194E-03
 -4.07527159E-03 -3.91371779E-03 -8.49717035E-05 -2.00133788E-06 -1.62123707E-04
 -3.92227748E-04  3.84499597E-05  1.28742777E-05  3.36729726E-06  1.36914536E-06
 -3.30314726E-04 -3.32921846E-06 -7.82385266E-05 -6.39636634E-05  1.30847838E-05
  1.86727436E-05  1.68597007E-05  1.18081743E-05  3.38111515E-06 -3.42757006E-06
 -1.18880437E-05 -4.81454397E-05 -1.08896645E-07 -5.08058561E-06  3.69455831E-07
  4.81020896E-04 -2.41848962E-04 -4.23192190E-05 -9.19889442E-05 -8.26024546E-06
 -2.20930568E-05 -1.81586242E-05  1.66504102E-05  1.55749944E-05  1.09902500E-05
 -3.59613137E-05  1.80043762E-04 -2.70995675E-04 -2.46090812E-04 -9.61831763E-05
  7.59098615E-04  4.70109760E-04 -4.80209697E-05 -2.22149432E-04 -1.00263278E-05
 -1.93809033E-05 -7.94590104E-05  2.87626224E-05  2.73395964E-05  1.71625290E-05
  2.80102079E-06  1.25896931E-05 -4.01976947E-06 -1.66166051E-06 -1.09359642E-06
 -9.35811080E-06  2.70476658E-05  4.73471280E-05  5.93394748E-05 -4.69462840E-07
  2.94838838E-06  6.94050776E-06 -4.19510010E-06 -4.84902727E-06  3.56684330E-06
  2.65952614E-06  6.82228187E-05  4.55981026E-05 -5.15271352E-06 -1.43639460E-06
 -6.16606739E-04  6.99731244E-05 -5.17212408E-04 -2.92971895E-04 -8.90692690E-05
 -8.28999844E-06 -1.44814002E-05 -4.61185464E-06 -2.26548570E-05  4.69193505E-06
 -4.80763594E-08  4.75172293E-05 -5.13750068E-06  2.52125443E-05 -1.69377378E-05
 -1.42043701E-04 -2.07672407E-05  1.99002231E-04  3.96844137E-05 -1.25297187E-05
 -7.06287714E-05 -1.06315052E-05 -1.20144374E-06  3.28447140E-06  2.67151695E-06
 -2.26320727E-08 -9.80190143E-07  2.11080668E-07  1.66219114E-06  2.33351234E-06
  1.91713690E-05 -1.83334045E-05 -2.92309101E-05 -8.23154490E-06  1.54392603E-06
  1.27499825E-06 -1.34855248E-06  2.36503991E-06 -1.50907763E-07 -8.53780920E-07
 -1.31733416E-05  1.96739463E-06 -7.72938369E-06 -2.22621323E-05  1.09081178E-05
  6.66733357E-06 -2.06729208E-05 -3.41553780E-06  1.99583325E-05  2.79607224E-05
  8.55755513E-08 -6.76348783E-05  2.60522130E-05 -6.48544859E-05 -3.74202413E-06
 -1.48498085E-05  3.61602309E-07  1.51864602E-05 -4.75180259E-07  2.29160477E-06
  4.16666260E-04 -3.26818874E-04  3.95984508E-04 -5.34652521E-06 -3.92830483E-06
  1.26667366E-05  8.44007982E-06  8.79985159E-05 -3.46658163E-06 -1.12899622E-04