18710462                                                                
Freq      RMP2-FC                                                     6-31G(d)            
Number of atoms                            I               24
Info1-9                                    I   N=           9
          36          34        1002           0           0         100
           6           2           1
Charge                                     I                0
Multiplicity                               I                1
Number of electrons                        I               64
Number of alpha electrons                  I               32
Number of beta electrons                   I               32
Number of basis functions                  I              152
Number of independent functions            I              152
Number of point charges in /Mol/           I                0
Number of translation vectors              I                0
Atomic numbers                             I   N=          24
           6           6           6           6           6           6
           6           6           1           1           1           1
           1           1           1           1           1           1
           1           1           1           1           1           1
Nuclear charges                            R   N=          24
  6.00000000E+00  6.00000000E+00  6.00000000E+00  6.00000000E+00  6.00000000E+00
  6.00000000E+00  6.00000000E+00  6.00000000E+00  1.00000000E+00  1.00000000E+00
  1.00000000E+00  1.00000000E+00  1.00000000E+00  1.00000000E+00  1.00000000E+00
  1.00000000E+00  1.00000000E+00  1.00000000E+00  1.00000000E+00  1.00000000E+00
  1.00000000E+00  1.00000000E+00  1.00000000E+00  1.00000000E+00
Current cartesian coordinates              R   N=          72
  2.03519199E+00  7.08738442E-01  7.62795602E-01 -2.03520146E+00  7.08760798E-01
  7.62798290E-01  5.82327163E-06  2.69732355E+00  1.04351969E-01 -1.61810883E-05
 -1.34745435E+00  3.40915970E-01  4.45883846E+00  6.03618893E-01 -7.67310260E-01
 -4.45885875E+00  6.03641707E-01 -7.67291367E-01  6.08410106E+00 -1.68639689E+00
 -1.03476073E-01 -6.08406677E+00 -1.68642319E+00 -1.03489890E-01  2.48292779E+00
  8.24022377E-01  2.78707869E+00 -2.48292517E+00  8.24055387E-01  2.78708369E+00
  1.51405828E-05  4.49415109E+00  1.13059166E+00  8.42452255E-06  3.09167882E+00
 -1.93204757E+00 -1.90946233E-05 -1.97127507E+00 -1.63925036E+00 -2.45148141E-05
 -3.01486946E+00  1.56513912E+00  5.53947674E+00  2.34973170E+00 -4.69246678E-01
  3.96726575E+00  5.53117189E-01 -2.78275314E+00 -3.96730289E+00  5.53197051E-01
 -2.78273958E+00 -5.53953119E+00  2.34972386E+00 -4.69176099E-01  5.05015283E+00
 -3.44356942E+00 -4.49461919E-01  7.81770354E+00 -1.73731498E+00 -1.22905064E+00
  6.62283222E+00 -1.65125142E+00  1.89332142E+00 -6.62272628E+00 -1.65136015E+00
  1.89332868E+00 -7.81771017E+00 -1.73732235E+00 -1.22900253E+00 -5.05010809E+00
 -3.44356836E+00 -4.49580203E-01
Force Field                                I                0
Int Atom Types                             I   N=          24
           0           0           0           0           0           0
           0           0           0           0           0           0
           0           0           0           0           0           0
           0           0           0           0           0           0
MM charges                                 R   N=          24
  0.00000000E+00  0.00000000E+00  0.00000000E+00  0.00000000E+00  0.00000000E+00
  0.00000000E+00  0.00000000E+00  0.00000000E+00  0.00000000E+00  0.00000000E+00
  0.00000000E+00  0.00000000E+00  0.00000000E+00  0.00000000E+00  0.00000000E+00
  0.00000000E+00  0.00000000E+00  0.00000000E+00  0.00000000E+00  0.00000000E+00
  0.00000000E+00  0.00000000E+00  0.00000000E+00  0.00000000E+00
Integer atomic weights                     I   N=          24
          12          12          12          12          12          12
          12          12           1           1           1           1
           1           1           1           1           1           1
           1           1           1           1           1           1
Real atomic weights                        R   N=          24
  1.20000000E+01  1.20000000E+01  1.20000000E+01  1.20000000E+01  1.20000000E+01
  1.20000000E+01  1.20000000E+01  1.20000000E+01  1.00782504E+00  1.00782504E+00
  1.00782504E+00  1.00782504E+00  1.00782504E+00  1.00782504E+00  1.00782504E+00
  1.00782504E+00  1.00782504E+00  1.00782504E+00  1.00782504E+00  1.00782504E+00
  1.00782504E+00  1.00782504E+00  1.00782504E+00  1.00782504E+00
Atom fragment info                         I   N=          24
           0           0           0           0           0           0
           0           0           0           0           0           0
           0           0           0           0           0           0
           0           0           0           0           0           0
Atom residue num                           I   N=          24
           0           0           0           0           0           0
           0           0           0           0           0           0
           0           0           0           0           0           0
           0           0           0           0           0           0
Nuclear spins                              I   N=          24
           0           0           0           0           0           0
           0           0           1           1           1           1
           1           1           1           1           1           1
           1           1           1           1           1           1
Nuclear ZEff                               R   N=          24
 -3.60000000E+00 -3.60000000E+00 -3.60000000E+00 -3.60000000E+00 -3.60000000E+00
 -3.60000000E+00 -3.60000000E+00 -3.60000000E+00 -1.00000000E+00 -1.00000000E+00
 -1.00000000E+00 -1.00000000E+00 -1.00000000E+00 -1.00000000E+00 -1.00000000E+00
 -1.00000000E+00 -1.00000000E+00 -1.00000000E+00 -1.00000000E+00 -1.00000000E+00
 -1.00000000E+00 -1.00000000E+00 -1.00000000E+00 -1.00000000E+00
Nuclear QMom                               R   N=          24
  0.00000000E+00  0.00000000E+00  0.00000000E+00  0.00000000E+00  0.00000000E+00
  0.00000000E+00  0.00000000E+00  0.00000000E+00  0.00000000E+00  0.00000000E+00
  0.00000000E+00  0.00000000E+00  0.00000000E+00  0.00000000E+00  0.00000000E+00
  0.00000000E+00  0.00000000E+00  0.00000000E+00  0.00000000E+00  0.00000000E+00
  0.00000000E+00  0.00000000E+00  0.00000000E+00  0.00000000E+00
Nuclear GFac                               R   N=          24
  0.00000000E+00  0.00000000E+00  0.00000000E+00  0.00000000E+00  0.00000000E+00
  0.00000000E+00  0.00000000E+00  0.00000000E+00  2.79284600E+00  2.79284600E+00
  2.79284600E+00  2.79284600E+00  2.79284600E+00  2.79284600E+00  2.79284600E+00
  2.79284600E+00  2.79284600E+00  2.79284600E+00  2.79284600E+00  2.79284600E+00
  2.79284600E+00  2.79284600E+00  2.79284600E+00  2.79284600E+00
MicOpt                                     I   N=          24
          -1          -1          -1          -1          -1          -1
          -1          -1          -1          -1          -1          -1
          -1          -1          -1          -1          -1          -1
          -1          -1          -1          -1          -1          -1
Number of contracted shells                I               64
Number of primitive shells                 I              152
Pure/Cartesian d shells                    I                1
Pure/Cartesian f shells                    I                0
Highest angular momentum                   I                2
Largest degree of contraction              I                6
Shell types                                I   N=          64
           0          -1          -1           2           0          -1
          -1           2           0          -1          -1           2
           0          -1          -1           2           0          -1
          -1           2           0          -1          -1           2
           0          -1          -1           2           0          -1
          -1           2           0           0           0           0
           0           0           0           0           0           0
           0           0           0           0           0           0
           0           0           0           0           0           0
           0           0           0           0           0           0
           0           0           0           0
Number of primitives per shell             I   N=          64
           6           3           1           1           6           3
           1           1           6           3           1           1
           6           3           1           1           6           3
           1           1           6           3           1           1
           6           3           1           1           6           3
           1           1           3           1           3           1
           3           1           3           1           3           1
           3           1           3           1           3           1
           3           1           3           1           3           1
           3           1           3           1           3           1
           3           1           3           1
Shell to atom map                          I   N=          64
           1           1           1           1           2           2
           2           2           3           3           3           3
           4           4           4           4           5           5
           5           5           6           6           6           6
           7           7           7           7           8           8
           8           8           9           9          10          10
          11          11          12          12          13          13
          14          14          15          15          16          16
          17          17          18          18          19          19
          20          20          21          21          22          22
          23          23          24          24
Primitive exponents                        R   N=         152
  3.04752488E+03  4.57369518E+02  1.03948685E+02  2.92101553E+01  9.28666296E+00
  3.16392696E+00  7.86827235E+00  1.88128854E+00  5.44249258E-01  1.68714478E-01
  8.00000000E-01  3.04752488E+03  4.57369518E+02  1.03948685E+02  2.92101553E+01
  9.28666296E+00  3.16392696E+00  7.86827235E+00  1.88128854E+00  5.44249258E-01
  1.68714478E-01  8.00000000E-01  3.04752488E+03  4.57369518E+02  1.03948685E+02
  2.92101553E+01  9.28666296E+00  3.16392696E+00  7.86827235E+00  1.88128854E+00
  5.44249258E-01  1.68714478E-01  8.00000000E-01  3.04752488E+03  4.57369518E+02
  1.03948685E+02  2.92101553E+01  9.28666296E+00  3.16392696E+00  7.86827235E+00
  1.88128854E+00  5.44249258E-01  1.68714478E-01  8.00000000E-01  3.04752488E+03
  4.57369518E+02  1.03948685E+02  2.92101553E+01  9.28666296E+00  3.16392696E+00
  7.86827235E+00  1.88128854E+00  5.44249258E-01  1.68714478E-01  8.00000000E-01
  3.04752488E+03  4.57369518E+02  1.03948685E+02  2.92101553E+01  9.28666296E+00
  3.16392696E+00  7.86827235E+00  1.88128854E+00  5.44249258E-01  1.68714478E-01
  8.00000000E-01  3.04752488E+03  4.57369518E+02  1.03948685E+02  2.92101553E+01
  9.28666296E+00  3.16392696E+00  7.86827235E+00  1.88128854E+00  5.44249258E-01
  1.68714478E-01  8.00000000E-01  3.04752488E+03  4.57369518E+02  1.03948685E+02
  2.92101553E+01  9.28666296E+00  3.16392696E+00  7.86827235E+00  1.88128854E+00
  5.44249258E-01  1.68714478E-01  8.00000000E-01  1.87311370E+01  2.82539436E+00
  6.40121692E-01  1.61277759E-01  1.87311370E+01  2.82539436E+00  6.40121692E-01
  1.61277759E-01  1.87311370E+01  2.82539436E+00  6.40121692E-01  1.61277759E-01
  1.87311370E+01  2.82539436E+00  6.40121692E-01  1.61277759E-01  1.87311370E+01
  2.82539436E+00  6.40121692E-01  1.61277759E-01  1.87311370E+01  2.82539436E+00
  6.40121692E-01  1.61277759E-01  1.87311370E+01  2.82539436E+00  6.40121692E-01
  1.61277759E-01  1.87311370E+01  2.82539436E+00  6.40121692E-01  1.61277759E-01
  1.87311370E+01  2.82539436E+00  6.40121692E-01  1.61277759E-01  1.87311370E+01
  2.82539436E+00  6.40121692E-01  1.61277759E-01  1.87311370E+01  2.82539436E+00
  6.40121692E-01  1.61277759E-01  1.87311370E+01  2.82539436E+00  6.40121692E-01
  1.61277759E-01  1.87311370E+01  2.82539436E+00  6.40121692E-01  1.61277759E-01
  1.87311370E+01  2.82539436E+00  6.40121692E-01  1.61277759E-01  1.87311370E+01
  2.82539436E+00  6.40121692E-01  1.61277759E-01  1.87311370E+01  2.82539436E+00
  6.40121692E-01  1.61277759E-01
Contraction coefficients                   R   N=         152
  1.83473713E-03  1.40373228E-02  6.88426223E-02  2.32184443E-01  4.67941348E-01
  3.62311985E-01 -1.19332420E-01 -1.60854152E-01  1.14345644E+00  1.00000000E+00
  1.00000000E+00  1.83473713E-03  1.40373228E-02  6.88426223E-02  2.32184443E-01
  4.67941348E-01  3.62311985E-01 -1.19332420E-01 -1.60854152E-01  1.14345644E+00
  1.00000000E+00  1.00000000E+00  1.83473713E-03  1.40373228E-02  6.88426223E-02
  2.32184443E-01  4.67941348E-01  3.62311985E-01 -1.19332420E-01 -1.60854152E-01
  1.14345644E+00  1.00000000E+00  1.00000000E+00  1.83473713E-03  1.40373228E-02
  6.88426223E-02  2.32184443E-01  4.67941348E-01  3.62311985E-01 -1.19332420E-01
 -1.60854152E-01  1.14345644E+00  1.00000000E+00  1.00000000E+00  1.83473713E-03
  1.40373228E-02  6.88426223E-02  2.32184443E-01  4.67941348E-01  3.62311985E-01
 -1.19332420E-01 -1.60854152E-01  1.14345644E+00  1.00000000E+00  1.00000000E+00
  1.83473713E-03  1.40373228E-02  6.88426223E-02  2.32184443E-01  4.67941348E-01
  3.62311985E-01 -1.19332420E-01 -1.60854152E-01  1.14345644E+00  1.00000000E+00
  1.00000000E+00  1.83473713E-03  1.40373228E-02  6.88426223E-02  2.32184443E-01
  4.67941348E-01  3.62311985E-01 -1.19332420E-01 -1.60854152E-01  1.14345644E+00
  1.00000000E+00  1.00000000E+00  1.83473713E-03  1.40373228E-02  6.88426223E-02
  2.32184443E-01  4.67941348E-01  3.62311985E-01 -1.19332420E-01 -1.60854152E-01
  1.14345644E+00  1.00000000E+00  1.00000000E+00  3.34946043E-02  2.34726953E-01
  8.13757326E-01  1.00000000E+00  3.34946043E-02  2.34726953E-01  8.13757326E-01
  1.00000000E+00  3.34946043E-02  2.34726953E-01  8.13757326E-01  1.00000000E+00
  3.34946043E-02  2.34726953E-01  8.13757326E-01  1.00000000E+00  3.34946043E-02
  2.34726953E-01  8.13757326E-01  1.00000000E+00  3.34946043E-02  2.34726953E-01
  8.13757326E-01  1.00000000E+00  3.34946043E-02  2.34726953E-01  8.13757326E-01
  1.00000000E+00  3.34946043E-02  2.34726953E-01  8.13757326E-01  1.00000000E+00
  3.34946043E-02  2.34726953E-01  8.13757326E-01  1.00000000E+00  3.34946043E-02
  2.34726953E-01  8.13757326E-01  1.00000000E+00  3.34946043E-02  2.34726953E-01
  8.13757326E-01  1.00000000E+00  3.34946043E-02  2.34726953E-01  8.13757326E-01
  1.00000000E+00  3.34946043E-02  2.34726953E-01  8.13757326E-01  1.00000000E+00
  3.34946043E-02  2.34726953E-01  8.13757326E-01  1.00000000E+00  3.34946043E-02
  2.34726953E-01  8.13757326E-01  1.00000000E+00  3.34946043E-02  2.34726953E-01
  8.13757326E-01  1.00000000E+00
P(S=P) Contraction coefficients            R   N=         152
  0.00000000E+00  0.00000000E+00  0.00000000E+00  0.00000000E+00  0.00000000E+00
  0.00000000E+00  6.89990666E-02  3.16423961E-01  7.44308291E-01  1.00000000E+00
  0.00000000E+00  0.00000000E+00  0.00000000E+00  0.00000000E+00  0.00000000E+00
  0.00000000E+00  0.00000000E+00  6.89990666E-02  3.16423961E-01  7.44308291E-01
  1.00000000E+00  0.00000000E+00  0.00000000E+00  0.00000000E+00  0.00000000E+00
  0.00000000E+00  0.00000000E+00  0.00000000E+00  6.89990666E-02  3.16423961E-01
  7.44308291E-01  1.00000000E+00  0.00000000E+00  0.00000000E+00  0.00000000E+00
  0.00000000E+00  0.00000000E+00  0.00000000E+00  0.00000000E+00  6.89990666E-02
  3.16423961E-01  7.44308291E-01  1.00000000E+00  0.00000000E+00  0.00000000E+00
  0.00000000E+00  0.00000000E+00  0.00000000E+00  0.00000000E+00  0.00000000E+00
  6.89990666E-02  3.16423961E-01  7.44308291E-01  1.00000000E+00  0.00000000E+00
  0.00000000E+00  0.00000000E+00  0.00000000E+00  0.00000000E+00  0.00000000E+00
  0.00000000E+00  6.89990666E-02  3.16423961E-01  7.44308291E-01  1.00000000E+00
  0.00000000E+00  0.00000000E+00  0.00000000E+00  0.00000000E+00  0.00000000E+00
  0.00000000E+00  0.00000000E+00  6.89990666E-02  3.16423961E-01  7.44308291E-01
  1.00000000E+00  0.00000000E+00  0.00000000E+00  0.00000000E+00  0.00000000E+00
  0.00000000E+00  0.00000000E+00  0.00000000E+00  6.89990666E-02  3.16423961E-01
  7.44308291E-01  1.00000000E+00  0.00000000E+00  0.00000000E+00  0.00000000E+00
  0.00000000E+00  0.00000000E+00  0.00000000E+00  0.00000000E+00  0.00000000E+00
  0.00000000E+00  0.00000000E+00  0.00000000E+00  0.00000000E+00  0.00000000E+00
  0.00000000E+00  0.00000000E+00  0.00000000E+00  0.00000000E+00  0.00000000E+00
  0.00000000E+00  0.00000000E+00  0.00000000E+00  0.00000000E+00  0.00000000E+00
  0.00000000E+00  0.00000000E+00  0.00000000E+00  0.00000000E+00  0.00000000E+00
  0.00000000E+00  0.00000000E+00  0.00000000E+00  0.00000000E+00  0.00000000E+00
  0.00000000E+00  0.00000000E+00  0.00000000E+00  0.00000000E+00  0.00000000E+00
  0.00000000E+00  0.00000000E+00  0.00000000E+00  0.00000000E+00  0.00000000E+00
  0.00000000E+00  0.00000000E+00  0.00000000E+00  0.00000000E+00  0.00000000E+00
  0.00000000E+00  0.00000000E+00  0.00000000E+00  0.00000000E+00  0.00000000E+00
  0.00000000E+00  0.00000000E+00  0.00000000E+00  0.00000000E+00  0.00000000E+00
  0.00000000E+00  0.00000000E+00  0.00000000E+00  0.00000000E+00  0.00000000E+00
  0.00000000E+00  0.00000000E+00
Coordinates of each shell                  R   N=         192
  2.03519199E+00  7.08738442E-01  7.62795602E-01  2.03519199E+00  7.08738442E-01
  7.62795602E-01  2.03519199E+00  7.08738442E-01  7.62795602E-01  2.03519199E+00
  7.08738442E-01  7.62795602E-01 -2.03520146E+00  7.08760798E-01  7.62798290E-01
 -2.03520146E+00  7.08760798E-01  7.62798290E-01 -2.03520146E+00  7.08760798E-01
  7.62798290E-01 -2.03520146E+00  7.08760798E-01  7.62798290E-01  5.82327163E-06
  2.69732355E+00  1.04351969E-01  5.82327163E-06  2.69732355E+00  1.04351969E-01
  5.82327163E-06  2.69732355E+00  1.04351969E-01  5.82327163E-06  2.69732355E+00
  1.04351969E-01 -1.61810883E-05 -1.34745435E+00  3.40915970E-01 -1.61810883E-05
 -1.34745435E+00  3.40915970E-01 -1.61810883E-05 -1.34745435E+00  3.40915970E-01
 -1.61810883E-05 -1.34745435E+00  3.40915970E-01  4.45883846E+00  6.03618893E-01
 -7.67310260E-01  4.45883846E+00  6.03618893E-01 -7.67310260E-01  4.45883846E+00
  6.03618893E-01 -7.67310260E-01  4.45883846E+00  6.03618893E-01 -7.67310260E-01
 -4.45885875E+00  6.03641707E-01 -7.67291367E-01 -4.45885875E+00  6.03641707E-01
 -7.67291367E-01 -4.45885875E+00  6.03641707E-01 -7.67291367E-01 -4.45885875E+00
  6.03641707E-01 -7.67291367E-01  6.08410106E+00 -1.68639689E+00 -1.03476073E-01
  6.08410106E+00 -1.68639689E+00 -1.03476073E-01  6.08410106E+00 -1.68639689E+00
 -1.03476073E-01  6.08410106E+00 -1.68639689E+00 -1.03476073E-01 -6.08406677E+00
 -1.68642319E+00 -1.03489890E-01 -6.08406677E+00 -1.68642319E+00 -1.03489890E-01
 -6.08406677E+00 -1.68642319E+00 -1.03489890E-01 -6.08406677E+00 -1.68642319E+00
 -1.03489890E-01  2.48292779E+00  8.24022377E-01  2.78707869E+00  2.48292779E+00
  8.24022377E-01  2.78707869E+00 -2.48292517E+00  8.24055387E-01  2.78708369E+00
 -2.48292517E+00  8.24055387E-01  2.78708369E+00  1.51405828E-05  4.49415109E+00
  1.13059166E+00  1.51405828E-05  4.49415109E+00  1.13059166E+00  8.42452255E-06
  3.09167882E+00 -1.93204757E+00  8.42452255E-06  3.09167882E+00 -1.93204757E+00
 -1.90946233E-05 -1.97127507E+00 -1.63925036E+00 -1.90946233E-05 -1.97127507E+00
 -1.63925036E+00 -2.45148141E-05 -3.01486946E+00  1.56513912E+00 -2.45148141E-05
 -3.01486946E+00  1.56513912E+00  5.53947674E+00  2.34973170E+00 -4.69246678E-01
  5.53947674E+00  2.34973170E+00 -4.69246678E-01  3.96726575E+00  5.53117189E-01
 -2.78275314E+00  3.96726575E+00  5.53117189E-01 -2.78275314E+00 -3.96730289E+00
  5.53197051E-01 -2.78273958E+00 -3.96730289E+00  5.53197051E-01 -2.78273958E+00
 -5.53953119E+00  2.34972386E+00 -4.69176099E-01 -5.53953119E+00  2.34972386E+00
 -4.69176099E-01  5.05015283E+00 -3.44356942E+00 -4.49461919E-01  5.05015283E+00
 -3.44356942E+00 -4.49461919E-01  7.81770354E+00 -1.73731498E+00 -1.22905064E+00
  7.81770354E+00 -1.73731498E+00 -1.22905064E+00  6.62283222E+00 -1.65125142E+00
  1.89332142E+00  6.62283222E+00 -1.65125142E+00  1.89332142E+00 -6.62272628E+00
 -1.65136015E+00  1.89332868E+00 -6.62272628E+00 -1.65136015E+00  1.89332868E+00
 -7.81771017E+00 -1.73732235E+00 -1.22900253E+00 -7.81771017E+00 -1.73732235E+00
 -1.22900253E+00 -5.05010809E+00 -3.44356836E+00 -4.49580203E-01 -5.05010809E+00
 -3.44356836E+00 -4.49580203E-01
Constraint Structure                       R   N=          72
  2.03519199E+00  7.08738442E-01  7.62795602E-01 -2.03520146E+00  7.08760798E-01
  7.62798290E-01  5.82327163E-06  2.69732355E+00  1.04351969E-01 -1.61810883E-05
 -1.34745435E+00  3.40915970E-01  4.45883846E+00  6.03618893E-01 -7.67310260E-01
 -4.45885875E+00  6.03641707E-01 -7.67291367E-01  6.08410106E+00 -1.68639689E+00
 -1.03476073E-01 -6.08406677E+00 -1.68642319E+00 -1.03489890E-01  2.48292779E+00
  8.24022377E-01  2.78707869E+00 -2.48292517E+00  8.24055387E-01  2.78708369E+00
  1.51405828E-05  4.49415109E+00  1.13059166E+00  8.42452255E-06  3.09167882E+00
 -1.93204757E+00 -1.90946233E-05 -1.97127507E+00 -1.63925036E+00 -2.45148141E-05
 -3.01486946E+00  1.56513912E+00  5.53947674E+00  2.34973170E+00 -4.69246678E-01
  3.96726575E+00  5.53117189E-01 -2.78275314E+00 -3.96730289E+00  5.53197051E-01
 -2.78273958E+00 -5.53953119E+00  2.34972386E+00 -4.69176099E-01  5.05015283E+00
 -3.44356942E+00 -4.49461919E-01  7.81770354E+00 -1.73731498E+00 -1.22905064E+00
  6.62283222E+00 -1.65125142E+00  1.89332142E+00 -6.62272628E+00 -1.65136015E+00
  1.89332868E+00 -7.81771017E+00 -1.73732235E+00 -1.22900253E+00 -5.05010809E+00
 -3.44356836E+00 -4.49580203E-01
Num ILSW                                   I              100
ILSW                                       I   N=         100
           0           1           0           1           2           0
           0           0           0           0           0          -1
           0           0           0           0           0           0
           0           0           0           0           1           0
           1           0           0           0           0           0
           0           0      100000           0          -1           0
           0           0           0           0           0           0
           0           0           0           1           1           0
           0           0           1           0           0           0
           0           0           4          40           0           0
           0           0           0           0           0           0
           0           0           0           0           0           0
           0           0           0           0           0           0
           0           0           0           0           0           0
           0           0           0           0           0           0
           0           0           0           0           0           0
           0           0           0           0
Num RLSW                                   I               40
RLSW                                       R   N=          40
  1.00000000E+00  1.00000000E+00  1.00000000E+00  1.00000000E+00  1.00000000E+00
  0.00000000E+00  0.00000000E+00  1.00000000E+00  0.00000000E+00  0.00000000E+00
  0.00000000E+00  0.00000000E+00  1.00000000E+00  0.00000000E+00  0.00000000E+00
  0.00000000E+00  0.00000000E+00  1.00000000E+00  0.00000000E+00  0.00000000E+00
  0.00000000E+00  0.00000000E+00  1.00000000E+00  0.00000000E+00  0.00000000E+00
  0.00000000E+00  0.00000000E+00  1.00000000E+00  0.00000000E+00  0.00000000E+00
  0.00000000E+00  0.00000000E+00  0.00000000E+00  0.00000000E+00  0.00000000E+00
  0.00000000E+00  0.00000000E+00  0.00000000E+00  1.00000000E+00  1.00000000E+00
MxBond                                     I                4
NBond                                      I   N=          24
           4           4           4           4           4           4
           4           4           1           1           1           1
           1           1           1           1           1           1
           1           1           1           1           1           1
IBond                                      I   N=          96
           3           4           5           9           3           4
           6          10           1           2          11          12
           1           2          13          14           1           7
          15          16           2           8          17          18
           5          19          20          21           6          22
          23          24           1           0           0           0
           2           0           0           0           3           0
           0           0           3           0           0           0
           4           0           0           0           4           0
           0           0           5           0           0           0
           5           0           0           0           6           0
           0           0           6           0           0           0
           7           0           0           0           7           0
           0           0           7           0           0           0
           8           0           0           0           8           0
           0           0           8           0           0           0
RBond                                      R   N=          96
  1.00000000E+00  1.00000000E+00  1.00000000E+00  1.00000000E+00  1.00000000E+00
  1.00000000E+00  1.00000000E+00  1.00000000E+00  1.00000000E+00  1.00000000E+00
  1.00000000E+00  1.00000000E+00  1.00000000E+00  1.00000000E+00  1.00000000E+00
  1.00000000E+00  1.00000000E+00  1.00000000E+00  1.00000000E+00  1.00000000E+00
  1.00000000E+00  1.00000000E+00  1.00000000E+00  1.00000000E+00  1.00000000E+00
  1.00000000E+00  1.00000000E+00  1.00000000E+00  1.00000000E+00  1.00000000E+00
  1.00000000E+00  1.00000000E+00  1.00000000E+00  0.00000000E+00  0.00000000E+00
  0.00000000E+00  1.00000000E+00  0.00000000E+00  0.00000000E+00  0.00000000E+00
  1.00000000E+00  0.00000000E+00  0.00000000E+00  0.00000000E+00  1.00000000E+00
  0.00000000E+00  0.00000000E+00  0.00000000E+00  1.00000000E+00  0.00000000E+00
  0.00000000E+00  0.00000000E+00  1.00000000E+00  0.00000000E+00  0.00000000E+00
  0.00000000E+00  1.00000000E+00  0.00000000E+00  0.00000000E+00  0.00000000E+00
  1.00000000E+00  0.00000000E+00  0.00000000E+00  0.00000000E+00  1.00000000E+00
  0.00000000E+00  0.00000000E+00  0.00000000E+00  1.00000000E+00  0.00000000E+00
  0.00000000E+00  0.00000000E+00  1.00000000E+00  0.00000000E+00  0.00000000E+00
  0.00000000E+00  1.00000000E+00  0.00000000E+00  0.00000000E+00  0.00000000E+00
  1.00000000E+00  0.00000000E+00  0.00000000E+00  0.00000000E+00  1.00000000E+00
  0.00000000E+00  0.00000000E+00  0.00000000E+00  1.00000000E+00  0.00000000E+00
  0.00000000E+00  0.00000000E+00  1.00000000E+00  0.00000000E+00  0.00000000E+00
  0.00000000E+00
Virial Ratio                               R      2.000894226522522E+00
SCF Energy                                 R     -3.122397794294861E+02
MP2 Energy                                 R     -3.132904684874747E+02
Total Energy                               R     -3.132904684874747E+02
Post-SCF wavefunction norm                 R      1.645541758571482E+00
RMS Force                                  R      9.607053039448174E-07
RMS Density                                R      6.932961728387155E-10
External E-field                           R   N=          35
  0.00000000E+00  0.00000000E+00  0.00000000E+00  0.00000000E+00  0.00000000E+00
  0.00000000E+00  0.00000000E+00  0.00000000E+00  0.00000000E+00  0.00000000E+00
  0.00000000E+00  0.00000000E+00  0.00000000E+00  0.00000000E+00  0.00000000E+00
  0.00000000E+00  0.00000000E+00  0.00000000E+00  0.00000000E+00  0.00000000E+00
  0.00000000E+00  0.00000000E+00  0.00000000E+00  0.00000000E+00  0.00000000E+00
  0.00000000E+00  0.00000000E+00  0.00000000E+00  0.00000000E+00  0.00000000E+00
  0.00000000E+00  0.00000000E+00  0.00000000E+00  0.00000000E+00  0.00000000E+00
IOpCl                                      I                0
IROHF                                      I                0
Alpha Orbital Energies                     R   N=         152
 -1.12185077E+01 -1.12184578E+01 -1.12139875E+01 -1.12139869E+01 -1.12117311E+01
 -1.12113646E+01 -1.12099924E+01 -1.12099923E+01 -1.14100650E+00 -1.04592248E+00
 -1.00744704E+00 -8.99013933E-01 -8.91661328E-01 -8.40821829E-01 -7.68891443E-01
 -7.43584747E-01 -6.51518426E-01 -6.16747579E-01 -6.12428637E-01 -5.84746373E-01
 -5.72039741E-01 -5.36688637E-01 -5.30634068E-01 -5.24462417E-01 -5.07498650E-01
 -5.05159145E-01 -4.81976619E-01 -4.63905942E-01 -4.41663158E-01 -4.39816738E-01
 -4.21546674E-01 -4.06252831E-01  2.27083909E-01  2.40698504E-01  2.46478482E-01
  2.61089916E-01  2.94832928E-01  3.00475281E-01  3.02067190E-01  3.16767299E-01
  3.21683300E-01  3.24684982E-01  3.30816049E-01  3.41509406E-01  3.42225692E-01
  3.50009518E-01  3.60005680E-01  3.69211031E-01  3.74096397E-01  3.87908338E-01
  4.25049525E-01  4.25830005E-01  4.35594890E-01  4.85546928E-01  4.99065527E-01
  5.54786639E-01  6.86545071E-01  7.05966135E-01  7.23063313E-01  7.33461862E-01