
    -----------------------------------------------------------------------
          Psi4: An Open-Source Ab Initio Electronic Structure Package
                               Psi4 1.3.2 release

                         Git: Rev {HEAD} ecbda83 


    R. M. Parrish, L. A. Burns, D. G. A. Smith, A. C. Simmonett,
    A. E. DePrince III, E. G. Hohenstein, U. Bozkaya, A. Yu. Sokolov,
    R. Di Remigio, R. M. Richard, J. F. Gonthier, A. M. James,
    H. R. McAlexander, A. Kumar, M. Saitow, X. Wang, B. P. Pritchard,
    P. Verma, H. F. Schaefer III, K. Patkowski, R. A. King, E. F. Valeev,
    F. A. Evangelista, J. M. Turney, T. D. Crawford, and C. D. Sherrill,
    J. Chem. Theory Comput. 13(7) pp 3185--3197 (2017).
    (doi: 10.1021/acs.jctc.7b00174)


                         Additional Contributions by
    P. Kraus, H. Kruse, M. H. Lechner, M. C. Schieber, R. A. Shaw,
    A. Alenaizan, R. Galvelis, Z. L. Glick, S. Lehtola, and J. P. Misiewicz

    -----------------------------------------------------------------------


    Psi4 started on: Friday, 06 November 2020 10:24AM

    Process ID: 28947
    Host:       node37.bme.utexas.edu
    PSIDATADIR: /home/xy3866/psi4conda/share/psi4
    Memory:     500.0 MiB
    Threads:    8
    
  ==> Input File <==

--------------------------------------------------------------------------
#psi4
#
memory 32 gb

molecule  {
0 1
  O       -0.1027990     2.1661630    -0.1573240
  O       -2.2585870    -1.3354710    -0.3679860
  O       -2.3909180     0.7817600     0.4224630
  C       -0.2229310    -0.2124960     0.0158460
  C        0.5432600     0.9664360    -0.0570110
  C        0.3898988    -1.4714900     0.0955118
  C        1.9402870     0.8816050    -0.0559020
  C        1.8233140    -1.5265410     0.1016630
  C        2.5770400    -0.3539830     0.0301550
  C       -1.7066960    -0.1573290     0.0554370
  H       -0.1661180    -2.3524960     0.1439440
  H        2.5301710     1.7954230    -0.1182500
  H        2.3148760    -2.4929130     0.1687580
  H        3.6635200    -0.3964420     0.0343940
  H        0.5733460     2.8632860    -0.2381370
  H       -3.2241600    -1.2056690    -0.2641310
units angstrom
no_reorient  #important for SAPT in psi4, default
symmetry c1  #important for SAPT in psi4, default
}

set PROPERTIES_ORIGIN ["COM"]
properties('MP2/aug-cc-pvtz', properties = ['dipole'])
--------------------------------------------------------------------------

  Memory set to  29.802 GiB by Python driver.
    SCF Algorithm Type (re)set to DF.

*** tstart() called on node37.bme.utexas.edu
*** at Fri Nov  6 10:24:31 2020

   => Loading Basis Set <=

    Name: AUG-CC-PVTZ
    Role: ORBITAL
    Keyword: BASIS
    atoms 1-3   entry O          line   327 file /home/xy3866/psi4conda/share/psi4/basis/aug-cc-pvtz.gbs 
    atoms 4-10  entry C          line   235 file /home/xy3866/psi4conda/share/psi4/basis/aug-cc-pvtz.gbs 
    atoms 11-16 entry H          line    36 file /home/xy3866/psi4conda/share/psi4/basis/aug-cc-pvtz.gbs 


         ---------------------------------------------------------
                                   SCF
               by Justin Turney, Rob Parrish, Andy Simmonett
                          and Daniel G. A. Smith
                              RHF Reference
                        8 Threads,  30517 MiB Core
         ---------------------------------------------------------

  ==> Geometry <==

    Molecular point group: c1
    Full point group: C1

    Geometry (in Angstrom), charge = 0, multiplicity = 1:

       Center              X                  Y                   Z               Mass       
    ------------   -----------------  -----------------  -----------------  -----------------
         O           -0.058269727639     2.155276749746    -0.159553973937    15.994914619570
         O           -2.214057727639    -1.346357250254    -0.370215973937    15.994914619570
         O           -2.346388727639     0.770873749746     0.420233026063    15.994914619570
         C           -0.178401727639    -0.223382250254     0.013616026063    12.000000000000
         C            0.587789272361     0.955549749746    -0.059240973937    12.000000000000
         C            0.434428072361    -1.482376250254     0.093281826063    12.000000000000
         C            1.984816272361     0.870718749746    -0.058131973937    12.000000000000
         C            1.867843272361    -1.537427250254     0.099433026063    12.000000000000
         C            2.621569272361    -0.364869250254     0.027925026063    12.000000000000
         C           -1.662166727639    -0.168215250254     0.053207026063    12.000000000000
         H           -0.121588727639    -2.363382250254     0.141714026063     1.007825032230
         H            2.574700272361     1.784536749746    -0.120479973937     1.007825032230
         H            2.359405272361    -2.503799250254     0.166528026063     1.007825032230
         H            3.708049272361    -0.407328250254     0.032164026063     1.007825032230
         H            0.617875272361     2.852399749746    -0.240366973937     1.007825032230
         H           -3.179630727639    -1.216555250254    -0.266360973937     1.007825032230

  Running in c1 symmetry.

  Rotational constants: A =      0.07625  B =      0.04006  C =      0.02676 [cm^-1]
  Rotational constants: A =   2286.02140  B =   1200.96532  C =    802.23292 [MHz]
  Nuclear repulsion =  498.542044238561061

  Charge       = 0
  Multiplicity = 1
  Electrons    = 72
  Nalpha       = 36
  Nbeta        = 36

  ==> Algorithm <==

  SCF Algorithm Type is DF.
  DIIS enabled.
  MOM disabled.
  Fractional occupation disabled.
  Guess Type is SAD.
  Energy threshold   = 1.00e-10
  Density threshold  = 1.00e-10
  Integral threshold = 0.00e+00

  ==> Primary Basis <==

  Basis Set: AUG-CC-PVTZ
    Blend: AUG-CC-PVTZ
    Number of shells: 194
    Number of basis function: 598
    Number of Cartesian functions: 700
    Spherical Harmonics?: true
    Max angular momentum: 3

   => Loading Basis Set <=

    Name: (AUG-CC-PVTZ AUX)
    Role: JKFIT
    Keyword: DF_BASIS_SCF
    atoms 1-3   entry O          line   286 file /home/xy3866/psi4conda/share/psi4/basis/aug-cc-pvtz-jkfit.gbs 
    atoms 4-10  entry C          line   162 file /home/xy3866/psi4conda/share/psi4/basis/aug-cc-pvtz-jkfit.gbs 
    atoms 11-16 entry H          line    70 file /home/xy3866/psi4conda/share/psi4/basis/aug-cc-pvtz-jkfit.gbs 

  ==> Pre-Iterations <==

   -------------------------------------------------------
    Irrep   Nso     Nmo     Nalpha   Nbeta   Ndocc  Nsocc
   -------------------------------------------------------
     A        598     598       0       0       0       0
   -------------------------------------------------------
    Total     598     598      36      36      36       0
   -------------------------------------------------------

  ==> Integral Setup <==

  DFHelper Memory: AOs need 3.431 GiB; user supplied 22.352 GiB. Using in-core AOs.

  ==> MemDFJK: Density-Fitted J/K Matrices <==

    J tasked:                   Yes
    K tasked:                   Yes
    wK tasked:                   No
    OpenMP threads:               8
    Memory [MiB]:             22888
    Algorithm:                 Disk
    Schwarz Cutoff:           1E-12
    Mask sparsity (%):       5.1688
    Fitting Condition:        1E-10

   => Auxiliary Basis Set <=

  Basis Set: (AUG-CC-PVTZ AUX)
    Blend: AUG-CC-PVTZ-JKFIT
    Number of shells: 384
    Number of basis function: 1316
    Number of Cartesian functions: 1640
    Spherical Harmonics?: true
    Max angular momentum: 4

  Minimum eigenvalue in the overlap matrix is 6.5744745722E-07.
  Using Symmetric Orthogonalization.

  SCF Guess: Superposition of Atomic Densities via on-the-fly atomic UHF.

  ==> Iterations <==

                           Total Energy        Delta E     RMS |[F,P]|

   @DF-RHF iter SAD:  -492.33573370260717   -4.92336e+02   0.00000e+00 
   @DF-RHF iter   1:  -493.06206415645704   -7.26330e-01   1.28866e-03 DIIS
   @DF-RHF iter   2:  -493.27794644179386   -2.15882e-01   7.35332e-04 DIIS
   @DF-RHF iter   3:  -493.34555973482998   -6.76133e-02   1.32498e-04 DIIS
   @DF-RHF iter   4:  -493.34907801398407   -3.51828e-03   6.60072e-05 DIIS
   @DF-RHF iter   5:  -493.34987155661952   -7.93543e-04   1.30391e-05 DIIS
   @DF-RHF iter   6:  -493.34993932155567   -6.77649e-05   6.36390e-06 DIIS
   @DF-RHF iter   7:  -493.34995595617130   -1.66346e-05   2.57454e-06 DIIS
   @DF-RHF iter   8:  -493.34995954888990   -3.59272e-06   9.88023e-07 DIIS
   @DF-RHF iter   9:  -493.34996006551569   -5.16626e-07   3.57148e-07 DIIS
   @DF-RHF iter  10:  -493.34996015099620   -8.54805e-08   1.66402e-07 DIIS
   @DF-RHF iter  11:  -493.34996016747073   -1.64745e-08   6.18036e-08 DIIS
   @DF-RHF iter  12:  -493.34996017059598   -3.12525e-09   2.78021e-08 DIIS
   @DF-RHF iter  13:  -493.34996017126065   -6.64670e-10   1.25729e-08 DIIS
   @DF-RHF iter  14:  -493.34996017140503   -1.44382e-10   5.36118e-09 DIIS
   @DF-RHF iter  15:  -493.34996017142663   -2.16005e-11   2.05344e-09 DIIS
   @DF-RHF iter  16:  -493.34996017142822   -1.59162e-12   8.34504e-10 DIIS
   @DF-RHF iter  17:  -493.34996017142902   -7.95808e-13   3.53124e-10 DIIS
   @DF-RHF iter  18:  -493.34996017142680    2.21689e-12   1.18733e-10 DIIS
   @DF-RHF iter  19:  -493.34996017142925   -2.44427e-12   5.97513e-11 DIIS
  Energy and wave function converged.


  ==> Post-Iterations <==

    Orbital Energies [Eh]
    ---------------------

    Doubly Occupied:                                                      

       1A    -20.609970     2A    -20.602569     3A    -20.542473  
       4A    -11.388502     5A    -11.330957     6A    -11.265329  
       7A    -11.264801     8A    -11.258352     9A    -11.249959  
      10A    -11.247110    11A     -1.453769    12A     -1.415109  
      13A     -1.348411    14A     -1.163689    15A     -1.056634  
      16A     -1.018469    17A     -0.896246    18A     -0.865525  
      19A     -0.798933    20A     -0.749938    21A     -0.708181  
      22A     -0.697250    23A     -0.673282    24A     -0.644254  
      25A     -0.633075    26A     -0.624281    27A     -0.596149  
      28A     -0.588581    29A     -0.577652    30A     -0.535700  
      31A     -0.528862    32A     -0.495631    33A     -0.476254  
      34A     -0.445121    35A     -0.362772    36A     -0.328452  

    Virtual:                                                              

      37A      0.023295    38A      0.029893    39A      0.034128  
      40A      0.043468    41A      0.054062    42A      0.063862  
      43A      0.068984    44A      0.077115    45A      0.089669  
      46A      0.093025    47A      0.096164    48A      0.102595  
      49A      0.107523    50A      0.112065    51A      0.115236  
      52A      0.120705    53A      0.121705    54A      0.122760  
      55A      0.130389    56A      0.132425    57A      0.135399  
      58A      0.146519    59A      0.150549    60A      0.154234  
      61A      0.155995    62A      0.157888    63A      0.168554  
      64A      0.175491    65A      0.183899    66A      0.197141  
      67A      0.203531    68A      0.211166    69A      0.220538  
      70A      0.224383    71A      0.226565    72A      0.236185  
      73A      0.237860    74A      0.243953    75A      0.248379  
      76A      0.250754    77A      0.260344    78A      0.267328  
      79A      0.272681    80A      0.277463    81A      0.278475  
      82A      0.287961    83A      0.290988    84A      0.295447  
      85A      0.308793    86A      0.314148    87A      0.318269  
      88A      0.322595    89A      0.326814    90A      0.334652  
      91A      0.336813    92A      0.340135    93A      0.341785  
      94A      0.353798    95A      0.359469    96A      0.370288  
      97A      0.382732    98A      0.388139    99A      0.389992  
     100A      0.402726   101A      0.407889   102A      0.411591  
     103A      0.421576   104A      0.424198   105A      0.427690  
     106A      0.435037   107A      0.439536   108A      0.443346  
     109A      0.446202   110A      0.448420   111A      0.455031  
     112A      0.461271   113A      0.462603   114A      0.467986  
     115A      0.476005   116A      0.479459   117A      0.484234  
     118A      0.486611   119A      0.494121   120A      0.500272  
     121A      0.509778   122A      0.515849   123A      0.517874  
     124A      0.520229   125A      0.524467   126A      0.527774  
     127A      0.534829   128A      0.540387   129A      0.541496  
     130A      0.545564   131A      0.557519   132A      0.580748  
     133A      0.592812   134A      0.599883   135A      0.604054  
     136A      0.614869   137A      0.618799   138A      0.635539  
     139A      0.639590   140A      0.643799   141A      0.652949  
     142A      0.666416   143A      0.671835   144A      0.675573  
     145A      0.682907   146A      0.693657   147A      0.706343  
     148A      0.709988   149A      0.717917   150A      0.722225  
     151A      0.735052   152A      0.742927   153A      0.748862  
     154A      0.751555   155A      0.762413   156A      0.767616  
     157A      0.779850   158A      0.786777   159A      0.801112  
     160A      0.806810   161A      0.812849   162A      0.813810  
     163A      0.828448   164A      0.837025   165A      0.842077  
     166A      0.853391   167A      0.860851   168A      0.862797  
     169A      0.867219   170A      0.870036   171A      0.880017  
     172A      0.882837   173A      0.886042   174A      0.891816  
     175A      0.899926   176A      0.906460   177A      0.911324  
     178A      0.915921   179A      0.919517   180A      0.927424  
     181A      0.938325   182A      0.943930   183A      0.951017  
     184A      0.958154   185A      0.961549   186A      0.975618  
     187A      0.982120   188A      0.987564   189A      0.990022  
     190A      1.003859   191A      1.007948   192A      1.013468  
     193A      1.015466   194A      1.022400   195A      1.035922  
     196A      1.038601   197A      1.040951   198A      1.043818  
     199A      1.049472   200A      1.057147   201A      1.066305  
     202A      1.072835   203A      1.079735   204A      1.084162  
     205A      1.090014   206A      1.091446   207A      1.097609  
     208A      1.105637   209A      1.110417   210A      1.121246  
     211A      1.133951   212A      1.143572   213A      1.150926  
     214A      1.157738   215A      1.164897   216A      1.172291  
     217A      1.177151   218A      1.179629   219A      1.185246  
     220A      1.195249   221A      1.202438   222A      1.205094  
     223A      1.214257   224A      1.217186   225A      1.231492  
     226A      1.240422   227A      1.243847   228A      1.251120  
     229A      1.272207   230A      1.277438   231A      1.290820  
     232A      1.292673   233A      1.299382   234A      1.307450  
     235A      1.328353   236A      1.334809   237A      1.347894  
     238A      1.358266   239A      1.365891   240A      1.372556  
     241A      1.377208   242A      1.380271   243A      1.388044  
     244A      1.401466   245A      1.420537   246A      1.424598  
     247A      1.430716   248A      1.453482   249A      1.470077  
     250A      1.476905   251A      1.484336   252A      1.495729  
     253A      1.515170   254A      1.521074   255A      1.530499  
     256A      1.541004   257A      1.549302   258A      1.559636  
     259A      1.560861   260A      1.574005   261A      1.587052  
     262A      1.614790   263A      1.629773   264A      1.654146  
     265A      1.662685   266A      1.668753   267A      1.674334  
     268A      1.685403   269A      1.700406   270A      1.701406  
     271A      1.707961   272A      1.721642   273A      1.729656  
     274A      1.738398   275A      1.749933   276A      1.758242  
     277A      1.773673   278A      1.779983   279A      1.791071  
     280A      1.798706   281A      1.806946   282A      1.813297  
     283A      1.829976   284A      1.841584   285A      1.843974  
     286A      1.855379   287A      1.864501   288A      1.871943  
     289A      1.887291   290A      1.892121   291A      1.915717  
     292A      1.926858   293A      1.939614   294A      1.941507  
     295A      1.965278   296A      1.975711   297A      1.988608  
     298A      1.998808   299A      2.010033   300A      2.019722  
     301A      2.029428   302A      2.037371   303A      2.045422  
     304A      2.057126   305A      2.064261   306A      2.071049  
     307A      2.079331   308A      2.084330   309A      2.103502  
     310A      2.119362   311A      2.127958   312A      2.151077  
     313A      2.156826   314A      2.181358   315A      2.184958  
     316A      2.202851   317A      2.224224   318A      2.235234  
     319A      2.259075   320A      2.283902   321A      2.289728  
     322A      2.296140   323A      2.315602   324A      2.340318  
     325A      2.349203   326A      2.362824   327A      2.376294  
     328A      2.398713   329A      2.412225   330A      2.424341  
     331A      2.432249   332A      2.440118   333A      2.450253  
     334A      2.473700   335A      2.489153   336A      2.499278  
     337A      2.513155   338A      2.540595   339A      2.557537  
     340A      2.571307   341A      2.582161   342A      2.598545  
     343A      2.601593   344A      2.614609   345A      2.627483  
     346A      2.632703   347A      2.649404   348A      2.651323  
     349A      2.676137   350A      2.688391   351A      2.707029  
     352A      2.716822   353A      2.738668   354A      2.755531  
     355A      2.760430   356A      2.778996   357A      2.788526  
     358A      2.826732   359A      2.844686   360A      2.851284  
     361A      2.869600   362A      2.879225   363A      2.901532  
     364A      2.927080   365A      2.934832   366A      2.943451  
     367A      2.971774   368A      2.993783   369A      3.008493  
     370A      3.045325   371A      3.059585   372A      3.066456  
     373A      3.070145   374A      3.099401   375A      3.123217  
     376A      3.137606   377A      3.159840   378A      3.198186  
     379A      3.208151   380A      3.210357   381A      3.256653  
     382A      3.267550   383A      3.280943   384A      3.284671  
     385A      3.321964   386A      3.344288   387A      3.353399  
     388A      3.364620   389A      3.373777   390A      3.379387  
     391A      3.387191   392A      3.407385   393A      3.425708  
     394A      3.440035   395A      3.444950   396A      3.463063  
     397A      3.477105   398A      3.490972   399A      3.510536  
     400A      3.527517   401A      3.537139   402A      3.553232  
     403A      3.559698   404A      3.568488   405A      3.598770  
     406A      3.612017   407A      3.615798   408A      3.635246  
     409A      3.640591   410A      3.657710   411A      3.662728  
     412A      3.680487   413A      3.689525   414A      3.709163  
     415A      3.719318   416A      3.733499   417A      3.752435  
     418A      3.780887   419A      3.796195   420A      3.811815  
     421A      3.818884   422A      3.842476   423A      3.850458  
     424A      3.862454   425A      3.876323   426A      3.885594  
     427A      3.895696   428A      3.906050   429A      3.916394  
     430A      3.927273   431A      3.959784   432A      3.967003  
     433A      3.973518   434A      3.987056   435A      4.000611  
     436A      4.016864   437A      4.025753   438A      4.033944  
     439A      4.055090   440A      4.090050   441A      4.094450  
     442A      4.106387   443A      4.113222   444A      4.133775  
     445A      4.140600   446A      4.168210   447A      4.188513  
     448A      4.202232   449A      4.213890   450A      4.246535  
     451A      4.256089   452A      4.263393   453A      4.269405  
     454A      4.279961   455A      4.297279   456A      4.311851  
     457A      4.331332   458A      4.336173   459A      4.345127  
     460A      4.354889   461A      4.365845   462A      4.369132  
     463A      4.377474   464A      4.392784   465A      4.405547  
     466A      4.415158   467A      4.430663   468A      4.436604  
     469A      4.456502   470A      4.491738   471A      4.498655  
     472A      4.509515   473A      4.524610   474A      4.530514  
     475A      4.534445   476A      4.545915   477A      4.569282  
     478A      4.601121   479A      4.632116   480A      4.653315  
     481A      4.676600   482A      4.694700   483A      4.699264  
     484A      4.725049   485A      4.728752   486A      4.772731  
     487A      4.785475   488A      4.802052   489A      4.812635  
     490A      4.840080   491A      4.854116   492A      4.869418  
     493A      4.888471   494A      4.900094   495A      4.935902  
     496A      4.948948   497A      4.957061   498A      4.968819  
     499A      4.991149   500A      5.025749   501A      5.038452  
     502A      5.055553   503A      5.084785   504A      5.103593  
     505A      5.118609   506A      5.126432   507A      5.147060  
     508A      5.159974   509A      5.176378   510A      5.214739  
     511A      5.233117   512A      5.238173   513A      5.251592  
     514A      5.281107   515A      5.296442   516A      5.356504  
     517A      5.377027   518A      5.387930   519A      5.404154  
     520A      5.414972   521A      5.423651   522A      5.443535  
     523A      5.471844   524A      5.490662   525A      5.532026  
     526A      5.566377   527A      5.601319   528A      5.657855  
     529A      5.673247   530A      5.728380   531A      5.757696  
     532A      5.814721   533A      5.878776   534A      5.945760  
     535A      6.072262   536A      6.122392   537A      6.138245  
     538A      6.191942   539A      6.220379   540A      6.263665  
     541A      6.301852   542A      6.322942   543A      6.418351  
     544A      6.452314   545A      6.492555   546A      6.596038  
     547A      6.649122   548A      6.664625   549A      6.734458  
     550A      6.757405   551A      6.792345   552A      6.862770  
     553A      6.889395   554A      6.903712   555A      6.912850  
     556A      6.916658   557A      6.996909   558A      7.007898  
     559A      7.023533   560A      7.057443   561A      7.064874  
     562A      7.180814   563A      7.229226   564A      7.257738  
     565A      7.268678   566A      7.278965   567A      7.366178  
     568A      7.387453   569A      7.403437   570A      7.431825  
     571A      7.451496   572A      7.484476   573A      7.586832  
     574A      7.623694   575A      7.634307   576A      7.647806  
     577A      7.681332   578A      7.747058   579A      7.755896  
     580A      7.791608   581A      7.889964   582A      7.975987  
     583A      8.006401   584A      8.106070   585A      8.283832  
     586A      8.405927   587A      8.554321   588A      8.667156  
     589A     15.255677   590A     15.606695   591A     15.809493  
     592A     16.382818   593A     17.084098   594A     18.475393  
     595A     18.870784   596A     19.522446   597A     19.988696  
     598A     20.475168  

    Final Occupation by Irrep:
              A 
    DOCC [    36 ]

  @DF-RHF Final Energy:  -493.34996017142925

   => Energetics <=

    Nuclear Repulsion Energy =            498.5420442385610613
    One-Electron Energy =               -1662.8995241438312860
    Two-Electron Energy =                 671.0075197338410362
    Total Energy =                       -493.3499601714293021

Computation Completed

*** tstop() called on node37.bme.utexas.edu at Fri Nov  6 10:26:06 2020
Module time:
	user time   =     330.36 seconds =       5.51 minutes
	system time =      74.06 seconds =       1.23 minutes
	total time  =         95 seconds =       1.58 minutes
Total time:
	user time   =     330.36 seconds =       5.51 minutes
	system time =      74.06 seconds =       1.23 minutes
	total time  =         95 seconds =       1.58 minutes
   => Loading Basis Set <=

    Name: (AUG-CC-PVTZ AUX)
    Role: RIFIT
    Keyword: DF_BASIS_MP2
    atoms 1-3   entry O          line   264 file /home/xy3866/psi4conda/share/psi4/basis/aug-cc-pvtz-ri.gbs 
    atoms 4-10  entry C          line   148 file /home/xy3866/psi4conda/share/psi4/basis/aug-cc-pvtz-ri.gbs 
    atoms 11-16 entry H          line    30 file /home/xy3866/psi4conda/share/psi4/basis/aug-cc-pvtz-ri.gbs 


*** tstart() called on node37.bme.utexas.edu
*** at Fri Nov  6 10:26:06 2020


  //>>>>>>>>>>>>>>>>>>>>>>>>>>>>>>>>>>>//
  //               DFMP2               //
  //<<<<<<<<<<<<<<<<<<<<<<<<<<<<<<<<<<<//

	 --------------------------------------------------------
	                          DF-MP2                         
	      2nd-Order Density-Fitted Moller-Plesset Theory     
	              RMP2 Wavefunction,   8 Threads             
	                                                         
	        Rob Parrish, Justin Turney, Andy Simmonett,      
	           Ed Hohenstein, and C. David Sherrill          
	 --------------------------------------------------------

   => Auxiliary Basis Set <=

  Basis Set: (AUG-CC-PVTZ AUX)
    Blend: AUG-CC-PVTZ-RI
    Number of shells: 364
    Number of basis function: 1336
    Number of Cartesian functions: 1690
    Spherical Harmonics?: true
    Max angular momentum: 4

	 --------------------------------------------------------
	                 NBF =   598, NAUX =  1336
	 --------------------------------------------------------
	   CLASS    FOCC     OCC    AOCC    AVIR     VIR    FVIR
	   PAIRS       0      36      36     562     562       0
	 --------------------------------------------------------

  DFHelper Memory: AOs need 3.431 GiB; user supplied 22.352 GiB. Using in-core AOs.


         ------------------------------------------------------------
                                     CPHF                           
                                  Rob Parrish                       
         ------------------------------------------------------------

  ==> Geometry <==

    Molecular point group: c1
    Full point group: C1

    Geometry (in Angstrom), charge = 0, multiplicity = 1:

       Center              X                  Y                   Z               Mass       
    ------------   -----------------  -----------------  -----------------  -----------------
         O           -0.058269727639     2.155276749746    -0.159553973937    15.994914619570
         O           -2.214057727639    -1.346357250254    -0.370215973937    15.994914619570
         O           -2.346388727639     0.770873749746     0.420233026063    15.994914619570
         C           -0.178401727639    -0.223382250254     0.013616026063    12.000000000000
         C            0.587789272361     0.955549749746    -0.059240973937    12.000000000000
         C            0.434428072361    -1.482376250254     0.093281826063    12.000000000000
         C            1.984816272361     0.870718749746    -0.058131973937    12.000000000000
         C            1.867843272361    -1.537427250254     0.099433026063    12.000000000000
         C            2.621569272361    -0.364869250254     0.027925026063    12.000000000000
         C           -1.662166727639    -0.168215250254     0.053207026063    12.000000000000
         H           -0.121588727639    -2.363382250254     0.141714026063     1.007825032230
         H            2.574700272361     1.784536749746    -0.120479973937     1.007825032230
         H            2.359405272361    -2.503799250254     0.166528026063     1.007825032230
         H            3.708049272361    -0.407328250254     0.032164026063     1.007825032230
         H            0.617875272361     2.852399749746    -0.240366973937     1.007825032230
         H           -3.179630727639    -1.216555250254    -0.266360973937     1.007825032230

  Nuclear repulsion =  498.542044238561061
  Reference energy  = -493.349960171429245

  ==> Basis Set <==

  Basis Set: AUG-CC-PVTZ
    Blend: AUG-CC-PVTZ
    Number of shells: 194
    Number of basis function: 598
    Number of Cartesian functions: 700
    Spherical Harmonics?: true
    Max angular momentum: 3

  ==> CGRSolver (by Rob Parrish) <==

   Number of roots    =         1
   Preconditioning    =    JACOBI
   Convergence cutoff =     1E-06
   Maximum iterations =       100

  ==> CPHFRHamiltonian (by Rob Parrish) <== 

  ==> MemDFJK: Density-Fitted J/K Matrices <==

    J tasked:                   Yes
    K tasked:                   Yes
    wK tasked:                   No
    OpenMP threads:               8
    Memory [MiB]:             22888
    Algorithm:                 Disk
    Schwarz Cutoff:           1E-12
    Mask sparsity (%):       5.1688
    Fitting Condition:        1E-10

   => Auxiliary Basis Set <=

  Basis Set: (AUG-CC-PVTZ AUX)
    Blend: AUG-CC-PVTZ-JKFIT
    Number of shells: 384
    Number of basis function: 1316
    Number of Cartesian functions: 1640
    Spherical Harmonics?: true
    Max angular momentum: 4

  ==> CPHF Iterations <==

  => Iterations <=

             Iter  Converged  Remaining    Residual
  CGR           1          0          1   1.178E-01
  CGR           2          0          1   4.211E-02
  CGR           3          0          1   2.382E-02
  CGR           4          0          1   1.065E-02
  CGR           5          0          1   4.938E-03
  CGR           6          0          1   1.725E-03
  CGR           7          0          1   4.907E-04
  CGR           8          0          1   1.676E-04
  CGR           9          0          1   5.661E-05
  CGR          10          0          1   2.433E-05
  CGR          11          0          1   1.109E-05
  CGR          12          0          1   4.572E-06
  CGR          13          0          1   1.895E-06
  CGR          14          1          0   6.101E-07

    CGRSolver converged.

	-----------------------------------------------------------
	 ==================> DF-MP2 Energies <==================== 
	-----------------------------------------------------------
	 Reference Energy          =    -493.3499601714292453 [Eh]
	 Singles Energy            =      -0.0000000000000000 [Eh]
	 Same-Spin Energy          =      -0.5053938728030334 [Eh]
	 Opposite-Spin Energy      =      -1.5048420692346764 [Eh]
	 Correlation Energy        =      -2.0102359420377098 [Eh]
	 Total Energy              =    -495.3601961134669409 [Eh]
	-----------------------------------------------------------
	 ================> DF-SCS-MP2 Energies <================== 
	-----------------------------------------------------------
	 SCS Same-Spin Scale       =       0.3333333333333333 [-]
	 SCS Opposite-Spin Scale   =       1.2000000000000000 [-]
	 SCS Same-Spin Energy      =      -0.1684646242676778 [Eh]
	 SCS Opposite-Spin Energy  =      -1.8058104830816117 [Eh]
	 SCS Correlation Energy    =      -1.9742751073492895 [Eh]
	 SCS Total Energy          =    -495.3242352787785308 [Eh]
	-----------------------------------------------------------



Properties will be evaluated at   0.000000,   0.000000,  -0.000000 [a0]

Properties computed using the MP2 density matrix

  Nuclear Dipole Moment: [e a0]
     X:     5.5640      Y:    -1.7306      Z:    -0.2694

  Electronic Dipole Moment: [e a0]
     X:    -4.5232      Y:     1.5406      Z:     0.0866

  Dipole Moment: [e a0]
     X:     1.0408      Y:    -0.1900      Z:    -0.1828     Total:     1.0737

  Dipole Moment: [D]
     X:     2.6454      Y:    -0.4829      Z:    -0.4647     Total:     2.7290


*** tstop() called on node37.bme.utexas.edu at Fri Nov  6 10:29:23 2020
Module time:
	user time   =     899.43 seconds =      14.99 minutes
	system time =     168.98 seconds =       2.82 minutes
	total time  =        197 seconds =       3.28 minutes
Total time:
	user time   =    1231.02 seconds =      20.52 minutes
	system time =     243.10 seconds =       4.05 minutes
	total time  =        292 seconds =       4.87 minutes

    Psi4 stopped on: Friday, 06 November 2020 10:29AM
    Psi4 wall time for execution: 0:04:51.92

*** Psi4 exiting successfully. Buy a developer a beer!
