
    -----------------------------------------------------------------------
          Psi4: An Open-Source Ab Initio Electronic Structure Package
                               Psi4 1.3.2 release

                         Git: Rev {HEAD} ecbda83 


    R. M. Parrish, L. A. Burns, D. G. A. Smith, A. C. Simmonett,
    A. E. DePrince III, E. G. Hohenstein, U. Bozkaya, A. Yu. Sokolov,
    R. Di Remigio, R. M. Richard, J. F. Gonthier, A. M. James,
    H. R. McAlexander, A. Kumar, M. Saitow, X. Wang, B. P. Pritchard,
    P. Verma, H. F. Schaefer III, K. Patkowski, R. A. King, E. F. Valeev,
    F. A. Evangelista, J. M. Turney, T. D. Crawford, and C. D. Sherrill,
    J. Chem. Theory Comput. 13(7) pp 3185--3197 (2017).
    (doi: 10.1021/acs.jctc.7b00174)


                         Additional Contributions by
    P. Kraus, H. Kruse, M. H. Lechner, M. C. Schieber, R. A. Shaw,
    A. Alenaizan, R. Galvelis, Z. L. Glick, S. Lehtola, and J. P. Misiewicz

    -----------------------------------------------------------------------


    Psi4 started on: Friday, 06 November 2020 02:35PM

    Process ID: 45398
    Host:       node37.bme.utexas.edu
    PSIDATADIR: /home/xy3866/psi4conda/share/psi4
    Memory:     500.0 MiB
    Threads:    8
    
  ==> Input File <==

--------------------------------------------------------------------------
#psi4
#
memory 32 gb

molecule  {
0 1
  O       -0.1027990     2.1661630    -0.1573240
  O       -2.2585870    -1.3354710    -0.3679860
  O       -2.3909180     0.7817600     0.4224630
  C       -0.2229310    -0.2124960     0.0158460
  C        0.6655272     1.0399973    -0.0666292
  C        0.4335280    -1.4494910     0.0925130
  C        1.9402870     0.8816050    -0.0559020
  C        1.8233140    -1.5265410     0.1016630
  C        2.5770400    -0.3539830     0.0301550
  C       -1.7066960    -0.1573290     0.0554370
  H       -0.1661180    -2.3524960     0.1439440
  H        2.5301710     1.7954230    -0.1182500
  H        2.3148760    -2.4929130     0.1687580
  H        3.6635200    -0.3964420     0.0343940
  H        0.5733460     2.8632860    -0.2381370
  H       -3.2241600    -1.2056690    -0.2641310
units angstrom
no_reorient  #important for SAPT in psi4, default
symmetry c1  #important for SAPT in psi4, default
}

set PROPERTIES_ORIGIN ["COM"]
properties('MP2/aug-cc-pvtz', properties = ['dipole'])
--------------------------------------------------------------------------

  Memory set to  29.802 GiB by Python driver.
    SCF Algorithm Type (re)set to DF.

*** tstart() called on node37.bme.utexas.edu
*** at Fri Nov  6 14:35:54 2020

   => Loading Basis Set <=

    Name: AUG-CC-PVTZ
    Role: ORBITAL
    Keyword: BASIS
    atoms 1-3   entry O          line   327 file /home/xy3866/psi4conda/share/psi4/basis/aug-cc-pvtz.gbs 
    atoms 4-10  entry C          line   235 file /home/xy3866/psi4conda/share/psi4/basis/aug-cc-pvtz.gbs 
    atoms 11-16 entry H          line    36 file /home/xy3866/psi4conda/share/psi4/basis/aug-cc-pvtz.gbs 


         ---------------------------------------------------------
                                   SCF
               by Justin Turney, Rob Parrish, Andy Simmonett
                          and Daniel G. A. Smith
                              RHF Reference
                        8 Threads,  30517 MiB Core
         ---------------------------------------------------------

  ==> Geometry <==

    Molecular point group: c1
    Full point group: C1

    Geometry (in Angstrom), charge = 0, multiplicity = 1:

       Center              X                  Y                   Z               Mass       
    ------------   -----------------  -----------------  -----------------  -----------------
         O           -0.072692189188     2.146969066443    -0.158457095419    15.994914619570
         O           -2.228480189188    -1.354664933557    -0.369119095419    15.994914619570
         O           -2.360811189188     0.762566066443     0.421329904581    15.994914619570
         C           -0.192824189188    -0.231689933557     0.014712904581    12.000000000000
         C            0.695634010812     1.020803366443    -0.067762295419    12.000000000000
         C            0.463634810812    -1.468684933557     0.091379904581    12.000000000000
         C            1.970393810812     0.862411066443    -0.057035095419    12.000000000000
         C            1.853420810812    -1.545734933557     0.100529904581    12.000000000000
         C            2.607146810812    -0.373176933557     0.029021904581    12.000000000000
         C           -1.676589189188    -0.176522933557     0.054303904581    12.000000000000
         H           -0.136011189188    -2.371689933557     0.142810904581     1.007825032230
         H            2.560277810812     1.776229066443    -0.119383095419     1.007825032230
         H            2.344982810812    -2.512106933557     0.167624904581     1.007825032230
         H            3.693626810812    -0.415635933557     0.033260904581     1.007825032230
         H            0.603452810812     2.844092066443    -0.239270095419     1.007825032230
         H           -3.194053189188    -1.224862933557    -0.265264095419     1.007825032230

  Running in c1 symmetry.

  Rotational constants: A =      0.07591  B =      0.03984  C =      0.02662 [cm^-1]
  Rotational constants: A =   2275.75032  B =   1194.33119  C =    798.02929 [MHz]
  Nuclear repulsion =  498.075461092797298

  Charge       = 0
  Multiplicity = 1
  Electrons    = 72
  Nalpha       = 36
  Nbeta        = 36

  ==> Algorithm <==

  SCF Algorithm Type is DF.
  DIIS enabled.
  MOM disabled.
  Fractional occupation disabled.
  Guess Type is SAD.
  Energy threshold   = 1.00e-10
  Density threshold  = 1.00e-10
  Integral threshold = 0.00e+00

  ==> Primary Basis <==

  Basis Set: AUG-CC-PVTZ
    Blend: AUG-CC-PVTZ
    Number of shells: 194
    Number of basis function: 598
    Number of Cartesian functions: 700
    Spherical Harmonics?: true
    Max angular momentum: 3

   => Loading Basis Set <=

    Name: (AUG-CC-PVTZ AUX)
    Role: JKFIT
    Keyword: DF_BASIS_SCF
    atoms 1-3   entry O          line   286 file /home/xy3866/psi4conda/share/psi4/basis/aug-cc-pvtz-jkfit.gbs 
    atoms 4-10  entry C          line   162 file /home/xy3866/psi4conda/share/psi4/basis/aug-cc-pvtz-jkfit.gbs 
    atoms 11-16 entry H          line    70 file /home/xy3866/psi4conda/share/psi4/basis/aug-cc-pvtz-jkfit.gbs 

  ==> Pre-Iterations <==

   -------------------------------------------------------
    Irrep   Nso     Nmo     Nalpha   Nbeta   Ndocc  Nsocc
   -------------------------------------------------------
     A        598     598       0       0       0       0
   -------------------------------------------------------
    Total     598     598      36      36      36       0
   -------------------------------------------------------

  ==> Integral Setup <==

  DFHelper Memory: AOs need 3.431 GiB; user supplied 22.352 GiB. Using in-core AOs.

  ==> MemDFJK: Density-Fitted J/K Matrices <==

    J tasked:                   Yes
    K tasked:                   Yes
    wK tasked:                   No
    OpenMP threads:               8
    Memory [MiB]:             22888
    Algorithm:                 Disk
    Schwarz Cutoff:           1E-12
    Mask sparsity (%):       5.1789
    Fitting Condition:        1E-10

   => Auxiliary Basis Set <=

  Basis Set: (AUG-CC-PVTZ AUX)
    Blend: AUG-CC-PVTZ-JKFIT
    Number of shells: 384
    Number of basis function: 1316
    Number of Cartesian functions: 1640
    Spherical Harmonics?: true
    Max angular momentum: 4

  Minimum eigenvalue in the overlap matrix is 6.6934131951E-07.
  Using Symmetric Orthogonalization.

  SCF Guess: Superposition of Atomic Densities via on-the-fly atomic UHF.

  ==> Iterations <==

                           Total Energy        Delta E     RMS |[F,P]|

   @DF-RHF iter SAD:  -492.38200858701384   -4.92382e+02   0.00000e+00 
   @DF-RHF iter   1:  -493.02983514230624   -6.47827e-01   1.30930e-03 DIIS
   @DF-RHF iter   2:  -493.25105099058783   -2.21216e-01   7.49970e-04 DIIS
   @DF-RHF iter   3:  -493.32222368303502   -7.11727e-02   1.34764e-04 DIIS
   @DF-RHF iter   4:  -493.32590880492734   -3.68512e-03   6.73624e-05 DIIS
   @DF-RHF iter   5:  -493.32676311134151   -8.54306e-04   1.37243e-05 DIIS
   @DF-RHF iter   6:  -493.32684729357373   -8.41822e-05   6.74850e-06 DIIS
   @DF-RHF iter   7:  -493.32686956145733   -2.22679e-05   2.82794e-06 DIIS
   @DF-RHF iter   8:  -493.32687479298988   -5.23153e-06   1.09733e-06 DIIS
   @DF-RHF iter   9:  -493.32687559017006   -7.97180e-07   4.02765e-07 DIIS
   @DF-RHF iter  10:  -493.32687571860066   -1.28431e-07   1.64017e-07 DIIS
   @DF-RHF iter  11:  -493.32687573853093   -1.99303e-08   6.18153e-08 DIIS
   @DF-RHF iter  12:  -493.32687574141568   -2.88475e-09   2.54323e-08 DIIS
   @DF-RHF iter  13:  -493.32687574189873   -4.83055e-10   9.92126e-09 DIIS
   @DF-RHF iter  14:  -493.32687574197581   -7.70797e-11   4.74455e-09 DIIS
   @DF-RHF iter  15:  -493.32687574199315   -1.73372e-11   1.73508e-09 DIIS
   @DF-RHF iter  16:  -493.32687574199286    2.84217e-13   8.01492e-10 DIIS
   @DF-RHF iter  17:  -493.32687574199258    2.84217e-13   3.18075e-10 DIIS
   @DF-RHF iter  18:  -493.32687574199218    3.97904e-13   1.14397e-10 DIIS
   @DF-RHF iter  19:  -493.32687574199332   -1.13687e-12   5.49329e-11 DIIS
  Energy and wave function converged.


  ==> Post-Iterations <==

    Orbital Energies [Eh]
    ---------------------

    Doubly Occupied:                                                      

       1A    -20.608222     2A    -20.606407     3A    -20.540759  
       4A    -11.388306     5A    -11.325908     6A    -11.268550  
       7A    -11.264872     8A    -11.262760     9A    -11.244437  
      10A    -11.236425    11A     -1.451665    12A     -1.419494  
      13A     -1.346522    14A     -1.168683    15A     -1.058309  
      16A     -1.026179    17A     -0.903927    18A     -0.846389  
      19A     -0.806538    20A     -0.740087    21A     -0.710724  
      22A     -0.697052    23A     -0.679369    24A     -0.633992  
      25A     -0.625436    26A     -0.621314    27A     -0.599855  
      28A     -0.590202    29A     -0.580186    30A     -0.548658  
      31A     -0.504292    32A     -0.498845    33A     -0.474993  
      34A     -0.446091    35A     -0.369473    36A     -0.329315  

    Virtual:                                                              

      37A      0.022961    38A      0.029902    39A      0.034293  
      40A      0.043481    41A      0.053844    42A      0.061974  
      43A      0.064353    44A      0.073729    45A      0.089717  
      46A      0.093474    47A      0.098583    48A      0.102370  
      49A      0.107360    50A      0.114019    51A      0.116914  
      52A      0.120838    53A      0.122925    54A      0.124172  
      55A      0.129738    56A      0.132793    57A      0.135174  
      58A      0.150378    59A      0.150772    60A      0.153952  
      61A      0.157151    62A      0.160029    63A      0.171166  
      64A      0.174056    65A      0.183635    66A      0.197839  
      67A      0.206099    68A      0.211835    69A      0.220731  
      70A      0.225317    71A      0.227803    72A      0.236463  
      73A      0.238184    74A      0.246544    75A      0.248589  
      76A      0.251946    77A      0.258389    78A      0.267138  
      79A      0.273355    80A      0.278140    81A      0.279529  
      82A      0.287927    83A      0.290886    84A      0.295311  
      85A      0.308943    86A      0.313267    87A      0.316344  
      88A      0.320173    89A      0.327590    90A      0.333412  
      91A      0.334004    92A      0.339760    93A      0.343563  
      94A      0.355620    95A      0.359232    96A      0.369314  
      97A      0.381320    98A      0.385008    99A      0.390174  
     100A      0.404069   101A      0.406986   102A      0.410039  
     103A      0.419895   104A      0.423292   105A      0.429078  
     106A      0.432043   107A      0.434946   108A      0.442824  
     109A      0.446280   110A      0.447902   111A      0.457639  
     112A      0.460696   113A      0.464299   114A      0.465471  
     115A      0.469533   116A      0.478141   117A      0.481584  
     118A      0.486892   119A      0.497980   120A      0.501516  
     121A      0.510930   122A      0.515644   123A      0.517439  
     124A      0.518257   125A      0.524904   126A      0.529400  
     127A      0.533395   128A      0.539908   129A      0.542411  
     130A      0.544479   131A      0.557713   132A      0.583482  
     133A      0.594986   134A      0.602656   135A      0.608905  
     136A      0.616824   137A      0.618339   138A      0.636213  
     139A      0.638396   140A      0.644969   141A      0.648085  
     142A      0.669883   143A      0.673814   144A      0.678272  
     145A      0.686782   146A      0.700670   147A      0.705290  
     148A      0.717594   149A      0.724973   150A      0.729094  
     151A      0.739825   152A      0.740310   153A      0.744745  
     154A      0.749078   155A      0.760926   156A      0.768364  
     157A      0.776492   158A      0.788311   159A      0.802568  
     160A      0.809103   161A      0.814247   162A      0.822505  
     163A      0.828589   164A      0.837965   165A      0.840576  
     166A      0.845658   167A      0.862506   168A      0.865146  
     169A      0.867952   170A      0.869315   171A      0.877277  
     172A      0.885229   173A      0.893495   174A      0.894837  
     175A      0.898679   176A      0.911568   177A      0.914894  
     178A      0.916610   179A      0.925628   180A      0.932159  
     181A      0.938434   182A      0.944802   183A      0.951088  
     184A      0.955851   185A      0.961755   186A      0.974173  
     187A      0.983774   188A      0.989452   189A      0.995460  
     190A      1.003951   191A      1.009673   192A      1.013055  
     193A      1.015903   194A      1.022355   195A      1.027136  
     196A      1.035717   197A      1.038447   198A      1.042902  
     199A      1.050075   200A      1.058772   201A      1.065235  
     202A      1.075793   203A      1.081746   204A      1.084242  
     205A      1.089234   206A      1.097327   207A      1.098669  
     208A      1.105469   209A      1.112209   210A      1.120085  
     211A      1.130781   212A      1.141314   213A      1.149456  
     214A      1.158662   215A      1.166091   216A      1.173840  
     217A      1.175421   218A      1.178936   219A      1.183663  
     220A      1.196407   221A      1.200365   222A      1.205352  
     223A      1.211434   224A      1.224779   225A      1.233489  
     226A      1.242654   227A      1.245146   228A      1.255580  
     229A      1.270496   230A      1.276418   231A      1.287864  
     232A      1.292509   233A      1.301796   234A      1.311259  
     235A      1.331043   236A      1.333700   237A      1.355178  
     238A      1.361274   239A      1.369548   240A      1.372420  
     241A      1.382526   242A      1.392251   243A      1.397988  
     244A      1.399698   245A      1.417849   246A      1.425643  
     247A      1.434161   248A      1.452505   249A      1.474250  
     250A      1.476428   251A      1.483957   252A      1.503865  
     253A      1.511600   254A      1.527857   255A      1.532309  
     256A      1.540896   257A      1.554708   258A      1.557875  
     259A      1.563472   260A      1.577788   261A      1.598108  
     262A      1.614433   263A      1.625939   264A      1.645134  
     265A      1.658419   266A      1.665566   267A      1.677274  
     268A      1.685037   269A      1.693439   270A      1.705598  
     271A      1.713256   272A      1.724566   273A      1.731003  
     274A      1.742855   275A      1.751370   276A      1.764359  
     277A      1.773581   278A      1.794725   279A      1.802127  
     280A      1.803565   281A      1.809732   282A      1.812761  
     283A      1.829519   284A      1.843725   285A      1.851127  
     286A      1.853994   287A      1.866799   288A      1.874788  
     289A      1.886826   290A      1.894504   291A      1.912679  
     292A      1.929215   293A      1.943468   294A      1.956509  
     295A      1.972434   296A      1.979010   297A      1.991552  
     298A      2.002665   299A      2.011047   300A      2.021291  
     301A      2.030927   302A      2.036787   303A      2.044226  
     304A      2.057570   305A      2.073493   306A      2.079285  
     307A      2.082860   308A      2.106928   309A      2.113470  
     310A      2.127402   311A      2.136063   312A      2.147050  
     313A      2.159010   314A      2.167080   315A      2.182856  
     316A      2.198028   317A      2.222176   318A      2.237985  
     319A      2.266746   320A      2.269006   321A      2.284830  
     322A      2.296484   323A      2.318803   324A      2.335894  
     325A      2.352465   326A      2.367252   327A      2.383254  
     328A      2.399173   329A      2.412556   330A      2.422525  
     331A      2.432047   332A      2.441944   333A      2.451647  
     334A      2.458588   335A      2.482009   336A      2.500097  
     337A      2.511404   338A      2.532492   339A      2.534981  
     340A      2.555815   341A      2.583379   342A      2.596049  
     343A      2.599987   344A      2.623230   345A      2.625061  
     346A      2.634693   347A      2.648128   348A      2.662272  
     349A      2.674360   350A      2.693091   351A      2.706140  
     352A      2.718766   353A      2.734521   354A      2.760248  
     355A      2.772681   356A      2.788866   357A      2.799212  
     358A      2.821801   359A      2.837393   360A      2.851736  
     361A      2.869852   362A      2.885292   363A      2.910134  
     364A      2.923482   365A      2.930078   366A      2.952749  
     367A      2.982829   368A      2.996469   369A      3.024424  
     370A      3.049766   371A      3.059370   372A      3.070027  
     373A      3.091700   374A      3.095953   375A      3.125631  
     376A      3.134069   377A      3.158775   378A      3.198202  
     379A      3.212710   380A      3.233374   381A      3.258267  
     382A      3.282681   383A      3.294565   384A      3.311603  
     385A      3.322611   386A      3.340453   387A      3.350188  
     388A      3.367008   389A      3.368782   390A      3.381426  
     391A      3.387789   392A      3.407429   393A      3.434764  
     394A      3.443169   395A      3.456430   396A      3.468727  
     397A      3.479022   398A      3.489872   399A      3.514544  
     400A      3.524317   401A      3.535884   402A      3.545734  
     403A      3.563534   404A      3.576701   405A      3.594325  
     406A      3.611774   407A      3.619178   408A      3.624485  
     409A      3.630175   410A      3.648416   411A      3.663444  
     412A      3.680693   413A      3.698163   414A      3.708908  
     415A      3.743757   416A      3.749834   417A      3.768019  
     418A      3.785226   419A      3.800877   420A      3.822896  
     421A      3.831735   422A      3.832889   423A      3.843907  
     424A      3.858321   425A      3.867872   426A      3.897199  
     427A      3.898748   428A      3.913217   429A      3.921298  
     430A      3.934334   431A      3.952780   432A      3.966973  
     433A      3.972678   434A      3.982975   435A      3.995681  
     436A      4.010311   437A      4.031154   438A      4.044819  
     439A      4.056346   440A      4.088663   441A      4.093013  
     442A      4.103943   443A      4.119077   444A      4.129471  
     445A      4.142641   446A      4.146031   447A      4.176880  
     448A      4.201741   449A      4.219756   450A      4.227867  
     451A      4.249734   452A      4.256275   453A      4.266550  
     454A      4.272452   455A      4.289825   456A      4.299688  
     457A      4.315176   458A      4.330489   459A      4.341603  
     460A      4.352779   461A      4.359715   462A      4.370727  
     463A      4.372420   464A      4.405683   465A      4.410886  
     466A      4.419948   467A      4.431094   468A      4.441112  
     469A      4.459242   470A      4.466434   471A      4.488885  
     472A      4.514956   473A      4.530321   474A      4.542440  
     475A      4.548274   476A      4.550858   477A      4.576235  
     478A      4.593006   479A      4.627872   480A      4.651669  
     481A      4.678396   482A      4.703481   483A      4.712983  
     484A      4.747723   485A      4.752978   486A      4.754195  
     487A      4.769675   488A      4.799585   489A      4.810496  
     490A      4.818919   491A      4.870145   492A      4.882149  
     493A      4.914760   494A      4.929843   495A      4.945148  
     496A      4.949441   497A      4.978147   498A      4.991640  
     499A      5.010259   500A      5.035313   501A      5.049526  
     502A      5.062069   503A      5.105550   504A      5.110877  
     505A      5.123333   506A      5.149027   507A      5.161545  
     508A      5.191671   509A      5.194941   510A      5.207121  
     511A      5.215756   512A      5.237273   513A      5.278146  
     514A      5.298643   515A      5.340777   516A      5.348789  
     517A      5.364214   518A      5.377077   519A      5.397978  
     520A      5.409048   521A      5.419771   522A      5.430758  
     523A      5.475376   524A      5.501471   525A      5.542676  
     526A      5.578936   527A      5.598472   528A      5.658781  
     529A      5.682016   530A      5.718239   531A      5.749383  
     532A      5.790101   533A      5.863318   534A      5.937540  
     535A      6.045613   536A      6.076061   537A      6.122120  
     538A      6.154951   539A      6.172037   540A      6.214436  
     541A      6.294085   542A      6.312767   543A      6.438552  
     544A      6.470141   545A      6.540062   546A      6.593280  
     547A      6.636686   548A      6.659406   549A      6.724957  
     550A      6.774564   551A      6.799436   552A      6.845271  
     553A      6.888932   554A      6.902750   555A      6.917368  
     556A      6.921429   557A      6.979062   558A      7.009148  
     559A      7.045663   560A      7.048899   561A      7.067938  
     562A      7.219865   563A      7.233694   564A      7.256230  
     565A      7.264926   566A      7.275815   567A      7.370384  
     568A      7.385783   569A      7.402209   570A      7.425250  
     571A      7.453405   572A      7.511547   573A      7.580650  
     574A      7.602387   575A      7.627484   576A      7.638911  
     577A      7.671504   578A      7.752153   579A      7.755083  
     580A      7.847425   581A      7.901266   582A      7.975830  
     583A      8.030845   584A      8.102140   585A      8.272755  
     586A      8.397096   587A      8.550207   588A      8.667112  
     589A     15.178012   590A     15.481181   591A     16.291335  
     592A     16.830190   593A     17.204479   594A     18.563591  
     595A     18.879225   596A     19.820613   597A     20.262632  
     598A     20.533382  

    Final Occupation by Irrep:
              A 
    DOCC [    36 ]

  @DF-RHF Final Energy:  -493.32687574199332

   => Energetics <=

    Nuclear Repulsion Energy =            498.0754610927972976
    One-Electron Energy =               -1661.9561987550250706
    Two-Electron Energy =                 670.5538619202345672
    Total Energy =                       -493.3268757419932626

Computation Completed

*** tstop() called on node37.bme.utexas.edu at Fri Nov  6 14:37:24 2020
Module time:
	user time   =     303.93 seconds =       5.07 minutes
	system time =      72.46 seconds =       1.21 minutes
	total time  =         90 seconds =       1.50 minutes
Total time:
	user time   =     303.93 seconds =       5.07 minutes
	system time =      72.46 seconds =       1.21 minutes
	total time  =         90 seconds =       1.50 minutes
   => Loading Basis Set <=

    Name: (AUG-CC-PVTZ AUX)
    Role: RIFIT
    Keyword: DF_BASIS_MP2
    atoms 1-3   entry O          line   264 file /home/xy3866/psi4conda/share/psi4/basis/aug-cc-pvtz-ri.gbs 
    atoms 4-10  entry C          line   148 file /home/xy3866/psi4conda/share/psi4/basis/aug-cc-pvtz-ri.gbs 
    atoms 11-16 entry H          line    30 file /home/xy3866/psi4conda/share/psi4/basis/aug-cc-pvtz-ri.gbs 


*** tstart() called on node37.bme.utexas.edu
*** at Fri Nov  6 14:37:24 2020


  //>>>>>>>>>>>>>>>>>>>>>>>>>>>>>>>>>>>//
  //               DFMP2               //
  //<<<<<<<<<<<<<<<<<<<<<<<<<<<<<<<<<<<//

	 --------------------------------------------------------
	                          DF-MP2                         
	      2nd-Order Density-Fitted Moller-Plesset Theory     
	              RMP2 Wavefunction,   8 Threads             
	                                                         
	        Rob Parrish, Justin Turney, Andy Simmonett,      
	           Ed Hohenstein, and C. David Sherrill          
	 --------------------------------------------------------

   => Auxiliary Basis Set <=

  Basis Set: (AUG-CC-PVTZ AUX)
    Blend: AUG-CC-PVTZ-RI
    Number of shells: 364
    Number of basis function: 1336
    Number of Cartesian functions: 1690
    Spherical Harmonics?: true
    Max angular momentum: 4

	 --------------------------------------------------------
	                 NBF =   598, NAUX =  1336
	 --------------------------------------------------------
	   CLASS    FOCC     OCC    AOCC    AVIR     VIR    FVIR
	   PAIRS       0      36      36     562     562       0
	 --------------------------------------------------------

  DFHelper Memory: AOs need 3.431 GiB; user supplied 22.352 GiB. Using in-core AOs.


         ------------------------------------------------------------
                                     CPHF                           
                                  Rob Parrish                       
         ------------------------------------------------------------

  ==> Geometry <==

    Molecular point group: c1
    Full point group: C1

    Geometry (in Angstrom), charge = 0, multiplicity = 1:

       Center              X                  Y                   Z               Mass       
    ------------   -----------------  -----------------  -----------------  -----------------
         O           -0.072692189188     2.146969066443    -0.158457095419    15.994914619570
         O           -2.228480189188    -1.354664933557    -0.369119095419    15.994914619570
         O           -2.360811189188     0.762566066443     0.421329904581    15.994914619570
         C           -0.192824189188    -0.231689933557     0.014712904581    12.000000000000
         C            0.695634010812     1.020803366443    -0.067762295419    12.000000000000
         C            0.463634810812    -1.468684933557     0.091379904581    12.000000000000
         C            1.970393810812     0.862411066443    -0.057035095419    12.000000000000
         C            1.853420810812    -1.545734933557     0.100529904581    12.000000000000
         C            2.607146810812    -0.373176933557     0.029021904581    12.000000000000
         C           -1.676589189188    -0.176522933557     0.054303904581    12.000000000000
         H           -0.136011189188    -2.371689933557     0.142810904581     1.007825032230
         H            2.560277810812     1.776229066443    -0.119383095419     1.007825032230
         H            2.344982810812    -2.512106933557     0.167624904581     1.007825032230
         H            3.693626810812    -0.415635933557     0.033260904581     1.007825032230
         H            0.603452810812     2.844092066443    -0.239270095419     1.007825032230
         H           -3.194053189188    -1.224862933557    -0.265264095419     1.007825032230

  Nuclear repulsion =  498.075461092797298
  Reference energy  = -493.326875741993319

  ==> Basis Set <==

  Basis Set: AUG-CC-PVTZ
    Blend: AUG-CC-PVTZ
    Number of shells: 194
    Number of basis function: 598
    Number of Cartesian functions: 700
    Spherical Harmonics?: true
    Max angular momentum: 3

  ==> CGRSolver (by Rob Parrish) <==

   Number of roots    =         1
   Preconditioning    =    JACOBI
   Convergence cutoff =     1E-06
   Maximum iterations =       100

  ==> CPHFRHamiltonian (by Rob Parrish) <== 

  ==> MemDFJK: Density-Fitted J/K Matrices <==

    J tasked:                   Yes
    K tasked:                   Yes
    wK tasked:                   No
    OpenMP threads:               8
    Memory [MiB]:             22888
    Algorithm:                 Disk
    Schwarz Cutoff:           1E-12
    Mask sparsity (%):       5.1789
    Fitting Condition:        1E-10

   => Auxiliary Basis Set <=

  Basis Set: (AUG-CC-PVTZ AUX)
    Blend: AUG-CC-PVTZ-JKFIT
    Number of shells: 384
    Number of basis function: 1316
    Number of Cartesian functions: 1640
    Spherical Harmonics?: true
    Max angular momentum: 4

  ==> CPHF Iterations <==

  => Iterations <=

             Iter  Converged  Remaining    Residual
  CGR           1          0          1   1.217E-01
  CGR           2          0          1   4.382E-02
  CGR           3          0          1   2.492E-02
  CGR           4          0          1   1.022E-02
  CGR           5          0          1   4.662E-03
  CGR           6          0          1   1.752E-03
  CGR           7          0          1   6.106E-04
  CGR           8          0          1   3.031E-04
  CGR           9          0          1   1.355E-04
  CGR          10          0          1   5.296E-05
  CGR          11          0          1   1.852E-05
  CGR          12          0          1   5.265E-06
  CGR          13          0          1   2.143E-06
  CGR          14          1          0   6.454E-07

    CGRSolver converged.

	-----------------------------------------------------------
	 ==================> DF-MP2 Energies <==================== 
	-----------------------------------------------------------
	 Reference Energy          =    -493.3268757419933195 [Eh]
	 Singles Energy            =      -0.0000000000000000 [Eh]
	 Same-Spin Energy          =      -0.5053087648556392 [Eh]
	 Opposite-Spin Energy      =      -1.5061645232082990 [Eh]
	 Correlation Energy        =      -2.0114732880639381 [Eh]
	 Total Energy              =    -495.3383490300572589 [Eh]
	-----------------------------------------------------------
	 ================> DF-SCS-MP2 Energies <================== 
	-----------------------------------------------------------
	 SCS Same-Spin Scale       =       0.3333333333333333 [-]
	 SCS Opposite-Spin Scale   =       1.2000000000000000 [-]
	 SCS Same-Spin Energy      =      -0.1684362549518797 [Eh]
	 SCS Opposite-Spin Energy  =      -1.8073974278499587 [Eh]
	 SCS Correlation Energy    =      -1.9758336828018384 [Eh]
	 SCS Total Energy          =    -495.3027094247951823 [Eh]
	-----------------------------------------------------------



Properties will be evaluated at  -0.000000,  -0.000000,  -0.000000 [a0]

Properties computed using the MP2 density matrix

  Nuclear Dipole Moment: [e a0]
     X:     5.4827      Y:    -1.7774      Z:    -0.2632

  Electronic Dipole Moment: [e a0]
     X:    -4.4185      Y:     1.5981      Z:     0.0788

  Dipole Moment: [e a0]
     X:     1.0642      Y:    -0.1794      Z:    -0.1844     Total:     1.0948

  Dipole Moment: [D]
     X:     2.7048      Y:    -0.4559      Z:    -0.4687     Total:     2.7827


*** tstop() called on node37.bme.utexas.edu at Fri Nov  6 14:40:21 2020
Module time:
	user time   =     857.03 seconds =      14.28 minutes
	system time =     101.34 seconds =       1.69 minutes
	total time  =        177 seconds =       2.95 minutes
Total time:
	user time   =    1162.11 seconds =      19.37 minutes
	system time =     173.88 seconds =       2.90 minutes
	total time  =        267 seconds =       4.45 minutes

    Psi4 stopped on: Friday, 06 November 2020 02:40PM
    Psi4 wall time for execution: 0:04:27.37

*** Psi4 exiting successfully. Buy a developer a beer!
