
    -----------------------------------------------------------------------
          Psi4: An Open-Source Ab Initio Electronic Structure Package
                               Psi4 1.3.2 release

                         Git: Rev {HEAD} ecbda83 


    R. M. Parrish, L. A. Burns, D. G. A. Smith, A. C. Simmonett,
    A. E. DePrince III, E. G. Hohenstein, U. Bozkaya, A. Yu. Sokolov,
    R. Di Remigio, R. M. Richard, J. F. Gonthier, A. M. James,
    H. R. McAlexander, A. Kumar, M. Saitow, X. Wang, B. P. Pritchard,
    P. Verma, H. F. Schaefer III, K. Patkowski, R. A. King, E. F. Valeev,
    F. A. Evangelista, J. M. Turney, T. D. Crawford, and C. D. Sherrill,
    J. Chem. Theory Comput. 13(7) pp 3185--3197 (2017).
    (doi: 10.1021/acs.jctc.7b00174)


                         Additional Contributions by
    P. Kraus, H. Kruse, M. H. Lechner, M. C. Schieber, R. A. Shaw,
    A. Alenaizan, R. Galvelis, Z. L. Glick, S. Lehtola, and J. P. Misiewicz

    -----------------------------------------------------------------------


    Psi4 started on: Friday, 06 November 2020 01:30PM

    Process ID: 41035
    Host:       node37.bme.utexas.edu
    PSIDATADIR: /home/xy3866/psi4conda/share/psi4
    Memory:     500.0 MiB
    Threads:    8
    
  ==> Input File <==

--------------------------------------------------------------------------
#psi4
#
memory 32 gb

molecule  {
0 1
  O       -0.1444123     2.1428857    -0.1563716
  O       -2.2585870    -1.3354710    -0.3679860
  O       -2.3909180     0.7817600     0.4224630
  C       -0.2229310    -0.2124960     0.0158460
  C        0.5432600     0.9664360    -0.0570110
  C        0.4335280    -1.4494910     0.0925130
  C        1.9402870     0.8816050    -0.0559020
  C        1.8233140    -1.5265410     0.1016630
  C        2.5770400    -0.3539830     0.0301550
  C       -1.7066960    -0.1573290     0.0554370
  H       -0.1661180    -2.3524960     0.1439440
  H        2.5301710     1.7954230    -0.1182500
  H        2.3148760    -2.4929130     0.1687580
  H        3.6635200    -0.3964420     0.0343940
  H        0.5733460     2.8632860    -0.2381370
  H       -3.2241600    -1.2056690    -0.2641310
units angstrom
no_reorient  #important for SAPT in psi4, default
symmetry c1  #important for SAPT in psi4, default
}

set PROPERTIES_ORIGIN ["COM"]
properties('MP2/aug-cc-pvtz', properties = ['dipole'])
--------------------------------------------------------------------------

  Memory set to  29.802 GiB by Python driver.
    SCF Algorithm Type (re)set to DF.

*** tstart() called on node37.bme.utexas.edu
*** at Fri Nov  6 13:30:12 2020

   => Loading Basis Set <=

    Name: AUG-CC-PVTZ
    Role: ORBITAL
    Keyword: BASIS
    atoms 1-3   entry O          line   327 file /home/xy3866/psi4conda/share/psi4/basis/aug-cc-pvtz.gbs 
    atoms 4-10  entry C          line   235 file /home/xy3866/psi4conda/share/psi4/basis/aug-cc-pvtz.gbs 
    atoms 11-16 entry H          line    36 file /home/xy3866/psi4conda/share/psi4/basis/aug-cc-pvtz.gbs 


         ---------------------------------------------------------
                                   SCF
               by Justin Turney, Rob Parrish, Andy Simmonett
                          and Daniel G. A. Smith
                              RHF Reference
                        8 Threads,  30517 MiB Core
         ---------------------------------------------------------

  ==> Geometry <==

    Molecular point group: c1
    Full point group: C1

    Geometry (in Angstrom), charge = 0, multiplicity = 1:

       Center              X                  Y                   Z               Mass       
    ------------   -----------------  -----------------  -----------------  -----------------
         O           -0.098853910511     2.132784272586    -0.158451231340    15.994914619570
         O           -2.213028610511    -1.345572427414    -0.370065631340    15.994914619570
         O           -2.345359610511     0.771658572586     0.420383368660    15.994914619570
         C           -0.177372610511    -0.222597427414     0.013766368660    12.000000000000
         C            0.588818389489     0.956334572586    -0.059090631340    12.000000000000
         C            0.479086389489    -1.459592427414     0.090433368660    12.000000000000
         C            1.985845389489     0.871503572586    -0.057981631340    12.000000000000
         C            1.868872389489    -1.536642427414     0.099583368660    12.000000000000
         C            2.622598389489    -0.364084427414     0.028075368660    12.000000000000
         C           -1.661137610511    -0.167430427414     0.053357368660    12.000000000000
         H           -0.120559610511    -2.362597427414     0.141864368660     1.007825032230
         H            2.575729389489     1.785321572586    -0.120329631340     1.007825032230
         H            2.360434389489    -2.503014427414     0.166678368660     1.007825032230
         H            3.709078389489    -0.406543427414     0.032314368660     1.007825032230
         H            0.618904389489     2.853184572586    -0.240216631340     1.007825032230
         H           -3.178601610511    -1.215770427414    -0.266210631340     1.007825032230

  Running in c1 symmetry.

  Rotational constants: A =      0.07711  B =      0.04000  C =      0.02684 [cm^-1]
  Rotational constants: A =   2311.68958  B =   1199.14202  C =    804.51719 [MHz]
  Nuclear repulsion =  499.219149212238904

  Charge       = 0
  Multiplicity = 1
  Electrons    = 72
  Nalpha       = 36
  Nbeta        = 36

  ==> Algorithm <==

  SCF Algorithm Type is DF.
  DIIS enabled.
  MOM disabled.
  Fractional occupation disabled.
  Guess Type is SAD.
  Energy threshold   = 1.00e-10
  Density threshold  = 1.00e-10
  Integral threshold = 0.00e+00

  ==> Primary Basis <==

  Basis Set: AUG-CC-PVTZ
    Blend: AUG-CC-PVTZ
    Number of shells: 194
    Number of basis function: 598
    Number of Cartesian functions: 700
    Spherical Harmonics?: true
    Max angular momentum: 3

   => Loading Basis Set <=

    Name: (AUG-CC-PVTZ AUX)
    Role: JKFIT
    Keyword: DF_BASIS_SCF
    atoms 1-3   entry O          line   286 file /home/xy3866/psi4conda/share/psi4/basis/aug-cc-pvtz-jkfit.gbs 
    atoms 4-10  entry C          line   162 file /home/xy3866/psi4conda/share/psi4/basis/aug-cc-pvtz-jkfit.gbs 
    atoms 11-16 entry H          line    70 file /home/xy3866/psi4conda/share/psi4/basis/aug-cc-pvtz-jkfit.gbs 

  ==> Pre-Iterations <==

   -------------------------------------------------------
    Irrep   Nso     Nmo     Nalpha   Nbeta   Ndocc  Nsocc
   -------------------------------------------------------
     A        598     598       0       0       0       0
   -------------------------------------------------------
    Total     598     598      36      36      36       0
   -------------------------------------------------------

  ==> Integral Setup <==

  DFHelper Memory: AOs need 3.432 GiB; user supplied 22.352 GiB. Using in-core AOs.

  ==> MemDFJK: Density-Fitted J/K Matrices <==

    J tasked:                   Yes
    K tasked:                   Yes
    wK tasked:                   No
    OpenMP threads:               8
    Memory [MiB]:             22888
    Algorithm:                 Disk
    Schwarz Cutoff:           1E-12
    Mask sparsity (%):       5.1509
    Fitting Condition:        1E-10

   => Auxiliary Basis Set <=

  Basis Set: (AUG-CC-PVTZ AUX)
    Blend: AUG-CC-PVTZ-JKFIT
    Number of shells: 384
    Number of basis function: 1316
    Number of Cartesian functions: 1640
    Spherical Harmonics?: true
    Max angular momentum: 4

  Minimum eigenvalue in the overlap matrix is 6.3659792325E-07.
  Using Symmetric Orthogonalization.

  SCF Guess: Superposition of Atomic Densities via on-the-fly atomic UHF.

  ==> Iterations <==

                           Total Energy        Delta E     RMS |[F,P]|

   @DF-RHF iter SAD:  -492.36435933907819   -4.92364e+02   0.00000e+00 
   @DF-RHF iter   1:  -493.05245207464486   -6.88093e-01   1.30018e-03 DIIS
   @DF-RHF iter   2:  -493.27288324047117   -2.20431e-01   7.46333e-04 DIIS
   @DF-RHF iter   3:  -493.34347676320880   -7.05935e-02   1.31380e-04 DIIS
   @DF-RHF iter   4:  -493.34701818468193   -3.54142e-03   6.61857e-05 DIIS
   @DF-RHF iter   5:  -493.34781770477645   -7.99520e-04   1.33189e-05 DIIS
   @DF-RHF iter   6:  -493.34788852743253   -7.08227e-05   6.47769e-06 DIIS
   @DF-RHF iter   7:  -493.34790546607246   -1.69386e-05   2.56895e-06 DIIS
   @DF-RHF iter   8:  -493.34790889528608   -3.42921e-06   9.82703e-07 DIIS
   @DF-RHF iter   9:  -493.34790936348804   -4.68202e-07   3.49295e-07 DIIS
   @DF-RHF iter  10:  -493.34790943860366   -7.51156e-08   1.57719e-07 DIIS
   @DF-RHF iter  11:  -493.34790945216594   -1.35623e-08   5.76720e-08 DIIS
   @DF-RHF iter  12:  -493.34790945450663   -2.34070e-09   2.47699e-08 DIIS
   @DF-RHF iter  13:  -493.34790945499992   -4.93287e-10   1.14736e-08 DIIS
   @DF-RHF iter  14:  -493.34790945511514   -1.15222e-10   5.20811e-09 DIIS
   @DF-RHF iter  15:  -493.34790945513646   -2.13163e-11   2.11622e-09 DIIS
   @DF-RHF iter  16:  -493.34790945513856   -2.10321e-12   8.44366e-10 DIIS
   @DF-RHF iter  17:  -493.34790945513743    1.13687e-12   3.47118e-10 DIIS
   @DF-RHF iter  18:  -493.34790945513907   -1.64846e-12   1.11013e-10 DIIS
   @DF-RHF iter  19:  -493.34790945513851    5.68434e-13   5.10436e-11 DIIS
  Energy and wave function converged.


  ==> Post-Iterations <==

    Orbital Energies [Eh]
    ---------------------

    Doubly Occupied:                                                      

       1A    -20.609379     2A    -20.607595     3A    -20.542091  
       4A    -11.388760     5A    -11.330115     6A    -11.266007  
       7A    -11.262446     8A    -11.255142     9A    -11.250594  
      10A    -11.242326    11A     -1.453145    12A     -1.408575  
      13A     -1.347830    14A     -1.166577    15A     -1.054698  
      16A     -1.021545    17A     -0.897258    18A     -0.858867  
      19A     -0.800063    20A     -0.738314    21A     -0.706051  
      22A     -0.697407    23A     -0.676737    24A     -0.642637  
      25A     -0.624617    26A     -0.621957    27A     -0.595628  
      28A     -0.588864    29A     -0.579809    30A     -0.538502  
      31A     -0.522220    32A     -0.498003    33A     -0.476016  
      34A     -0.445804    35A     -0.361646    36A     -0.331673  

    Virtual:                                                              

      37A      0.023004    38A      0.029836    39A      0.034140  
      40A      0.043442    41A      0.054009    42A      0.064137  
      43A      0.069405    44A      0.076231    45A      0.089794  
      46A      0.093250    47A      0.097069    48A      0.102395  
      49A      0.106583    50A      0.112785    51A      0.115805  
      52A      0.120424    53A      0.121696    54A      0.123002  
      55A      0.130067    56A      0.132176    57A      0.135282  
      58A      0.147930    59A      0.150400    60A      0.154124  
      61A      0.156235    62A      0.157936    63A      0.169639  
      64A      0.175427    65A      0.184111    66A      0.197579  
      67A      0.203511    68A      0.211704    69A      0.218087  
      70A      0.224977    71A      0.227214    72A      0.233762  
      73A      0.236970    74A      0.244301    75A      0.248288  
      76A      0.250243    77A      0.260431    78A      0.267220  
      79A      0.272672    80A      0.277312    81A      0.278517  
      82A      0.287258    83A      0.290222    84A      0.295176  
      85A      0.308936    86A      0.314924    87A      0.317777  
      88A      0.322235    89A      0.327502    90A      0.334030  
      91A      0.334746    92A      0.340191    93A      0.342492  
      94A      0.353569    95A      0.359378    96A      0.370497  
      97A      0.381946    98A      0.387026    99A      0.390811  
     100A      0.402608   101A      0.406764   102A      0.408188  
     103A      0.421070   104A      0.424618   105A      0.429937  
     106A      0.434233   107A      0.436728   108A      0.444521  
     109A      0.446356   110A      0.451108   111A      0.457379  
     112A      0.459413   113A      0.464737   114A      0.466633  
     115A      0.475191   116A      0.478297   117A      0.483528  
     118A      0.487046   119A      0.494268   120A      0.499345  
     121A      0.510308   122A      0.514292   123A      0.518757  
     124A      0.520737   125A      0.524620   126A      0.526463  
     127A      0.536963   128A      0.542124   129A      0.544743  
     130A      0.545129   131A      0.556356   132A      0.580015  
     133A      0.593997   134A      0.603523   135A      0.604238  
     136A      0.616823   137A      0.618778   138A      0.635251  
     139A      0.637612   140A      0.644259   141A      0.652780  
     142A      0.667489   143A      0.671951   144A      0.675491  
     145A      0.680549   146A      0.693475   147A      0.705826  
     148A      0.711242   149A      0.720233   150A      0.725746  
     151A      0.734396   152A      0.741061   153A      0.749647  
     154A      0.753198   155A      0.763498   156A      0.770988  
     157A      0.779644   158A      0.787507   159A      0.804648  
     160A      0.807622   161A      0.813476   162A      0.818866  
     163A      0.832728   164A      0.839665   165A      0.840998  
     166A      0.853503   167A      0.860285   168A      0.863539  
     169A      0.868245   170A      0.869431   171A      0.879384  
     172A      0.881760   173A      0.884507   174A      0.892228  
     175A      0.900003   176A      0.908193   177A      0.912156  
     178A      0.913819   179A      0.919508   180A      0.928014  
     181A      0.940296   182A      0.942776   183A      0.950339  
     184A      0.958124   185A      0.962939   186A      0.976255  
     187A      0.983220   188A      0.989830   189A      0.990554  
     190A      1.004119   191A      1.006618   192A      1.010967  
     193A      1.013764   194A      1.022151   195A      1.032220  
     196A      1.036791   197A      1.039530   198A      1.041825  
     199A      1.050125   200A      1.057659   201A      1.064926  
     202A      1.074909   203A      1.080899   204A      1.087044  
     205A      1.090249   206A      1.090690   207A      1.100291  
     208A      1.102882   209A      1.109735   210A      1.121579  
     211A      1.134037   212A      1.143179   213A      1.149389  
     214A      1.157426   215A      1.161986   216A      1.172048  
     217A      1.174515   218A      1.176178   219A      1.183878  
     220A      1.193735   221A      1.201113   222A      1.204099  
     223A      1.214297   224A      1.218458   225A      1.233206  
     226A      1.240954   227A      1.244933   228A      1.251121  
     229A      1.271517   230A      1.277847   231A      1.288953  
     232A      1.292564   233A      1.300268   234A      1.307919  
     235A      1.330838   236A      1.332152   237A      1.347227  
     238A      1.356335   239A      1.367808   240A      1.376559  
     241A      1.378645   242A      1.380916   243A      1.394088  
     244A      1.401330   245A      1.419884   246A      1.428165  
     247A      1.432901   248A      1.454552   249A      1.471910  
     250A      1.477669   251A      1.486691   252A      1.495703  
     253A      1.514277   254A      1.525148   255A      1.532898  
     256A      1.539609   257A      1.553377   258A      1.559206  
     259A      1.564579   260A      1.575974   261A      1.591977  
     262A      1.614978   263A      1.627592   264A      1.652502  
     265A      1.661387   266A      1.669863   267A      1.679207  
     268A      1.687687   269A      1.698619   270A      1.702015  
     271A      1.712922   272A      1.718951   273A      1.727586  
     274A      1.744238   275A      1.750000   276A      1.756448  
     277A      1.774151   278A      1.783539   279A      1.792647  
     280A      1.806214   281A      1.807769   282A      1.812160  
     283A      1.826914   284A      1.843573   285A      1.849146  
     286A      1.855617   287A      1.866376   288A      1.874156  
     289A      1.884538   290A      1.897807   291A      1.914368  
     292A      1.929177   293A      1.942545   294A      1.949164  
     295A      1.963843   296A      1.973172   297A      1.987987  
     298A      1.998329   299A      2.008927   300A      2.018984  
     301A      2.025307   302A      2.036712   303A      2.046079  
     304A      2.058491   305A      2.066785   306A      2.069730  
     307A      2.083446   308A      2.088480   309A      2.109062  
     310A      2.121297   311A      2.130954   312A      2.147016  
     313A      2.158809   314A      2.167319   315A      2.186301  
     316A      2.189348   317A      2.220455   318A      2.238518  
     319A      2.260148   320A      2.276134   321A      2.296217  
     322A      2.297671   323A      2.318285   324A      2.340986  
     325A      2.350732   326A      2.371995   327A      2.381807  
     328A      2.393613   329A      2.414843   330A      2.426223  
     331A      2.433644   332A      2.440134   333A      2.452279  
     334A      2.470949   335A      2.484496   336A      2.498885  
     337A      2.515514   338A      2.544275   339A      2.556975  
     340A      2.569944   341A      2.581591   342A      2.591801  
     343A      2.602515   344A      2.616037   345A      2.628365  
     346A      2.632690   347A      2.649277   348A      2.658595  
     349A      2.679299   350A      2.686595   351A      2.700602  
     352A      2.727531   353A      2.742314   354A      2.754107  
     355A      2.774905   356A      2.782222   357A      2.802592  
     358A      2.836539   359A      2.843770   360A      2.846583  
     361A      2.874137   362A      2.878488   363A      2.904672  
     364A      2.928862   365A      2.934397   366A      2.948406  
     367A      2.964764   368A      2.995107   369A      3.010343  
     370A      3.046601   371A      3.062035   372A      3.071853  
     373A      3.076489   374A      3.102677   375A      3.125231  
     376A      3.142961   377A      3.159268   378A      3.203002  
     379A      3.217572   380A      3.220017   381A      3.263254  
     382A      3.278526   383A      3.286022   384A      3.295192  
     385A      3.326781   386A      3.350916   387A      3.354406  
     388A      3.364510   389A      3.375601   390A      3.382554  
     391A      3.390878   392A      3.411928   393A      3.433387  
     394A      3.444741   395A      3.446869   396A      3.463678  
     397A      3.476534   398A      3.491020   399A      3.516103  
     400A      3.529854   401A      3.542026   402A      3.554208  
     403A      3.556356   404A      3.569029   405A      3.603371  
     406A      3.610770   407A      3.615146   408A      3.636879  
     409A      3.641106   410A      3.658871   411A      3.665815  
     412A      3.688218   413A      3.696891   414A      3.710846  
     415A      3.722819   416A      3.743874   417A      3.759084  
     418A      3.782360   419A      3.797533   420A      3.809374  
     421A      3.825607   422A      3.840736   423A      3.853843  
     424A      3.863865   425A      3.879326   426A      3.888334  
     427A      3.901272   428A      3.906750   429A      3.916382  
     430A      3.922236   431A      3.955546   432A      3.967566  
     433A      3.971525   434A      3.989171   435A      3.999238  
     436A      4.009669   437A      4.026701   438A      4.032975  
     439A      4.051914   440A      4.087850   441A      4.096062  
     442A      4.111339   443A      4.115101   444A      4.132800  
     445A      4.140679   446A      4.150654   447A      4.182442  
     448A      4.193612   449A      4.220089   450A      4.244186  
     451A      4.257604   452A      4.259989   453A      4.268302  
     454A      4.273166   455A      4.299256   456A      4.306702  
     457A      4.332168   458A      4.336409   459A      4.338307  
     460A      4.355207   461A      4.360160   462A      4.366316  
     463A      4.374155   464A      4.381975   465A      4.410584  
     466A      4.418649   467A      4.424680   468A      4.440693  
     469A      4.453953   470A      4.480178   471A      4.492248  
     472A      4.506488   473A      4.522917   474A      4.525982  
     475A      4.537390   476A      4.542125   477A      4.566669  
     478A      4.604351   479A      4.629811   480A      4.660449  
     481A      4.670444   482A      4.691463   483A      4.710042  
     484A      4.722624   485A      4.727281   486A      4.768039  
     487A      4.783036   488A      4.787297   489A      4.808029  
     490A      4.823738   491A      4.854652   492A      4.874122  
     493A      4.893245   494A      4.915472   495A      4.930851  
     496A      4.934956   497A      4.958412   498A      4.971717  
     499A      4.989926   500A      5.010163   501A      5.034877  
     502A      5.050363   503A      5.081039   504A      5.103117  
     505A      5.118884   506A      5.124362   507A      5.145911  
     508A      5.152678   509A      5.172196   510A      5.212917  
     511A      5.221807   512A      5.234002   513A      5.242631  
     514A      5.277488   515A      5.301293   516A      5.321439  
     517A      5.322133   518A      5.354619   519A      5.369395  
     520A      5.376451   521A      5.399328   522A      5.423857  
     523A      5.463464   524A      5.477250   525A      5.520976  
     526A      5.541904   527A      5.592384   528A      5.651318  
     529A      5.666709   530A      5.716380   531A      5.754591  
     532A      5.798149   533A      5.845914   534A      5.943992  
     535A      6.067974   536A      6.097918   537A      6.146785  
     538A      6.170469   539A      6.202567   540A      6.265199  
     541A      6.287609   542A      6.333039   543A      6.404645  
     544A      6.481088   545A      6.498190   546A      6.592207  
     547A      6.640438   548A      6.663421   549A      6.735007  
     550A      6.777044   551A      6.811189   552A      6.865097  
     553A      6.895714   554A      6.914239   555A      6.917390  
     556A      6.920380   557A      6.996783   558A      7.017600  
     559A      7.045370   560A      7.053989   561A      7.068873  
     562A      7.168176   563A      7.203273   564A      7.230542  
     565A      7.263543   566A      7.273842   567A      7.366977  
     568A      7.385995   569A      7.402789   570A      7.428019  
     571A      7.461028   572A      7.494198   573A      7.565940  
     574A      7.592223   575A      7.632418   576A      7.640657  
     577A      7.674711   578A      7.747303   579A      7.751803  
     580A      7.788265   581A      7.889526   582A      7.978385  
     583A      8.007631   584A      8.109158   585A      8.280570  
     586A      8.397161   587A      8.543611   588A      8.553804  
     589A     15.255160   590A     15.504054   591A     15.753177  
     592A     16.340003   593A     17.040181   594A     18.454055  
     595A     18.898905   596A     19.682419   597A     20.001926  
     598A     20.466627  

    Final Occupation by Irrep:
              A 
    DOCC [    36 ]

  @DF-RHF Final Energy:  -493.34790945513851

   => Energetics <=

    Nuclear Repulsion Energy =            499.2191492122389036
    One-Electron Energy =               -1664.3163136930252222
    Two-Electron Energy =                 671.7492550256479262
    Total Energy =                       -493.3479094551385060

Computation Completed

*** tstop() called on node37.bme.utexas.edu at Fri Nov  6 13:31:52 2020
Module time:
	user time   =     331.59 seconds =       5.53 minutes
	system time =      81.31 seconds =       1.36 minutes
	total time  =        100 seconds =       1.67 minutes
Total time:
	user time   =     331.59 seconds =       5.53 minutes
	system time =      81.31 seconds =       1.36 minutes
	total time  =        100 seconds =       1.67 minutes
   => Loading Basis Set <=

    Name: (AUG-CC-PVTZ AUX)
    Role: RIFIT
    Keyword: DF_BASIS_MP2
    atoms 1-3   entry O          line   264 file /home/xy3866/psi4conda/share/psi4/basis/aug-cc-pvtz-ri.gbs 
    atoms 4-10  entry C          line   148 file /home/xy3866/psi4conda/share/psi4/basis/aug-cc-pvtz-ri.gbs 
    atoms 11-16 entry H          line    30 file /home/xy3866/psi4conda/share/psi4/basis/aug-cc-pvtz-ri.gbs 


*** tstart() called on node37.bme.utexas.edu
*** at Fri Nov  6 13:31:52 2020


  //>>>>>>>>>>>>>>>>>>>>>>>>>>>>>>>>>>>//
  //               DFMP2               //
  //<<<<<<<<<<<<<<<<<<<<<<<<<<<<<<<<<<<//

	 --------------------------------------------------------
	                          DF-MP2                         
	      2nd-Order Density-Fitted Moller-Plesset Theory     
	              RMP2 Wavefunction,   8 Threads             
	                                                         
	        Rob Parrish, Justin Turney, Andy Simmonett,      
	           Ed Hohenstein, and C. David Sherrill          
	 --------------------------------------------------------

   => Auxiliary Basis Set <=

  Basis Set: (AUG-CC-PVTZ AUX)
    Blend: AUG-CC-PVTZ-RI
    Number of shells: 364
    Number of basis function: 1336
    Number of Cartesian functions: 1690
    Spherical Harmonics?: true
    Max angular momentum: 4

	 --------------------------------------------------------
	                 NBF =   598, NAUX =  1336
	 --------------------------------------------------------
	   CLASS    FOCC     OCC    AOCC    AVIR     VIR    FVIR
	   PAIRS       0      36      36     562     562       0
	 --------------------------------------------------------

  DFHelper Memory: AOs need 3.432 GiB; user supplied 22.352 GiB. Using in-core AOs.


         ------------------------------------------------------------
                                     CPHF                           
                                  Rob Parrish                       
         ------------------------------------------------------------

  ==> Geometry <==

    Molecular point group: c1
    Full point group: C1

    Geometry (in Angstrom), charge = 0, multiplicity = 1:

       Center              X                  Y                   Z               Mass       
    ------------   -----------------  -----------------  -----------------  -----------------
         O           -0.098853910511     2.132784272586    -0.158451231340    15.994914619570
         O           -2.213028610511    -1.345572427414    -0.370065631340    15.994914619570
         O           -2.345359610511     0.771658572586     0.420383368660    15.994914619570
         C           -0.177372610511    -0.222597427414     0.013766368660    12.000000000000
         C            0.588818389489     0.956334572586    -0.059090631340    12.000000000000
         C            0.479086389489    -1.459592427414     0.090433368660    12.000000000000
         C            1.985845389489     0.871503572586    -0.057981631340    12.000000000000
         C            1.868872389489    -1.536642427414     0.099583368660    12.000000000000
         C            2.622598389489    -0.364084427414     0.028075368660    12.000000000000
         C           -1.661137610511    -0.167430427414     0.053357368660    12.000000000000
         H           -0.120559610511    -2.362597427414     0.141864368660     1.007825032230
         H            2.575729389489     1.785321572586    -0.120329631340     1.007825032230
         H            2.360434389489    -2.503014427414     0.166678368660     1.007825032230
         H            3.709078389489    -0.406543427414     0.032314368660     1.007825032230
         H            0.618904389489     2.853184572586    -0.240216631340     1.007825032230
         H           -3.178601610511    -1.215770427414    -0.266210631340     1.007825032230

  Nuclear repulsion =  499.219149212238904
  Reference energy  = -493.347909455138506

  ==> Basis Set <==

  Basis Set: AUG-CC-PVTZ
    Blend: AUG-CC-PVTZ
    Number of shells: 194
    Number of basis function: 598
    Number of Cartesian functions: 700
    Spherical Harmonics?: true
    Max angular momentum: 3

  ==> CGRSolver (by Rob Parrish) <==

   Number of roots    =         1
   Preconditioning    =    JACOBI
   Convergence cutoff =     1E-06
   Maximum iterations =       100

  ==> CPHFRHamiltonian (by Rob Parrish) <== 

  ==> MemDFJK: Density-Fitted J/K Matrices <==

    J tasked:                   Yes
    K tasked:                   Yes
    wK tasked:                   No
    OpenMP threads:               8
    Memory [MiB]:             22888
    Algorithm:                 Disk
    Schwarz Cutoff:           1E-12
    Mask sparsity (%):       5.1509
    Fitting Condition:        1E-10

   => Auxiliary Basis Set <=

  Basis Set: (AUG-CC-PVTZ AUX)
    Blend: AUG-CC-PVTZ-JKFIT
    Number of shells: 384
    Number of basis function: 1316
    Number of Cartesian functions: 1640
    Spherical Harmonics?: true
    Max angular momentum: 4

  ==> CPHF Iterations <==

  => Iterations <=

             Iter  Converged  Remaining    Residual
  CGR           1          0          1   1.193E-01
  CGR           2          0          1   4.266E-02
  CGR           3          0          1   2.419E-02
  CGR           4          0          1   1.054E-02
  CGR           5          0          1   4.901E-03
  CGR           6          0          1   1.737E-03
  CGR           7          0          1   5.145E-04
  CGR           8          0          1   1.719E-04
  CGR           9          0          1   5.650E-05
  CGR          10          0          1   2.332E-05
  CGR          11          0          1   1.006E-05
  CGR          12          0          1   3.921E-06
  CGR          13          0          1   1.460E-06
  CGR          14          1          0   5.405E-07

    CGRSolver converged.

	-----------------------------------------------------------
	 ==================> DF-MP2 Energies <==================== 
	-----------------------------------------------------------
	 Reference Energy          =    -493.3479094551385060 [Eh]
	 Singles Energy            =      -0.0000000000000000 [Eh]
	 Same-Spin Energy          =      -0.5062273712495535 [Eh]
	 Opposite-Spin Energy      =      -1.5064382821648601 [Eh]
	 Correlation Energy        =      -2.0126656534144134 [Eh]
	 Total Energy              =    -495.3605751085528937 [Eh]
	-----------------------------------------------------------
	 ================> DF-SCS-MP2 Energies <================== 
	-----------------------------------------------------------
	 SCS Same-Spin Scale       =       0.3333333333333333 [-]
	 SCS Opposite-Spin Scale   =       1.2000000000000000 [-]
	 SCS Same-Spin Energy      =      -0.1687424570831845 [Eh]
	 SCS Opposite-Spin Energy  =      -1.8077259385978319 [Eh]
	 SCS Correlation Energy    =      -1.9764683956810165 [Eh]
	 SCS Total Energy          =    -495.3243778508195305 [Eh]
	-----------------------------------------------------------



Properties will be evaluated at  -0.000000,  -0.000000,  -0.000000 [a0]

Properties computed using the MP2 density matrix

  Nuclear Dipole Moment: [e a0]
     X:     5.5696      Y:    -1.7263      Z:    -0.2685

  Electronic Dipole Moment: [e a0]
     X:    -4.5190      Y:     1.5592      Z:     0.0871

  Dipole Moment: [e a0]
     X:     1.0506      Y:    -0.1671      Z:    -0.1815     Total:     1.0792

  Dipole Moment: [D]
     X:     2.6703      Y:    -0.4247      Z:    -0.4613     Total:     2.7430


*** tstop() called on node37.bme.utexas.edu at Fri Nov  6 13:35:03 2020
Module time:
	user time   =     894.98 seconds =      14.92 minutes
	system time =     148.40 seconds =       2.47 minutes
	total time  =        191 seconds =       3.18 minutes
Total time:
	user time   =    1227.72 seconds =      20.46 minutes
	system time =     229.80 seconds =       3.83 minutes
	total time  =        291 seconds =       4.85 minutes

    Psi4 stopped on: Friday, 06 November 2020 01:35PM
    Psi4 wall time for execution: 0:04:51.74

*** Psi4 exiting successfully. Buy a developer a beer!
