opt=Tight                                                               
Freq      RMP2-FC                                                     Gen                 
Number of atoms                            I                5
Info1-9                                    I   N=           9
          82          81        1002           0           0         100
           6           2           1
Charge                                     I                0
Multiplicity                               I                1
Number of electrons                        I               62
Number of alpha electrons                  I               31
Number of beta electrons                   I               31
Number of basis functions                  I               98
Number of independent functions            I               98
Number of point charges in /Mol/           I                0
Number of translation vectors              I                0
Atomic numbers                             I   N=           5
          53           6           1           1           1
Nuclear charges                            R   N=           5
  5.30000000E+01  6.00000000E+00  1.00000000E+00  1.00000000E+00  1.00000000E+00
Current cartesian coordinates              R   N=          15
 -6.19414429E-01 -1.39760436E-20  2.27247972E-07  3.43464625E+00  4.16086618E-07
 -8.35643456E-06  4.07369192E+00 -1.66085091E+00 -1.02727629E+00  4.07369119E+00
  1.72009676E+00 -9.24659053E-01  4.07370412E+00 -5.92475897E-02  1.95197344E+00
Force Field                                I                0
Int Atom Types                             I   N=           5
           0           0           0           0           0
MM charges                                 R   N=           5
  0.00000000E+00  0.00000000E+00  0.00000000E+00  0.00000000E+00  0.00000000E+00
Integer atomic weights                     I   N=           5
         127          12           1           1           1
Real atomic weights                        R   N=           5
  1.26900400E+02  1.20000000E+01  1.00782504E+00  1.00782504E+00  1.00782504E+00
Atom fragment info                         I   N=           5
           0           0           0           0           0
Atom residue num                           I   N=           5
           0           0           0           0           0
Nuclear spins                              I   N=           5
           5           0           1           1           1
Nuclear ZEff                               R   N=           5
 -6.57200000E+01 -3.60000000E+00 -1.00000000E+00 -1.00000000E+00 -1.00000000E+00
Nuclear QMom                               R   N=           5
 -7.10000000E+01  0.00000000E+00  0.00000000E+00  0.00000000E+00  0.00000000E+00
Nuclear GFac                               R   N=           5
  2.81328000E+00  0.00000000E+00  2.79284600E+00  2.79284600E+00  2.79284600E+00
MicOpt                                     I   N=           5
          -1          -1          -1          -1          -1
Number of contracted shells                I               41
Number of primitive shells                 I               64
Pure/Cartesian d shells                    I                0
Pure/Cartesian f shells                    I                0
Highest angular momentum                   I                2
Largest degree of contraction              I                6
Shell types                                I   N=          41
           0           0           0           0           0           0
           0           0           0           0           1           1
           1           1           1           1           1           1
           1          -2          -2          -2          -2          -2
           0          -1          -1          -1          -2           0
           0           0           1           0           0           0
           1           0           0           0           1
Number of primitives per shell             I   N=          41
           5           2           1           1           1           1
           1           1           1           1           4           1
           1           1           1           1           1           1
           1           3           1           1           1           1
           6           3           1           1           1           3
           1           1           1           3           1           1
           1           3           1           1           1
Shell to atom map                          I   N=          41
           1           1           1           1           1           1
           1           1           1           1           1           1
           1           1           1           1           1           1
           1           1           1           1           1           1
           2           2           2           2           2           3
           3           3           3           4           4           4
           4           5           5           5           5
Primitive exponents                        R   N=          64
  4.44750000E+05  6.61270000E+04  1.48150000E+04  4.14490000E+03  1.36120000E+03
  5.08440000E+02  2.09590000E+02  8.19590000E+01  3.68050000E+01  1.34950000E+01
  6.88590000E+00  2.55200000E+00  1.20880000E+00  2.73400000E-01  1.00900000E-01
  2.95360000E+03  7.12610000E+02  2.36710000E+02  9.26310000E+01  3.97320000E+01
  1.72730000E+01  7.95700000E+00  3.15290000E+00  1.33280000E+00  4.94700000E-01
  2.16000000E-01  8.29300000E-02  2.61950000E+02  7.67340000E+01  2.75510000E+01
  1.06060000E+01  3.42170000E+00  1.13700000E+00  3.02000000E-01  4.56324000E+03
  6.82024000E+02  1.54973000E+02  4.44553000E+01  1.30290000E+01  1.82773000E+00
  2.09642000E+01  4.80331000E+00  1.45933000E+00  4.83456000E-01  1.45585000E-01
  6.26000000E-01  3.38650000E+01  5.09479000E+00  1.15879000E+00  3.25840000E-01
  1.02741000E-01  7.50000000E-01  3.38650000E+01  5.09479000E+00  1.15879000E+00
  3.25840000E-01  1.02741000E-01  7.50000000E-01  3.38650000E+01  5.09479000E+00
  1.15879000E+00  3.25840000E-01  1.02741000E-01  7.50000000E-01
Contraction coefficients                   R   N=          64
  1.86636799E-03  1.45534763E-02  7.56822706E-02  2.84526752E-01  7.10436122E-01
  7.24149751E-01  3.04776831E-01  1.00000000E+00  1.00000000E+00  1.00000000E+00
  1.00000000E+00  1.00000000E+00  1.00000000E+00  1.00000000E+00  1.00000000E+00
  1.56939495E-02  1.10371781E-01  3.79084072E-01  6.15020301E-01  1.00000000E+00
  1.00000000E+00  1.00000000E+00  1.00000000E+00  1.00000000E+00  1.00000000E+00
  1.00000000E+00  1.00000000E+00  5.05248223E-02  3.05784452E-01  7.59270445E-01
  1.00000000E+00  1.00000000E+00  1.00000000E+00  1.00000000E+00  1.96665025E-03
  1.52306019E-02  7.61269097E-02  2.60801033E-01  6.16462078E-01  2.21006028E-01
  1.14660081E-01  9.19999648E-01 -3.03068213E-03  1.00000000E+00  1.00000000E+00
  1.00000000E+00  2.54938145E-02  1.90373109E-01  8.52161486E-01  1.00000000E+00
  1.00000000E+00  1.00000000E+00  2.54938145E-02  1.90373109E-01  8.52161486E-01
  1.00000000E+00  1.00000000E+00  1.00000000E+00  2.54938145E-02  1.90373109E-01
  8.52161486E-01  1.00000000E+00  1.00000000E+00  1.00000000E+00
P(S=P) Contraction coefficients            R   N=          64
  0.00000000E+00  0.00000000E+00  0.00000000E+00  0.00000000E+00  0.00000000E+00
  0.00000000E+00  0.00000000E+00  0.00000000E+00  0.00000000E+00  0.00000000E+00
  0.00000000E+00  0.00000000E+00  0.00000000E+00  0.00000000E+00  0.00000000E+00
  0.00000000E+00  0.00000000E+00  0.00000000E+00  0.00000000E+00  0.00000000E+00
  0.00000000E+00  0.00000000E+00  0.00000000E+00  0.00000000E+00  0.00000000E+00
  0.00000000E+00  0.00000000E+00  0.00000000E+00  0.00000000E+00  0.00000000E+00
  0.00000000E+00  0.00000000E+00  0.00000000E+00  0.00000000E+00  0.00000000E+00
  0.00000000E+00  0.00000000E+00  0.00000000E+00  0.00000000E+00  0.00000000E+00
  4.02486927E-02  2.37593957E-01  8.15853851E-01  1.00000000E+00  1.00000000E+00
  0.00000000E+00  0.00000000E+00  0.00000000E+00  0.00000000E+00  0.00000000E+00
  0.00000000E+00  0.00000000E+00  0.00000000E+00  0.00000000E+00  0.00000000E+00
  0.00000000E+00  0.00000000E+00  0.00000000E+00  0.00000000E+00  0.00000000E+00
  0.00000000E+00  0.00000000E+00  0.00000000E+00  0.00000000E+00
Coordinates of each shell                  R   N=         123
 -6.19414429E-01 -1.01643954E-20  2.27247972E-07 -6.19414429E-01 -1.01643954E-20
  2.27247972E-07 -6.19414429E-01 -1.01643954E-20  2.27247972E-07 -6.19414429E-01
 -1.01643954E-20  2.27247972E-07 -6.19414429E-01 -1.01643954E-20  2.27247972E-07
 -6.19414429E-01 -1.01643954E-20  2.27247972E-07 -6.19414429E-01 -1.01643954E-20
  2.27247972E-07 -6.19414429E-01 -1.01643954E-20  2.27247972E-07 -6.19414429E-01
 -1.01643954E-20  2.27247972E-07 -6.19414429E-01 -1.01643954E-20  2.27247972E-07
 -6.19414429E-01 -1.01643954E-20  2.27247972E-07 -6.19414429E-01 -1.01643954E-20
  2.27247972E-07 -6.19414429E-01 -1.01643954E-20  2.27247972E-07 -6.19414429E-01
 -1.01643954E-20  2.27247972E-07 -6.19414429E-01 -1.01643954E-20  2.27247972E-07
 -6.19414429E-01 -1.01643954E-20  2.27247972E-07 -6.19414429E-01 -1.01643954E-20
  2.27247972E-07 -6.19414429E-01 -1.01643954E-20  2.27247972E-07 -6.19414429E-01
 -1.01643954E-20  2.27247972E-07 -6.19414429E-01 -1.01643954E-20  2.27247972E-07
 -6.19414429E-01 -1.01643954E-20  2.27247972E-07 -6.19414429E-01 -1.01643954E-20
  2.27247972E-07 -6.19414429E-01 -1.01643954E-20  2.27247972E-07 -6.19414429E-01
 -1.01643954E-20  2.27247972E-07  3.43464625E+00  4.16086618E-07 -8.35643456E-06
  3.43464625E+00  4.16086618E-07 -8.35643456E-06  3.43464625E+00  4.16086618E-07
 -8.35643456E-06  3.43464625E+00  4.16086618E-07 -8.35643456E-06  3.43464625E+00
  4.16086618E-07 -8.35643456E-06  4.07369192E+00 -1.66085091E+00 -1.02727629E+00
  4.07369192E+00 -1.66085091E+00 -1.02727629E+00  4.07369192E+00 -1.66085091E+00
 -1.02727629E+00  4.07369192E+00 -1.66085091E+00 -1.02727629E+00  4.07369119E+00
  1.72009676E+00 -9.24659053E-01  4.07369119E+00  1.72009676E+00 -9.24659053E-01
  4.07369119E+00  1.72009676E+00 -9.24659053E-01  4.07369119E+00  1.72009676E+00
 -9.24659053E-01  4.07370412E+00 -5.92475897E-02  1.95197344E+00  4.07370412E+00
 -5.92475897E-02  1.95197344E+00  4.07370412E+00 -5.92475897E-02  1.95197344E+00
  4.07370412E+00 -5.92475897E-02  1.95197344E+00
Constraint Structure                       R   N=          15
 -6.19414429E-01 -1.01643954E-20  2.27247972E-07  3.43464625E+00  4.16086618E-07
 -8.35643456E-06  4.07369192E+00 -1.66085091E+00 -1.02727629E+00  4.07369119E+00
  1.72009676E+00 -9.24659053E-01  4.07370412E+00 -5.92475897E-02  1.95197344E+00
Num ILSW                                   I              100
ILSW                                       I   N=         100
           0           0           0           0           2           0
           0           0           0           0           0          -1
           0           0           0           0           0           0
           0           0           0           0           1           0
           1           0           0           0           0           0
           0           0      100000           0          -1           0
           0           0           0           0           0           0
           0           0           0           1           1           0
           0           0           1           0           0           0
           0           0           4          40           0           0
           0           0           0           0           0           0
           0           0           0           0           0           0
           0           0           0           0           0           0
           0           0           0           0           0           0
           0           0           0           0           0           0
           0           0           0           0           0           0
           0           0           0           0
Num RLSW                                   I               40
RLSW                                       R   N=          40
  1.00000000E+00  1.00000000E+00  1.00000000E+00  1.00000000E+00  1.00000000E+00
  0.00000000E+00  0.00000000E+00  1.00000000E+00  0.00000000E+00  0.00000000E+00
  0.00000000E+00  0.00000000E+00  1.00000000E+00  0.00000000E+00  0.00000000E+00
  0.00000000E+00  0.00000000E+00  1.00000000E+00  0.00000000E+00  0.00000000E+00
  0.00000000E+00  0.00000000E+00  1.00000000E+00  0.00000000E+00  0.00000000E+00
  0.00000000E+00  0.00000000E+00  1.00000000E+00  0.00000000E+00  0.00000000E+00
  0.00000000E+00  0.00000000E+00  0.00000000E+00  0.00000000E+00  0.00000000E+00
  0.00000000E+00  0.00000000E+00  0.00000000E+00  1.00000000E+00  1.00000000E+00
MxBond                                     I                4
NBond                                      I   N=           5
           1           4           1           1           1
IBond                                      I   N=          20
           2           0           0           0           1           3
           4           5           2           0           0           0
           2           0           0           0           2           0
           0           0
RBond                                      R   N=          20
  1.00000000E+00  0.00000000E+00  0.00000000E+00  0.00000000E+00  1.00000000E+00
  1.00000000E+00  1.00000000E+00  1.00000000E+00  1.00000000E+00  0.00000000E+00
  0.00000000E+00  0.00000000E+00  1.00000000E+00  0.00000000E+00  0.00000000E+00
  0.00000000E+00  1.00000000E+00  0.00000000E+00  0.00000000E+00  0.00000000E+00
Virial Ratio                               R      1.999531002641648E+00
SCF Energy                                 R     -6.956438440912701E+03
MP2 Energy                                 R     -6.956803092063487E+03
Total Energy                               R     -6.956803092063487E+03
Post-SCF wavefunction norm                 R      1.495255341327575E+00
RMS Force                                  R      2.172652189965455E-06
RMS Density                                R      1.288852599236220E-09
External E-field                           R   N=          35
  0.00000000E+00  0.00000000E+00  0.00000000E+00  0.00000000E+00  0.00000000E+00
  0.00000000E+00  0.00000000E+00  0.00000000E+00  0.00000000E+00  0.00000000E+00
  0.00000000E+00  0.00000000E+00  0.00000000E+00  0.00000000E+00  0.00000000E+00
  0.00000000E+00  0.00000000E+00  0.00000000E+00  0.00000000E+00  0.00000000E+00
  0.00000000E+00  0.00000000E+00  0.00000000E+00  0.00000000E+00  0.00000000E+00
  0.00000000E+00  0.00000000E+00  0.00000000E+00  0.00000000E+00  0.00000000E+00
  0.00000000E+00  0.00000000E+00  0.00000000E+00  0.00000000E+00  0.00000000E+00
IOpCl                                      I                0
IROHF                                      I                0
Alpha Orbital Energies                     R   N=          98
 -1.17714629E+03 -1.80853721E+02 -1.69660263E+02 -1.69659414E+02 -1.69659414E+02
 -3.79076618E+01 -3.30956533E+01 -3.30916607E+01 -3.30916607E+01 -2.42797426E+01
 -2.42783663E+01 -2.42783663E+01 -2.42746320E+01 -2.42746320E+01 -1.12856894E+01
 -7.22464334E+00 -5.45766353E+00 -5.44724241E+00 -5.44724240E+00 -2.38106899E+00
 -2.37597729E+00 -2.37597728E+00 -2.36421798E+00 -2.36421798E+00 -9.95400242E-01
 -7.98633980E-01 -6.06732218E-01 -6.06724803E-01 -4.65945916E-01 -3.62218795E-01
 -3.62218413E-01  9.43350339E-02  1.75349728E-01  2.08260518E-01  2.08260664E-01
  3.24332706E-01  3.35051930E-01  3.35051934E-01  3.92200594E-01  3.92203883E-01
  4.01560476E-01  5.67034771E-01  5.92740661E-01  5.92740781E-01  6.75088439E-01
  6.75093768E-01  7.73155587E-01  7.79571976E-01  7.79574903E-01  8.60788203E-01
  1.00618073E+00  1.28460378E+00  1.28461109E+00  1.54896196E+00  1.54896224E+00
  1.62352269E+00  1.67700112E+00  1.71521945E+00  1.71522081E+00  1.79071827E+00
  1.95591127E+00  1.95591399E+00  2.19240775E+00  2.40085054E+00  2.40085912E+00
  2.64444548E+00  2.70699121E+00  2.70700123E+00  2.84105460E+00  2.84105530E+00
  3.06006963E+00  3.24756938E+00  4.08488784E+00  4.08492150E+00  4.50528512E+00
  4.50528521E+00  4.57443420E+00  4.57443718E+00  4.67177597E+00  4.78636604E+00
  6.54143825E+00  6.54143861E+00  6.60380656E+00  2.49928110E+01  2.87936326E+01
  2.95417237E+01  2.95417240E+01  2.95854490E+01  2.98980325E+01  2.98980326E+01
  2.99260537E+01  2.99260548E+01  3.00306348E+01  1.30604791E+02  1.30604791E+02
  1.30645960E+02  1.54203288E+02  1.91211699E+03
Alpha MO coefficients                      R   N=        9604
  4.76852211E-01  6.02917159E-01  9.14107348E-03 -1.29917653E-04 -1.23538744E-04
  4.44407075E-05 -1.75538498E-05  1.11311905E-05 -2.81448283E-06  1.06825725E-06
  2.05995005E-06 -6.07295920E-14 -2.60432515E-12 -1.99682012E-06  3.69741868E-14
  2.82726454E-12  1.91169669E-06 -4.08371328E-14 -2.61563142E-12 -1.29234373E-06
  3.25536466E-14  1.64812489E-12  7.19079521E-07 -2.52898933E-14 -7.18580608E-13
 -4.63276703E-07  2.77754593E-14  1.61354243E-13  4.40761523E-07 -3.62490792E-14
  2.49915785E-13 -5.00778316E-07  3.56220354E-14 -4.44844085E-13  2.98226383E-07
  5.10504081E-14 -7.13798273E-13 -9.00065135E-08 -4.96101468E-13  4.73540757E-15
  1.55895665E-07  6.22617614E-15  1.88141062E-08  1.93017330E-13 -2.07809540E-15
 -3.25868547E-08 -7.14826394E-15  2.84925870E-08 -6.71294135E-14  3.88219217E-16
 -4.93507365E-08  1.27160521E-14 -2.47140262E-08  2.79706205E-13 -1.02836288E-15
  4.28061719E-08 -2.50731393E-14  2.63209933E-08 -8.12124029E-13  2.83930743E-15
 -4.55897153E-08  5.67619374E-14 -1.54152813E-09  5.61610134E-09  7.45548574E-08
 -1.23537051E-15 -2.59936857E-13 -1.00634192E-07 -1.55531567E-07 -2.02652858E-14
  1.30593342E-12  4.05727722E-07  7.99676862E-08 -3.81279907E-13  5.93374355E-12
 -4.38952887E-08  4.70564113E-13 -3.76729523E-14  7.60286900E-08 -8.79643513E-15
  2.91078478E-08 -7.71038079E-08 -1.45206644E-07  3.27459692E-08  1.30154563E-09
  8.04302743E-10  2.91077688E-08 -7.71036296E-08 -1.45206613E-07  3.27459776E-08
 -1.34788640E-09  7.23880846E-10  2.91082396E-08 -7.71091588E-08 -1.45205602E-07
  3.27465534E-08  4.64074556E-11 -1.52843557E-09 -1.75578972E-01 -3.73413662E-01
  5.46227531E-01  5.64830782E-01  9.83660605E-02 -2.95394755E-02  1.13879400E-02
 -5.25785192E-03  1.33070336E-03 -5.44760429E-04  1.83522709E-04 -1.06004827E-11
 -1.45794121E-10  8.65265205E-05 -5.37892156E-12 -5.81166279E-11 -9.59458656E-07
  1.63930969E-12 -3.87668662E-11  1.74156329E-05 -3.64362122E-12  5.78921949E-11
 -2.71099923E-05  5.71686369E-12 -9.89559102E-11  4.75073913E-05 -8.54532869E-12
  1.51114316E-10 -1.12568738E-04  1.28734330E-11 -2.29948205E-10  1.85328825E-04
 -1.28290587E-11  2.55789609E-10 -1.32702048E-04 -2.48386854E-11  3.18591823E-10
 -5.85950916E-06 -2.03903805E-11  2.65041786E-13  1.01489634E-05 -1.50295671E-13
  2.13129222E-06 -2.42091850E-11  5.80683327E-14 -3.69152717E-06  2.15138133E-12
 -3.73084816E-06  6.83727675E-11 -2.32942337E-13  6.46207236E-06 -5.46930047E-12
  5.59524663E-06 -1.47592551E-10  5.81013141E-13 -9.69135906E-06  1.09075422E-11
 -1.35315449E-05  3.51427074E-10 -1.23206061E-12  2.34375248E-05 -2.46847732E-11
  1.15543334E-06 -2.64832706E-06 -3.64353070E-05  2.26988680E-12  1.00459085E-10
  4.83662400E-05  8.18929528E-05 -1.12925029E-13 -5.51775677E-10 -1.81676384E-04
 -4.41133490E-05  1.65741725E-10 -2.63981032E-09  2.34649430E-05 -1.48958807E-10
  2.20657301E-11 -4.06425318E-05 -2.63861951E-12 -1.40566795E-05  3.24684771E-05
  7.06260510E-05 -1.52806942E-05 -1.98078674E-06 -1.22486536E-06 -1.40566402E-05
  3.24684066E-05  7.06260468E-05 -1.52807029E-05  2.05140163E-06 -1.10247316E-06
 -1.40568297E-05  3.24708764E-05  7.06254704E-05 -1.52809457E-05 -7.06497025E-08
  2.32746007E-06  4.50169629E-05  9.62407461E-05 -1.49994068E-04 -1.37420289E-04
 -1.53278771E-05  2.83181005E-06 -2.37497996E-07 -1.98077650E-06 -1.10085635E-07
  9.16251247E-06  7.77946078E-01  2.73330973E-08 -1.21267983E-06  2.76030929E-01
  9.69776000E-09 -4.30278852E-07  3.13069679E-02  1.10014876E-09 -4.88078216E-08
  7.79594704E-04  2.70178181E-11 -1.20528714E-09 -5.37403419E-04 -1.82689228E-11
  8.21155186E-10  2.30364440E-04  7.13718035E-12 -3.32321945E-10 -1.62730441E-04
 -3.81995989E-12  2.03062902E-10  9.71700507E-05  9.56328197E-13 -8.28583123E-11
 -2.42290183E-05 -3.70371260E-12  5.87996217E-11 -7.70688746E-06 -2.83819371E-11
  2.87820778E-14  1.33487176E-05 -4.94299851E-13  1.93825922E-06  2.42165869E-12
  1.58848470E-15 -3.35716373E-06  4.44172392E-13 -1.00404003E-06  8.80504059E-12
 -2.85311836E-14  1.73905162E-06 -8.53335740E-13  1.35235764E-06 -1.93544511E-11
 -5.70563806E-14 -2.34235516E-06  1.58648445E-12 -3.06391725E-06  4.58472819E-11
  1.90722343E-13  5.30686351E-06 -3.60280750E-12 -4.25938690E-07  9.75187721E-07
  6.85026229E-07 -3.01454054E-12  2.70226864E-11 -1.43062991E-07  1.23475139E-06
  1.87755051E-11 -1.35318289E-10 -2.71126459E-05  6.13786780E-06  2.30102326E-11
 -4.02136637E-10 -5.21426675E-07 -8.54348669E-11 -4.33376454E-12  9.03266420E-07
  7.58133713E-12 -3.20845408E-07  7.22591208E-06  2.81178917E-06 -1.11678718E-06
  1.16543879E-06  7.20926779E-07 -3.20843543E-07  7.22588087E-06  2.81179725E-06
 -1.11678111E-06 -1.20701028E-06  6.48912508E-07 -3.20896152E-07  7.22625453E-06
  2.81186138E-06 -1.11684000E-06  4.15757327E-08 -1.36983904E-06 -3.28263430E-12
 -7.00013074E-12  1.08091797E-11  9.92721431E-12  1.73095274E-12 -5.03984200E-13
  3.26939313E-14  7.41250343E-14  6.43736242E-13 -2.62817421E-12  3.22267773E-09
  7.77715316E-01  1.95962426E-02  1.14286620E-09  2.75923325E-01  6.95249315E-03
  1.29843063E-10  3.13018244E-02  7.88718097E-04  2.89234545E-12  7.71636795E-04
  1.94430808E-05 -1.70226970E-12 -5.31215522E-04 -1.33851395E-05  1.90118476E-13
  2.23289063E-04  5.62625704E-06  7.68629062E-13 -1.51294833E-04 -3.81220417E-06
 -2.05194327E-12  8.13658061E-05  2.05018865E-06 -7.20413377E-13 -2.39028524E-05
 -6.02284348E-07 -2.77257843E-09  4.10985980E-07 -4.86135883E-08 -1.59980589E-09
  1.63108169E-05  7.96406959E-10 -1.23728107E-07  1.39791712E-08  4.59556685E-10
 -4.91040381E-06  1.27399822E-10  8.68337594E-08  2.19445208E-09  7.36359310E-11
  3.44617053E-06 -4.03506793E-09 -4.45920397E-08 -7.06489948E-08 -2.32943635E-09
 -1.76972911E-06  1.00122466E-08  1.94602850E-08  1.75340704E-07  5.77953390E-09
  7.72340150E-07  9.96680623E-14 -2.59381654E-13  1.31484446E-14  2.08115832E-07
  5.24413712E-09 -5.00517802E-13  1.03605725E-12 -2.30883436E-07 -5.81814073E-09
  1.49440880E-11  1.73339969E-12 -3.86678251E-06 -9.74273495E-08  7.40535347E-09
  2.93590344E-08  1.29683098E-07  4.27389492E-09  1.16515472E-06 -3.85209995E-07
  1.34259989E-07 -4.88623773E-06  2.32948789E-07  3.27435164E-07 -1.66474389E-07
  3.87509948E-07 -1.35071268E-07  4.91538747E-06 -2.34337054E-07  3.15112375E-07
  1.80596946E-07 -2.29705817E-09  7.93371650E-10 -2.91516875E-08  1.39042453E-09
  6.21848812E-07  1.77366209E-08  3.41130699E-11  7.24800816E-11 -1.08705402E-10
 -1.07854280E-10 -1.30279388E-11 -6.98261893E-12  2.05367061E-11 -2.15069830E-11
  4.30555547E-12  5.43061691E-11  1.21300510E-06 -1.95962426E-02  7.77715316E-01
  4.30362967E-07 -6.95249315E-03  2.75923325E-01  4.88155105E-08 -7.88718097E-04
  3.13018244E-02  1.21384017E-09 -1.94430808E-05  7.71636781E-04 -8.45557082E-10
  1.33851396E-05 -5.31215503E-04  3.75423836E-10 -5.62625723E-06  2.23289032E-04
 -2.88314802E-10  3.81220449E-06 -1.51294776E-04  2.14808761E-10 -2.05018913E-06
  8.13657266E-05 -3.97829468E-11  6.02285015E-07 -2.39028446E-05  4.20601955E-08
  1.63108207E-05 -3.20233066E-09  2.43266725E-08 -4.10986124E-07 -1.20925709E-08
 -4.91040220E-06  9.19833447E-10 -6.99644813E-09  1.23728165E-07 -1.91237079E-09
  3.44616267E-06  1.47039746E-10 -1.09062324E-09 -8.68337947E-08  6.11929431E-08
 -1.76971028E-06 -4.65912487E-09  3.53160494E-08  4.45919684E-08 -1.51864795E-07
  7.72291732E-07  1.15605933E-08 -8.76477095E-08 -1.94600485E-08 -2.43521822E-12
  6.17797440E-12  1.57083673E-12 -5.24388949E-09  2.08122274E-07  1.04362007E-11
 -3.25836818E-11  5.81733653E-09 -2.30894904E-07 -3.31849579E-10 -1.98966620E-11
  9.74271943E-08 -3.86640175E-06 -1.12309684E-07  1.16517937E-06  8.54922454E-09
 -6.48074817E-08 -2.93588472E-08 -2.25082925E-07  7.86799721E-08 -2.85463248E-06
  1.36072076E-07 -1.87659129E-07  5.15495682E-07 -2.21102540E-07  7.72881455E-08
 -2.80414944E-06  1.33665343E-07  1.59304869E-07  5.27815457E-07  4.46136564E-07
 -1.55563458E-07  5.65884135E-06 -2.69782858E-07 -3.50473531E-09  2.21072753E-07
  7.94152111E-02  1.86015277E-01 -4.05907570E-01 -6.11104583E-01  5.68076443E-01
  7.34003217E-01  7.87032494E-02 -1.04332761E-02  2.15807992E-03 -8.89716462E-04
 -3.97628910E-04  2.14676585E-11  2.54244826E-10 -8.20133556E-05  4.06423075E-12
  6.82679061E-11  5.16955595E-04 -2.84635712E-11 -3.41715729E-10  5.78695343E-04
 -3.26442349E-11 -3.30835228E-10  7.95825666E-05  5.09387577E-12 -2.48108930E-10
  6.45550349E-05 -1.10919531E-11  2.06310700E-10 -1.71689077E-04  1.76971018E-11
 -3.30435729E-10  2.90667694E-04 -1.84639946E-11  3.77976822E-10 -2.05538165E-04
 -3.92941321E-11  5.04133258E-10 -5.23101064E-05 -2.79170728E-10  3.37223483E-12
  9.06036126E-05  4.00157397E-12 -9.05548635E-05 -5.25395043E-10  5.24875547E-12
  1.56845392E-04  1.11237131E-11 -1.88634219E-05  6.08468359E-12  6.65071467E-13
  3.26724178E-05 -4.51052014E-12  5.10087942E-06 -2.29783374E-10  9.63533424E-13
 -8.83513680E-06  1.56015996E-11 -2.79850138E-05  5.05984922E-10 -1.73921571E-12
  4.84717685E-05 -3.72937476E-11  1.39336630E-06 -1.52159030E-06 -5.43284480E-05
  3.44805422E-12  1.45486324E-10  7.23598212E-05  1.39762580E-04  1.99213660E-12
 -8.79820137E-10 -2.90046539E-04 -6.67741615E-05  2.61903403E-10 -4.15667575E-09
  3.94041670E-05 -1.99825063E-10  3.45523577E-11 -6.82501839E-05 -6.30706557E-12
 -2.12213968E-05  5.01020980E-05  1.11704697E-04 -2.36625711E-05 -4.07923655E-06
 -2.52264589E-06 -2.12213360E-05  5.01019877E-05  1.11704690E-04 -2.36625845E-05
  4.22468353E-06 -2.27059491E-06 -2.12216223E-05  5.01058746E-05  1.11703778E-04
 -2.36629631E-05 -1.45501227E-07  4.79343267E-06 -8.80300309E-05 -2.07159143E-04
  4.62276825E-04  7.06847313E-04 -8.48377618E-04 -6.08375406E-04 -1.42373270E-04
  1.58524331E-04  6.55224516E-06 -4.53175673E-04 -4.10723000E-01 -1.49746574E-08
  6.60684008E-07 -6.39305717E-02 -2.32760540E-09  1.02785865E-07  5.84296807E-01
  2.12951531E-08 -9.39727182E-07  4.70801600E-01  1.71801647E-08 -7.57647818E-07
  8.06813205E-02  2.90181967E-09 -1.29068793E-07 -1.53284065E-02 -4.89586211E-10
  2.33889143E-08  8.64458766E-03  1.75744987E-10 -1.13797204E-08 -5.08024569E-03
  3.35134036E-12  4.67909174E-09  1.27727086E-03  1.49500589E-10 -3.11740573E-09
 -1.55564470E-04 -7.15964530E-10 -9.18497469E-13  2.69445625E-04  1.06114071E-12
 -1.37403502E-04 -3.97820829E-10 -1.63018946E-12  2.37989911E-04 -1.37243822E-11
 -5.89316643E-06 -5.55251521E-10  1.81340081E-13  1.02071962E-05  3.55177938E-11
 -5.41364215E-05  9.40736674E-10  1.06937643E-13  9.37671341E-05 -7.67054682E-11
  1.45808489E-04 -2.33055578E-09 -8.51618964E-13 -2.52547888E-04  1.90140112E-10
  1.32911698E-05 -4.03362505E-05 -3.38268843E-05  1.10196319E-10 -1.27159721E-09
  3.19261157E-06 -6.96340527E-05 -7.66298106E-10  6.49569758E-09  1.38073437E-03
 -3.09007221E-04 -1.38784017E-09  2.05209868E-08  2.62765545E-05  4.21598552E-09
  1.88372804E-10 -4.55187820E-05 -3.56860006E-10  1.59880823E-05 -3.64527761E-04
 -1.49167734E-04  5.61235609E-05 -5.71652873E-05 -3.53618033E-05  1.59880257E-05
 -3.64526447E-04 -1.49167552E-04  5.61232737E-05  5.92044452E-05 -3.18294921E-05
  1.59906112E-05 -3.64544918E-04 -1.49171287E-04  5.61261853E-05 -2.03929957E-06
  6.71912099E-05  5.77941126E-12  1.35478474E-11 -2.98960991E-11 -4.70456778E-11
  5.77988751E-11  3.07892264E-11  2.84228386E-11 -2.48762734E-11 -1.15411998E-11
  1.04724661E-10  3.88055421E-10 -4.10691280E-01 -9.06581977E-03  6.24928632E-11
 -6.38792963E-02 -1.41010588E-03 -5.56434009E-10  5.84315754E-01  1.28984996E-02
 -4.36550438E-10  4.70621038E-01  1.03887414E-02 -1.00048834E-10  8.04324277E-02
  1.77550857E-03  5.46537186E-11 -1.50516954E-02 -3.32259190E-04 -9.00957101E-11
  8.10787241E-03  1.78977502E-04  1.43681946E-10 -4.30289418E-03 -9.49843588E-05
  4.92076450E-12  1.26348141E-03  2.78907542E-05  2.33366014E-08  5.28300678E-06
  3.90440859E-07  1.34841382E-08  2.39325191E-04 -1.20475844E-08  6.01495458E-06
 -2.02212751E-07 -6.94494408E-09  2.72483738E-04 -1.26805717E-07  1.12101883E-06
 -2.12001395E-06 -7.32033240E-08  5.07833643E-05  2.57361967E-07  2.94101888E-07
  4.30254483E-06  1.48573588E-07  1.33233235E-05 -5.34379776E-07 -4.67059238E-07
 -8.93373306E-06 -3.08471942E-07 -2.11589729E-05 -2.48677797E-12  7.92555961E-12
 -3.61874372E-12 -8.99922502E-06 -1.98656258E-07  5.09542432E-11 -4.32326416E-11
  9.36027460E-06  2.06619835E-07 -8.53044452E-10 -1.25800186E-10  1.91949757E-04
  4.23706631E-06 -3.11207592E-07 -1.29645063E-06 -5.20232665E-06 -1.79590822E-07
 -5.87297149E-05  1.92072733E-05 -1.23028014E-05  2.54879854E-04 -1.12045301E-05
 -1.72095047E-05  7.42772689E-06 -1.93917087E-05  1.24214164E-05 -2.57325939E-04
  1.13119936E-05 -1.66125239E-05 -8.02650816E-06  1.84297883E-07 -1.17695245E-07
  2.44629336E-06 -1.07572715E-07 -3.02948079E-05 -8.16578710E-07 -7.80789339E-11
 -1.80813268E-10  3.79601359E-10  6.95313242E-10 -9.49365519E-10 -6.57549267E-11
 -1.04490790E-09  1.04503418E-09 -2.24826576E-10 -2.68383413E-09 -6.60937299E-07
  9.06581977E-03 -4.10691280E-01 -1.02854623E-07  1.41010587E-03 -6.38792963E-02
  9.40520754E-07 -1.28984996E-02  5.84315753E-01  7.57064263E-07 -1.03887414E-02
  4.70621038E-01  1.30148024E-07 -1.77550857E-03  8.04324268E-02 -2.54633950E-08
  3.32259185E-04 -1.50516940E-02  1.55800282E-08 -1.78977492E-04  8.10786965E-03
 -1.12653276E-08  9.49843455E-05 -4.30289022E-03  2.16867077E-09 -2.78907702E-05