
    -----------------------------------------------------------------------
          Psi4: An Open-Source Ab Initio Electronic Structure Package
                               Psi4 1.3.2 release

                         Git: Rev {HEAD} ecbda83 


    R. M. Parrish, L. A. Burns, D. G. A. Smith, A. C. Simmonett,
    A. E. DePrince III, E. G. Hohenstein, U. Bozkaya, A. Yu. Sokolov,
    R. Di Remigio, R. M. Richard, J. F. Gonthier, A. M. James,
    H. R. McAlexander, A. Kumar, M. Saitow, X. Wang, B. P. Pritchard,
    P. Verma, H. F. Schaefer III, K. Patkowski, R. A. King, E. F. Valeev,
    F. A. Evangelista, J. M. Turney, T. D. Crawford, and C. D. Sherrill,
    J. Chem. Theory Comput. 13(7) pp 3185--3197 (2017).
    (doi: 10.1021/acs.jctc.7b00174)


                         Additional Contributions by
    P. Kraus, H. Kruse, M. H. Lechner, M. C. Schieber, R. A. Shaw,
    A. Alenaizan, R. Galvelis, Z. L. Glick, S. Lehtola, and J. P. Misiewicz

    -----------------------------------------------------------------------


    Psi4 started on: Tuesday, 02 February 2021 11:12PM

    Process ID: 11609
    Host:       node37.bme.utexas.edu
    PSIDATADIR: /home/xy3866/psi4conda/share/psi4
    Memory:     500.0 MiB
    Threads:    8
    
  ==> Input File <==

--------------------------------------------------------------------------
#psi4
#
memory 32 gb

molecule  {
0 1
  O        1.7630510    -0.6850120     0.0000440
  C        0.4866573    -0.1810657     0.0000110
  C        0.0381650     1.0640730    -0.0000210
  C       -0.4939010    -1.3032470     0.0000130
  C       -1.3314850     1.3526110    -0.0000590
  C       -1.8510560    -1.0002410    -0.0000260
  C       -2.2793230     0.3319890    -0.0000570
  C        2.7576030     0.3338520     0.0000720
  H        0.7532890     1.8795730    -0.0000260
  H       -0.1386390    -2.3300740     0.0000380
  H       -1.6510200     2.3922280    -0.0000820
  H       -2.5787280    -1.8083390    -0.0000230
  H       -3.3399740     0.5682180    -0.0000880
  H        2.6856690     0.9623970     0.8945570
  H        2.6857380     0.9623800    -0.8944310
  H        3.7115620    -0.1925360     0.0001130
units angstrom
no_reorient  #important for SAPT in psi4, default
symmetry c1  #important for SAPT in psi4, default
}

set PROPERTIES_ORIGIN ["COM"]
properties('MP2/aug-cc-pvtz', properties = ['dipole'])
--------------------------------------------------------------------------

  Memory set to  29.802 GiB by Python driver.
    SCF Algorithm Type (re)set to DF.

*** tstart() called on node37.bme.utexas.edu
*** at Tue Feb  2 23:12:41 2021

   => Loading Basis Set <=

    Name: AUG-CC-PVTZ
    Role: ORBITAL
    Keyword: BASIS
    atoms 1    entry O          line   327 file /home/xy3866/psi4conda/share/psi4/basis/aug-cc-pvtz.gbs 
    atoms 2-8  entry C          line   235 file /home/xy3866/psi4conda/share/psi4/basis/aug-cc-pvtz.gbs 
    atoms 9-16 entry H          line    36 file /home/xy3866/psi4conda/share/psi4/basis/aug-cc-pvtz.gbs 


         ---------------------------------------------------------
                                   SCF
               by Justin Turney, Rob Parrish, Andy Simmonett
                          and Daniel G. A. Smith
                              RHF Reference
                        8 Threads,  30517 MiB Core
         ---------------------------------------------------------

  ==> Geometry <==

    Molecular point group: c1
    Full point group: C1

    Geometry (in Angstrom), charge = 0, multiplicity = 1:

       Center              X                  Y                   Z               Mass       
    ------------   -----------------  -----------------  -----------------  -----------------
         O            1.779113541549    -0.672720759324     0.000044386553    15.994914619570
         C            0.502719841549    -0.168774459324     0.000011386553    12.000000000000
         C            0.054227541549     1.076364240676    -0.000020613447    12.000000000000
         C           -0.477838458451    -1.290955759324     0.000013386553    12.000000000000
         C           -1.315422458451     1.364902240676    -0.000058613447    12.000000000000
         C           -1.834993458451    -0.987949759324    -0.000025613447    12.000000000000
         C           -2.263260458451     0.344280240676    -0.000056613447    12.000000000000
         C            2.773665541549     0.346143240676     0.000072386553    12.000000000000
         H            0.769351541549     1.891864240676    -0.000025613447     1.007825032230
         H           -0.122576458451    -2.317782759324     0.000038386553     1.007825032230
         H           -1.634957458451     2.404519240676    -0.000081613447     1.007825032230
         H           -2.562665458451    -1.796047759324    -0.000022613447     1.007825032230
         H           -3.323911458451     0.580509240676    -0.000087613447     1.007825032230
         H            2.701731541549     0.974688240676     0.894557386553     1.007825032230
         H            2.701800541549     0.974671240676    -0.894430613447     1.007825032230
         H            3.727624541549    -0.180244759324     0.000113386553     1.007825032230

  Running in c1 symmetry.

  Rotational constants: A =      0.16805  B =      0.05221  C =      0.04014 [cm^-1]
  Rotational constants: A =   5037.88189  B =   1565.24279  C =   1203.38065 [MHz]
  Nuclear repulsion =  345.377377432958554

  Charge       = 0
  Multiplicity = 1
  Electrons    = 58
  Nalpha       = 29
  Nbeta        = 29

  ==> Algorithm <==

  SCF Algorithm Type is DF.
  DIIS enabled.
  MOM disabled.
  Fractional occupation disabled.
  Guess Type is SAD.
  Energy threshold   = 1.00e-10
  Density threshold  = 1.00e-10
  Integral threshold = 0.00e+00

  ==> Primary Basis <==

  Basis Set: AUG-CC-PVTZ
    Blend: AUG-CC-PVTZ
    Number of shells: 184
    Number of basis function: 552
    Number of Cartesian functions: 640
    Spherical Harmonics?: true
    Max angular momentum: 3

   => Loading Basis Set <=

    Name: (AUG-CC-PVTZ AUX)
    Role: JKFIT
    Keyword: DF_BASIS_SCF
    atoms 1    entry O          line   286 file /home/xy3866/psi4conda/share/psi4/basis/aug-cc-pvtz-jkfit.gbs 
    atoms 2-8  entry C          line   162 file /home/xy3866/psi4conda/share/psi4/basis/aug-cc-pvtz-jkfit.gbs 
    atoms 9-16 entry H          line    70 file /home/xy3866/psi4conda/share/psi4/basis/aug-cc-pvtz-jkfit.gbs 

  ==> Pre-Iterations <==

   -------------------------------------------------------
    Irrep   Nso     Nmo     Nalpha   Nbeta   Ndocc  Nsocc
   -------------------------------------------------------
     A        552     552       0       0       0       0
   -------------------------------------------------------
    Total     552     552      29      29      29       0
   -------------------------------------------------------

  ==> Integral Setup <==

  DFHelper Memory: AOs need 2.703 GiB; user supplied 22.352 GiB. Using in-core AOs.

  ==> MemDFJK: Density-Fitted J/K Matrices <==

    J tasked:                   Yes
    K tasked:                   Yes
    wK tasked:                   No
    OpenMP threads:               8
    Memory [MiB]:             22888
    Algorithm:                 Disk
    Schwarz Cutoff:           1E-12
    Mask sparsity (%):       4.0800
    Fitting Condition:        1E-10

   => Auxiliary Basis Set <=

  Basis Set: (AUG-CC-PVTZ AUX)
    Blend: AUG-CC-PVTZ-JKFIT
    Number of shells: 352
    Number of basis function: 1200
    Number of Cartesian functions: 1488
    Spherical Harmonics?: true
    Max angular momentum: 4

  Minimum eigenvalue in the overlap matrix is 6.5688401356E-07.
  Using Symmetric Orthogonalization.

  SCF Guess: Superposition of Atomic Densities via on-the-fly atomic UHF.

  ==> Iterations <==

                           Total Energy        Delta E     RMS |[F,P]|

   @DF-RHF iter SAD:  -344.00426914510240   -3.44004e+02   0.00000e+00 
   @DF-RHF iter   1:  -344.47169371242927   -4.67425e-01   1.09030e-03 DIIS
   @DF-RHF iter   2:  -344.65212611504495   -1.80432e-01   4.91607e-04 DIIS
   @DF-RHF iter   3:  -344.68842987308875   -3.63038e-02   1.00202e-04 DIIS
   @DF-RHF iter   4:  -344.69089927652647   -2.46940e-03   3.29671e-05 DIIS
   @DF-RHF iter   5:  -344.69110013200265   -2.00855e-04   9.98500e-06 DIIS
   @DF-RHF iter   6:  -344.69112796534313   -2.78333e-05   3.42444e-06 DIIS
   @DF-RHF iter   7:  -344.69113367105689   -5.70571e-06   1.37602e-06 DIIS
   @DF-RHF iter   8:  -344.69113513344450   -1.46239e-06   5.68527e-07 DIIS
   @DF-RHF iter   9:  -344.69113549869917   -3.65255e-07   2.05971e-07 DIIS
   @DF-RHF iter  10:  -344.69113553658275   -3.78836e-08   9.27313e-08 DIIS
   @DF-RHF iter  11:  -344.69113554249259   -5.90984e-09   3.52576e-08 DIIS
   @DF-RHF iter  12:  -344.69113554315066   -6.58076e-10   1.06494e-08 DIIS
   @DF-RHF iter  13:  -344.69113554319335   -4.26894e-11   4.35117e-09 DIIS
   @DF-RHF iter  14:  -344.69113554320222   -8.86757e-12   1.88987e-09 DIIS
   @DF-RHF iter  15:  -344.69113554320688   -4.66116e-12   8.93836e-10 DIIS
   @DF-RHF iter  16:  -344.69113554320796   -1.08002e-12   4.53208e-10 DIIS
   @DF-RHF iter  17:  -344.69113554320745    5.11591e-13   1.21707e-10 DIIS
   @DF-RHF iter  18:  -344.69113554320631    1.13687e-12   5.32405e-11 DIIS
  Energy and wave function converged.


  ==> Post-Iterations <==

    Orbital Energies [Eh]
    ---------------------

    Doubly Occupied:                                                      

       1A    -20.590055     2A    -11.299853     3A    -11.283734  
       4A    -11.241117     5A    -11.237251     6A    -11.235793  
       7A    -11.228158     8A    -11.224362     9A     -1.409521  
      10A     -1.144898    11A     -1.024409    12A     -1.008293  
      13A     -0.940792    14A     -0.835030    15A     -0.799757  
      16A     -0.719820    17A     -0.666146    18A     -0.658897  
      19A     -0.655789    20A     -0.621316    21A     -0.581546  
      22A     -0.571087    23A     -0.527388    24A     -0.524673  
      25A     -0.511583    26A     -0.479565    27A     -0.468306  
      28A     -0.346377    29A     -0.308771  

    Virtual:                                                              

      30A      0.028010    31A      0.032892    32A      0.035221  
      33A      0.046321    34A      0.046655    35A      0.048557  
      36A      0.061934    37A      0.076280    38A      0.085511  
      39A      0.098755    40A      0.105236    41A      0.106660  
      42A      0.113772    43A      0.114860    44A      0.117658  
      45A      0.118746    46A      0.126997    47A      0.131107  
      48A      0.133931    49A      0.138092    50A      0.139800  
      51A      0.143845    52A      0.145402    53A      0.148882  
      54A      0.154206    55A      0.157907    56A      0.163959  
      57A      0.164434    58A      0.174687    59A      0.182212  
      60A      0.194583    61A      0.204352    62A      0.217520  
      63A      0.227910    64A      0.240410    65A      0.243796  
      66A      0.247823    67A      0.249766    68A      0.259923  
      69A      0.269226    70A      0.271350    71A      0.286720  
      72A      0.293325    73A      0.294160    74A      0.296853  
      75A      0.308986    76A      0.310755    77A      0.318941  
      78A      0.322930    79A      0.324385    80A      0.328358  
      81A      0.330259    82A      0.331298    83A      0.336052  
      84A      0.346216    85A      0.352000    86A      0.356913  
      87A      0.365194    88A      0.371593    89A      0.381514  
      90A      0.381719    91A      0.386329    92A      0.393549  
      93A      0.407492    94A      0.418895    95A      0.419733  
      96A      0.428213    97A      0.435081    98A      0.439092  
      99A      0.442870   100A      0.447108   101A      0.450587  
     102A      0.459259   103A      0.466717   104A      0.467664  
     105A      0.477164   106A      0.477182   107A      0.483685  
     108A      0.483948   109A      0.489658   110A      0.495244  
     111A      0.499459   112A      0.506314   113A      0.509788  
     114A      0.513916   115A      0.523814   116A      0.526871  
     117A      0.529631   118A      0.532842   119A      0.538137  
     120A      0.545402   121A      0.551051   122A      0.554789  
     123A      0.566771   124A      0.567338   125A      0.568044  
     126A      0.582321   127A      0.595555   128A      0.603012  
     129A      0.617680   130A      0.632246   131A      0.639303  
     132A      0.650838   133A      0.652757   134A      0.656474  
     135A      0.663547   136A      0.670163   137A      0.680673  
     138A      0.689743   139A      0.705511   140A      0.708466  
     141A      0.714853   142A      0.722631   143A      0.729527  
     144A      0.740052   145A      0.748232   146A      0.757500  
     147A      0.768201   148A      0.779343   149A      0.800581  
     150A      0.801655   151A      0.819713   152A      0.820608  
     153A      0.825874   154A      0.837005   155A      0.847528  
     156A      0.855343   157A      0.869144   158A      0.870833  
     159A      0.875383   160A      0.879015   161A      0.884770  
     162A      0.890484   163A      0.896515   164A      0.900514  
     165A      0.903259   166A      0.910801   167A      0.911758  
     168A      0.921005   169A      0.928147   170A      0.930238  
     171A      0.936373   172A      0.942449   173A      0.948252  
     174A      0.971447   175A      0.973925   176A      0.979992  
     177A      0.986601   178A      1.000951   179A      1.005627  
     180A      1.006362   181A      1.012701   182A      1.019948  
     183A      1.023123   184A      1.024824   185A      1.036718  
     186A      1.039615   187A      1.049823   188A      1.056281  
     189A      1.070087   190A      1.071991   191A      1.081698  
     192A      1.083367   193A      1.088213   194A      1.094157  
     195A      1.097281   196A      1.110083   197A      1.114892  
     198A      1.126933   199A      1.141255   200A      1.146051  
     201A      1.151064   202A      1.158424   203A      1.165017  
     204A      1.172298   205A      1.177844   206A      1.186002  
     207A      1.188426   208A      1.193263   209A      1.206106  
     210A      1.219405   211A      1.222297   212A      1.227085  
     213A      1.232951   214A      1.237438   215A      1.237725  
     216A      1.242733   217A      1.243602   218A      1.253891  
     219A      1.264799   220A      1.277074   221A      1.293396  
     222A      1.304949   223A      1.313980   224A      1.330123  
     225A      1.337126   226A      1.349452   227A      1.350116  
     228A      1.358386   229A      1.383826   230A      1.394491  
     231A      1.403475   232A      1.417757   233A      1.425710  
     234A      1.428642   235A      1.433804   236A      1.467611  
     237A      1.471014   238A      1.484857   239A      1.497705  
     240A      1.512715   241A      1.520441   242A      1.525848  
     243A      1.540647   244A      1.543450   245A      1.556885  
     246A      1.563485   247A      1.572141   248A      1.582310  
     249A      1.614682   250A      1.617670   251A      1.636310  
     252A      1.646027   253A      1.663936   254A      1.665286  
     255A      1.675104   256A      1.690018   257A      1.698514  
     258A      1.702671   259A      1.711040   260A      1.724588  
     261A      1.731196   262A      1.735803   263A      1.744160  
     264A      1.755961   265A      1.773371   266A      1.783720  
     267A      1.805952   268A      1.826526   269A      1.826654  
     270A      1.834641   271A      1.845027   272A      1.853913  
     273A      1.854828   274A      1.863794   275A      1.867355  
     276A      1.881786   277A      1.887037   278A      1.891666  
     279A      1.908625   280A      1.915198   281A      1.941722  
     282A      1.967992   283A      1.975985   284A      1.985683  
     285A      2.001859   286A      2.012474   287A      2.015669  
     288A      2.016286   289A      2.022944   290A      2.041540  
     291A      2.042328   292A      2.053011   293A      2.059154  
     294A      2.086297   295A      2.100913   296A      2.103075  
     297A      2.106051   298A      2.111504   299A      2.121642  
     300A      2.141575   301A      2.147200   302A      2.154720  
     303A      2.160199   304A      2.195846   305A      2.220333  
     306A      2.221891   307A      2.230164   308A      2.243934  
     309A      2.259593   310A      2.274077   311A      2.276018  
     312A      2.303962   313A      2.333491   314A      2.333589  
     315A      2.371231   316A      2.388058   317A      2.405617  
     318A      2.411287   319A      2.425915   320A      2.429640  
     321A      2.469010   322A      2.476227   323A      2.487085  
     324A      2.546445   325A      2.568158   326A      2.590483  
     327A      2.595064   328A      2.602857   329A      2.648256  
     330A      2.662310   331A      2.665132   332A      2.702522  
     333A      2.711405   334A      2.744716   335A      2.750617  
     336A      2.776105   337A      2.799070   338A      2.807912  
     339A      2.841728   340A      2.855481   341A      2.910585  
     342A      2.925986   343A      2.978286   344A      3.006321  
     345A      3.022582   346A      3.043455   347A      3.078917  
     348A      3.093700   349A      3.118974   350A      3.198006  
     351A      3.199182   352A      3.216967   353A      3.232601  
     354A      3.259344   355A      3.273367   356A      3.306524  
     357A      3.337935   358A      3.340537   359A      3.345742  
     360A      3.362219   361A      3.397858   362A      3.407489  
     363A      3.412012   364A      3.416902   365A      3.445600  
     366A      3.445634   367A      3.447550   368A      3.478331  
     369A      3.488867   370A      3.501628   371A      3.504646  
     372A      3.543356   373A      3.548831   374A      3.557616  
     375A      3.564364   376A      3.576774   377A      3.581054  
     378A      3.588227   379A      3.598332   380A      3.603326  
     381A      3.627327   382A      3.664231   383A      3.675164  
     384A      3.691447   385A      3.694669   386A      3.707448  
     387A      3.723966   388A      3.729302   389A      3.755805  
     390A      3.758342   391A      3.788836   392A      3.804484  
     393A      3.811816   394A      3.827188   395A      3.835157  
     396A      3.840717   397A      3.866549   398A      3.877764  
     399A      3.893123   400A      3.897182   401A      3.906819  
     402A      3.907697   403A      3.929933   404A      3.940055  
     405A      3.955868   406A      3.957450   407A      3.978159  
     408A      3.985491   409A      3.994523   410A      4.023123  
     411A      4.025037   412A      4.037274   413A      4.059482  
     414A      4.088485   415A      4.090141   416A      4.098057  
     417A      4.120619   418A      4.122827   419A      4.130144  
     420A      4.138400   421A      4.172756   422A      4.189783  
     423A      4.205543   424A      4.208949   425A      4.231642  
     426A      4.249179   427A      4.269031   428A      4.274384  
     429A      4.279050   430A      4.300176   431A      4.303207  
     432A      4.307301   433A      4.310266   434A      4.341052  
     435A      4.354625   436A      4.373072   437A      4.384692  
     438A      4.405107   439A      4.413901   440A      4.419618  
     441A      4.426084   442A      4.435412   443A      4.460968  
     444A      4.476654   445A      4.487618   446A      4.489679  
     447A      4.511509   448A      4.533595   449A      4.566109  
     450A      4.592715   451A      4.600418   452A      4.630414  
     453A      4.643706   454A      4.668883   455A      4.680573  
     456A      4.687225   457A      4.743212   458A      4.754010  
     459A      4.774462   460A      4.779747   461A      4.800317  
     462A      4.806979   463A      4.842146   464A      4.848561  
     465A      4.856973   466A      4.888836   467A      4.924321  
     468A      4.941909   469A      4.948972   470A      4.966329  
     471A      4.981463   472A      4.986211   473A      4.997832  
     474A      5.036524   475A      5.047007   476A      5.076648  
     477A      5.085868   478A      5.090886   479A      5.112229  
     480A      5.124159   481A      5.142239   482A      5.148442  
     483A      5.153620   484A      5.168330   485A      5.191119  
     486A      5.198861   487A      5.220426   488A      5.264701  
     489A      5.294105   490A      5.308772   491A      5.335206  
     492A      5.356218   493A      5.369129   494A      5.384941  
     495A      5.405594   496A      5.425393   497A      5.446657  
     498A      5.454472   499A      5.497328   500A      5.519643  
     501A      5.588724   502A      5.592028   503A      5.622394  
     504A      5.668022   505A      5.673267   506A      5.720020  
     507A      5.760608   508A      5.775935   509A      5.792954  
     510A      5.839514   511A      5.910505   512A      6.016018  
     513A      6.061867   514A      6.079066   515A      6.100285  
     516A      6.162249   517A      6.165005   518A      6.204659  
     519A      6.230618   520A      6.325829   521A      6.352382  
     522A      6.414320   523A      6.466584   524A      6.600642  
     525A      6.664842   526A      6.679124   527A      6.746317  
     528A      6.799644   529A      6.892506   530A      6.953480  
     531A      6.971540   532A      6.998076   533A      7.111985  
     534A      7.142808   535A      7.160155   536A      7.223435  
     537A      7.478786   538A      7.559172   539A      7.601507  
     540A      7.764529   541A      7.893645   542A      7.925648  
     543A      8.430289   544A      8.578320   545A     15.811657  
     546A     16.321869   547A     16.613303   548A     17.803869  
     549A     18.574616   550A     19.351833   551A     19.761541  
     552A     20.006773  

    Final Occupation by Irrep:
              A 
    DOCC [    29 ]

  @DF-RHF Final Energy:  -344.69113554320631

   => Energetics <=

    Nuclear Repulsion Energy =            345.3773774329585535
    One-Electron Energy =               -1151.8484489573631890
    Two-Electron Energy =                 461.7799359811982640
    Total Energy =                       -344.6911355432063147

Computation Completed

*** tstop() called on node37.bme.utexas.edu at Tue Feb  2 23:13:58 2021
Module time:
	user time   =     272.50 seconds =       4.54 minutes
	system time =      61.32 seconds =       1.02 minutes
	total time  =         77 seconds =       1.28 minutes
Total time:
	user time   =     272.50 seconds =       4.54 minutes
	system time =      61.32 seconds =       1.02 minutes
	total time  =         77 seconds =       1.28 minutes
   => Loading Basis Set <=

    Name: (AUG-CC-PVTZ AUX)
    Role: RIFIT
    Keyword: DF_BASIS_MP2
    atoms 1    entry O          line   264 file /home/xy3866/psi4conda/share/psi4/basis/aug-cc-pvtz-ri.gbs 
    atoms 2-8  entry C          line   148 file /home/xy3866/psi4conda/share/psi4/basis/aug-cc-pvtz-ri.gbs 
    atoms 9-16 entry H          line    30 file /home/xy3866/psi4conda/share/psi4/basis/aug-cc-pvtz-ri.gbs 


*** tstart() called on node37.bme.utexas.edu
*** at Tue Feb  2 23:13:58 2021


  //>>>>>>>>>>>>>>>>>>>>>>>>>>>>>>>>>>>//
  //               DFMP2               //
  //<<<<<<<<<<<<<<<<<<<<<<<<<<<<<<<<<<<//

	 --------------------------------------------------------
	                          DF-MP2                         
	      2nd-Order Density-Fitted Moller-Plesset Theory     
	              RMP2 Wavefunction,   8 Threads             
	                                                         
	        Rob Parrish, Justin Turney, Andy Simmonett,      
	           Ed Hohenstein, and C. David Sherrill          
	 --------------------------------------------------------

   => Auxiliary Basis Set <=

  Basis Set: (AUG-CC-PVTZ AUX)
    Blend: AUG-CC-PVTZ-RI
    Number of shells: 336
    Number of basis function: 1216
    Number of Cartesian functions: 1528
    Spherical Harmonics?: true
    Max angular momentum: 4

	 --------------------------------------------------------
	                 NBF =   552, NAUX =  1216
	 --------------------------------------------------------
	   CLASS    FOCC     OCC    AOCC    AVIR     VIR    FVIR
	   PAIRS       0      29      29     523     523       0
	 --------------------------------------------------------

  DFHelper Memory: AOs need 2.703 GiB; user supplied 22.352 GiB. Using in-core AOs.


         ------------------------------------------------------------
                                     CPHF                           
                                  Rob Parrish                       
         ------------------------------------------------------------

  ==> Geometry <==

    Molecular point group: c1
    Full point group: C1

    Geometry (in Angstrom), charge = 0, multiplicity = 1:

       Center              X                  Y                   Z               Mass       
    ------------   -----------------  -----------------  -----------------  -----------------
         O            1.779113541549    -0.672720759324     0.000044386553    15.994914619570
         C            0.502719841549    -0.168774459324     0.000011386553    12.000000000000
         C            0.054227541549     1.076364240676    -0.000020613447    12.000000000000
         C           -0.477838458451    -1.290955759324     0.000013386553    12.000000000000
         C           -1.315422458451     1.364902240676    -0.000058613447    12.000000000000
         C           -1.834993458451    -0.987949759324    -0.000025613447    12.000000000000
         C           -2.263260458451     0.344280240676    -0.000056613447    12.000000000000
         C            2.773665541549     0.346143240676     0.000072386553    12.000000000000
         H            0.769351541549     1.891864240676    -0.000025613447     1.007825032230
         H           -0.122576458451    -2.317782759324     0.000038386553     1.007825032230
         H           -1.634957458451     2.404519240676    -0.000081613447     1.007825032230
         H           -2.562665458451    -1.796047759324    -0.000022613447     1.007825032230
         H           -3.323911458451     0.580509240676    -0.000087613447     1.007825032230
         H            2.701731541549     0.974688240676     0.894557386553     1.007825032230
         H            2.701800541549     0.974671240676    -0.894430613447     1.007825032230
         H            3.727624541549    -0.180244759324     0.000113386553     1.007825032230

  Nuclear repulsion =  345.377377432958554
  Reference energy  = -344.691135543206315

  ==> Basis Set <==

  Basis Set: AUG-CC-PVTZ
    Blend: AUG-CC-PVTZ
    Number of shells: 184
    Number of basis function: 552
    Number of Cartesian functions: 640
    Spherical Harmonics?: true
    Max angular momentum: 3

  ==> CGRSolver (by Rob Parrish) <==

   Number of roots    =         1
   Preconditioning    =    JACOBI
   Convergence cutoff =     1E-06
   Maximum iterations =       100

  ==> CPHFRHamiltonian (by Rob Parrish) <== 

  ==> MemDFJK: Density-Fitted J/K Matrices <==

    J tasked:                   Yes
    K tasked:                   Yes
    wK tasked:                   No
    OpenMP threads:               8
    Memory [MiB]:             22888
    Algorithm:                 Disk
    Schwarz Cutoff:           1E-12
    Mask sparsity (%):       4.0800
    Fitting Condition:        1E-10

   => Auxiliary Basis Set <=

  Basis Set: (AUG-CC-PVTZ AUX)
    Blend: AUG-CC-PVTZ-JKFIT
    Number of shells: 352
    Number of basis function: 1200
    Number of Cartesian functions: 1488
    Spherical Harmonics?: true
    Max angular momentum: 4

  ==> CPHF Iterations <==

  => Iterations <=

             Iter  Converged  Remaining    Residual
  CGR           1          0          1   9.563E-02
  CGR           2          0          1   2.850E-02
  CGR           3          0          1   1.659E-02
  CGR           4          0          1   6.526E-03
  CGR           5          0          1   2.406E-03
  CGR           6          0          1   1.058E-03
  CGR           7          0          1   3.535E-04
  CGR           8          0          1   1.279E-04
  CGR           9          0          1   5.629E-05
  CGR          10          0          1   2.765E-05
  CGR          11          0          1   1.164E-05
  CGR          12          0          1   3.608E-06
  CGR          13          0          1   1.099E-06
  CGR          14          1          0   3.532E-07

    CGRSolver converged.

	-----------------------------------------------------------
	 ==================> DF-MP2 Energies <==================== 
	-----------------------------------------------------------
	 Reference Energy          =    -344.6911355432063147 [Eh]
	 Singles Energy            =      -0.0000000000000000 [Eh]
	 Same-Spin Energy          =      -0.3656958523849725 [Eh]
	 Opposite-Spin Energy      =      -1.1614547819258694 [Eh]
	 Correlation Energy        =      -1.5271506343108419 [Eh]
	 Total Energy              =    -346.2182861775171432 [Eh]
	-----------------------------------------------------------
	 ================> DF-SCS-MP2 Energies <================== 
	-----------------------------------------------------------
	 SCS Same-Spin Scale       =       0.3333333333333333 [-]
	 SCS Opposite-Spin Scale   =       1.2000000000000000 [-]
	 SCS Same-Spin Energy      =      -0.1218986174616575 [Eh]
	 SCS Opposite-Spin Energy  =      -1.3937457383110432 [Eh]
	 SCS Correlation Energy    =      -1.5156443557727006 [Eh]
	 SCS Total Energy          =    -346.2067798989789935 [Eh]
	-----------------------------------------------------------



Properties will be evaluated at   0.000000,   0.000000,   0.000000 [a0]

Properties computed using the MP2 density matrix

  Nuclear Dipole Moment: [e a0]
     X:     2.1239      Y:     2.3706      Z:     0.0001

  Electronic Dipole Moment: [e a0]
     X:    -1.8204      Y:    -1.9427      Z:    -0.0000

  Dipole Moment: [e a0]
     X:     0.3034      Y:     0.4279      Z:     0.0000     Total:     0.5246

  Dipole Moment: [D]
     X:     0.7712      Y:     1.0876      Z:     0.0000     Total:     1.3333


*** tstop() called on node37.bme.utexas.edu at Tue Feb  2 23:16:09 2021
Module time:
	user time   =     609.25 seconds =      10.15 minutes
	system time =      82.59 seconds =       1.38 minutes
	total time  =        131 seconds =       2.18 minutes
Total time:
	user time   =     881.92 seconds =      14.70 minutes
	system time =     143.91 seconds =       2.40 minutes
	total time  =        208 seconds =       3.47 minutes

    Psi4 stopped on: Tuesday, 02 February 2021 11:16PM
    Psi4 wall time for execution: 0:03:27.41

*** Psi4 exiting successfully. Buy a developer a beer!
