010_Benzene Gaussian SP Calculation on node142.bme.utexas.edu           
Freq      RMP2-FC                                                     6-31G(d)            
Number of atoms                            I               12
Info1-9                                    I   N=           9
          23          22        1002           0           0         100
           6           2           1
Charge                                     I                0
Multiplicity                               I                1
Number of electrons                        I               42
Number of alpha electrons                  I               21
Number of beta electrons                   I               21
Number of basis functions                  I              102
Number of independent functions            I              102
Number of point charges in /Mol/           I                0
Number of translation vectors              I                0
Atomic numbers                             I   N=          12
           6           1           6           1           6           1
           6           1           6           1           6           1
Nuclear charges                            R   N=          12
  6.00000000E+00  1.00000000E+00  6.00000000E+00  1.00000000E+00  6.00000000E+00
  1.00000000E+00  6.00000000E+00  1.00000000E+00  6.00000000E+00  1.00000000E+00
  6.00000000E+00  1.00000000E+00
Current cartesian coordinates              R   N=          36
 -2.11017260E+00 -1.58569465E+00 -3.29766432E-05 -3.75297244E+00 -2.82017481E+00
  2.60200381E-05  3.18164362E-01 -2.62030527E+00  2.91261400E-05  5.65863460E-01
 -4.66025295E+00  2.45485437E-05  2.42833876E+00 -1.03461734E+00 -3.35915805E-05
  4.31883086E+00 -1.84008003E+00  1.49056229E-05  2.11017085E+00  1.58569386E+00
  2.97655179E-05  3.75297083E+00  2.82017716E+00 -5.00234271E-05 -3.18163669E-01
  2.62030804E+00 -2.59682557E-05 -5.65861599E-01  4.66025483E+00  7.47911908E-05
 -2.42833747E+00  1.03461537E+00  2.83363381E-05 -4.31883252E+00  1.84007578E+00
 -5.83910675E-05
Force Field                                I                0
Int Atom Types                             I   N=          12
           0           0           0           0           0           0
           0           0           0           0           0           0
MM charges                                 R   N=          12
  0.00000000E+00  0.00000000E+00  0.00000000E+00  0.00000000E+00  0.00000000E+00
  0.00000000E+00  0.00000000E+00  0.00000000E+00  0.00000000E+00  0.00000000E+00
  0.00000000E+00  0.00000000E+00
Integer atomic weights                     I   N=          12
          12           1          12           1          12           1
          12           1          12           1          12           1
Real atomic weights                        R   N=          12
  1.20000000E+01  1.00782504E+00  1.20000000E+01  1.00782504E+00  1.20000000E+01
  1.00782504E+00  1.20000000E+01  1.00782504E+00  1.20000000E+01  1.00782504E+00
  1.20000000E+01  1.00782504E+00
Atom fragment info                         I   N=          12
           0           0           0           0           0           0
           0           0           0           0           0           0
Atom residue num                           I   N=          12
           0           0           0           0           0           0
           0           0           0           0           0           0
Nuclear spins                              I   N=          12
           0           1           0           1           0           1
           0           1           0           1           0           1
Nuclear ZEff                               R   N=          12
 -3.60000000E+00 -1.00000000E+00 -3.60000000E+00 -1.00000000E+00 -3.60000000E+00
 -1.00000000E+00 -3.60000000E+00 -1.00000000E+00 -3.60000000E+00 -1.00000000E+00
 -3.60000000E+00 -1.00000000E+00
Nuclear QMom                               R   N=          12
  0.00000000E+00  0.00000000E+00  0.00000000E+00  0.00000000E+00  0.00000000E+00
  0.00000000E+00  0.00000000E+00  0.00000000E+00  0.00000000E+00  0.00000000E+00
  0.00000000E+00  0.00000000E+00
Nuclear GFac                               R   N=          12
  0.00000000E+00  2.79284600E+00  0.00000000E+00  2.79284600E+00  0.00000000E+00
  2.79284600E+00  0.00000000E+00  2.79284600E+00  0.00000000E+00  2.79284600E+00
  0.00000000E+00  2.79284600E+00
MicOpt                                     I   N=          12
          -1          -1          -1          -1          -1          -1
          -1          -1          -1          -1          -1          -1
Number of contracted shells                I               36
Number of primitive shells                 I               90
Pure/Cartesian d shells                    I                1
Pure/Cartesian f shells                    I                0
Highest angular momentum                   I                2
Largest degree of contraction              I                6
Shell types                                I   N=          36
           0          -1          -1           2           0           0
           0          -1          -1           2           0           0
           0          -1          -1           2           0           0
           0          -1          -1           2           0           0
           0          -1          -1           2           0           0
           0          -1          -1           2           0           0
Number of primitives per shell             I   N=          36
           6           3           1           1           3           1
           6           3           1           1           3           1
           6           3           1           1           3           1
           6           3           1           1           3           1
           6           3           1           1           3           1
           6           3           1           1           3           1
Shell to atom map                          I   N=          36
           1           1           1           1           2           2
           3           3           3           3           4           4
           5           5           5           5           6           6
           7           7           7           7           8           8
           9           9           9           9          10          10
          11          11          11          11          12          12
Primitive exponents                        R   N=          90
  3.04752488E+03  4.57369518E+02  1.03948685E+02  2.92101553E+01  9.28666296E+00
  3.16392696E+00  7.86827235E+00  1.88128854E+00  5.44249258E-01  1.68714478E-01
  8.00000000E-01  1.87311370E+01  2.82539436E+00  6.40121692E-01  1.61277759E-01
  3.04752488E+03  4.57369518E+02  1.03948685E+02  2.92101553E+01  9.28666296E+00
  3.16392696E+00  7.86827235E+00  1.88128854E+00  5.44249258E-01  1.68714478E-01
  8.00000000E-01  1.87311370E+01  2.82539436E+00  6.40121692E-01  1.61277759E-01
  3.04752488E+03  4.57369518E+02  1.03948685E+02  2.92101553E+01  9.28666296E+00
  3.16392696E+00  7.86827235E+00  1.88128854E+00  5.44249258E-01  1.68714478E-01
  8.00000000E-01  1.87311370E+01  2.82539436E+00  6.40121692E-01  1.61277759E-01
  3.04752488E+03  4.57369518E+02  1.03948685E+02  2.92101553E+01  9.28666296E+00
  3.16392696E+00  7.86827235E+00  1.88128854E+00  5.44249258E-01  1.68714478E-01
  8.00000000E-01  1.87311370E+01  2.82539436E+00  6.40121692E-01  1.61277759E-01
  3.04752488E+03  4.57369518E+02  1.03948685E+02  2.92101553E+01  9.28666296E+00
  3.16392696E+00  7.86827235E+00  1.88128854E+00  5.44249258E-01  1.68714478E-01
  8.00000000E-01  1.87311370E+01  2.82539436E+00  6.40121692E-01  1.61277759E-01
  3.04752488E+03  4.57369518E+02  1.03948685E+02  2.92101553E+01  9.28666296E+00
  3.16392696E+00  7.86827235E+00  1.88128854E+00  5.44249258E-01  1.68714478E-01
  8.00000000E-01  1.87311370E+01  2.82539436E+00  6.40121692E-01  1.61277759E-01
Contraction coefficients                   R   N=          90
  1.83473713E-03  1.40373228E-02  6.88426223E-02  2.32184443E-01  4.67941348E-01
  3.62311985E-01 -1.19332420E-01 -1.60854152E-01  1.14345644E+00  1.00000000E+00
  1.00000000E+00  3.34946043E-02  2.34726953E-01  8.13757326E-01  1.00000000E+00
  1.83473713E-03  1.40373228E-02  6.88426223E-02  2.32184443E-01  4.67941348E-01
  3.62311985E-01 -1.19332420E-01 -1.60854152E-01  1.14345644E+00  1.00000000E+00
  1.00000000E+00  3.34946043E-02  2.34726953E-01  8.13757326E-01  1.00000000E+00
  1.83473713E-03  1.40373228E-02  6.88426223E-02  2.32184443E-01  4.67941348E-01
  3.62311985E-01 -1.19332420E-01 -1.60854152E-01  1.14345644E+00  1.00000000E+00
  1.00000000E+00  3.34946043E-02  2.34726953E-01  8.13757326E-01  1.00000000E+00
  1.83473713E-03  1.40373228E-02  6.88426223E-02  2.32184443E-01  4.67941348E-01
  3.62311985E-01 -1.19332420E-01 -1.60854152E-01  1.14345644E+00  1.00000000E+00
  1.00000000E+00  3.34946043E-02  2.34726953E-01  8.13757326E-01  1.00000000E+00
  1.83473713E-03  1.40373228E-02  6.88426223E-02  2.32184443E-01  4.67941348E-01
  3.62311985E-01 -1.19332420E-01 -1.60854152E-01  1.14345644E+00  1.00000000E+00
  1.00000000E+00  3.34946043E-02  2.34726953E-01  8.13757326E-01  1.00000000E+00
  1.83473713E-03  1.40373228E-02  6.88426223E-02  2.32184443E-01  4.67941348E-01
  3.62311985E-01 -1.19332420E-01 -1.60854152E-01  1.14345644E+00  1.00000000E+00
  1.00000000E+00  3.34946043E-02  2.34726953E-01  8.13757326E-01  1.00000000E+00
P(S=P) Contraction coefficients            R   N=          90
  0.00000000E+00  0.00000000E+00  0.00000000E+00  0.00000000E+00  0.00000000E+00
  0.00000000E+00  6.89990666E-02  3.16423961E-01  7.44308291E-01  1.00000000E+00
  0.00000000E+00  0.00000000E+00  0.00000000E+00  0.00000000E+00  0.00000000E+00
  0.00000000E+00  0.00000000E+00  0.00000000E+00  0.00000000E+00  0.00000000E+00
  0.00000000E+00  6.89990666E-02  3.16423961E-01  7.44308291E-01  1.00000000E+00
  0.00000000E+00  0.00000000E+00  0.00000000E+00  0.00000000E+00  0.00000000E+00
  0.00000000E+00  0.00000000E+00  0.00000000E+00  0.00000000E+00  0.00000000E+00
  0.00000000E+00  6.89990666E-02  3.16423961E-01  7.44308291E-01  1.00000000E+00
  0.00000000E+00  0.00000000E+00  0.00000000E+00  0.00000000E+00  0.00000000E+00
  0.00000000E+00  0.00000000E+00  0.00000000E+00  0.00000000E+00  0.00000000E+00
  0.00000000E+00  6.89990666E-02  3.16423961E-01  7.44308291E-01  1.00000000E+00
  0.00000000E+00  0.00000000E+00  0.00000000E+00  0.00000000E+00  0.00000000E+00
  0.00000000E+00  0.00000000E+00  0.00000000E+00  0.00000000E+00  0.00000000E+00
  0.00000000E+00  6.89990666E-02  3.16423961E-01  7.44308291E-01  1.00000000E+00
  0.00000000E+00  0.00000000E+00  0.00000000E+00  0.00000000E+00  0.00000000E+00
  0.00000000E+00  0.00000000E+00  0.00000000E+00  0.00000000E+00  0.00000000E+00
  0.00000000E+00  6.89990666E-02  3.16423961E-01  7.44308291E-01  1.00000000E+00
  0.00000000E+00  0.00000000E+00  0.00000000E+00  0.00000000E+00  0.00000000E+00
Coordinates of each shell                  R   N=         108
 -2.11017260E+00 -1.58569465E+00 -3.29766432E-05 -2.11017260E+00 -1.58569465E+00
 -3.29766432E-05 -2.11017260E+00 -1.58569465E+00 -3.29766432E-05 -2.11017260E+00
 -1.58569465E+00 -3.29766432E-05 -3.75297244E+00 -2.82017481E+00  2.60200381E-05
 -3.75297244E+00 -2.82017481E+00  2.60200381E-05  3.18164362E-01 -2.62030527E+00
  2.91261400E-05  3.18164362E-01 -2.62030527E+00  2.91261400E-05  3.18164362E-01
 -2.62030527E+00  2.91261400E-05  3.18164362E-01 -2.62030527E+00  2.91261400E-05
  5.65863460E-01 -4.66025295E+00  2.45485437E-05  5.65863460E-01 -4.66025295E+00
  2.45485437E-05  2.42833876E+00 -1.03461734E+00 -3.35915805E-05  2.42833876E+00
 -1.03461734E+00 -3.35915805E-05  2.42833876E+00 -1.03461734E+00 -3.35915805E-05
  2.42833876E+00 -1.03461734E+00 -3.35915805E-05  4.31883086E+00 -1.84008003E+00
  1.49056229E-05  4.31883086E+00 -1.84008003E+00  1.49056229E-05  2.11017085E+00
  1.58569386E+00  2.97655179E-05  2.11017085E+00  1.58569386E+00  2.97655179E-05
  2.11017085E+00  1.58569386E+00  2.97655179E-05  2.11017085E+00  1.58569386E+00
  2.97655179E-05  3.75297083E+00  2.82017716E+00 -5.00234271E-05  3.75297083E+00
  2.82017716E+00 -5.00234271E-05 -3.18163669E-01  2.62030804E+00 -2.59682557E-05
 -3.18163669E-01  2.62030804E+00 -2.59682557E-05 -3.18163669E-01  2.62030804E+00
 -2.59682557E-05 -3.18163669E-01  2.62030804E+00 -2.59682557E-05 -5.65861599E-01
  4.66025483E+00  7.47911908E-05 -5.65861599E-01  4.66025483E+00  7.47911908E-05
 -2.42833747E+00  1.03461537E+00  2.83363381E-05 -2.42833747E+00  1.03461537E+00
  2.83363381E-05 -2.42833747E+00  1.03461537E+00  2.83363381E-05 -2.42833747E+00
  1.03461537E+00  2.83363381E-05 -4.31883252E+00  1.84007578E+00 -5.83910675E-05
 -4.31883252E+00  1.84007578E+00 -5.83910675E-05
Constraint Structure                       R   N=          36
 -2.11017260E+00 -1.58569465E+00 -3.29766432E-05 -3.75297244E+00 -2.82017481E+00
  2.60200381E-05  3.18164362E-01 -2.62030527E+00  2.91261400E-05  5.65863460E-01
 -4.66025295E+00  2.45485437E-05  2.42833876E+00 -1.03461734E+00 -3.35915805E-05
  4.31883086E+00 -1.84008003E+00  1.49056229E-05  2.11017085E+00  1.58569386E+00
  2.97655179E-05  3.75297083E+00  2.82017716E+00 -5.00234271E-05 -3.18163669E-01
  2.62030804E+00 -2.59682557E-05 -5.65861599E-01  4.66025483E+00  7.47911908E-05
 -2.42833747E+00  1.03461537E+00  2.83363381E-05 -4.31883252E+00  1.84007578E+00
 -5.83910675E-05
Num ILSW                                   I              100
ILSW                                       I   N=         100
           0           1           0           1           2           0
           0           0           0           0           0          -1
           0           0           0           0           0           0
           0           0           0           0           1           0
           1           0           0           0           0           0
           0           0      100000           0          -1           0
           0           0           0           0           0           0
           0           0           0           1           1           0
           0           0           1           0           0           0
           0           0           4          40           0           0
           0           0           0           0           0           0
           0           0           0           0           0           0
           0           0           0           0           0           0
           0           0           0           0           0           0
           0           0           0           0           0           0
           0           0           0           0           0           0
           0           0           0           0
Num RLSW                                   I               40
RLSW                                       R   N=          40
  1.00000000E+00  1.00000000E+00  1.00000000E+00  1.00000000E+00  1.00000000E+00
  0.00000000E+00  0.00000000E+00  1.00000000E+00  0.00000000E+00  0.00000000E+00
  0.00000000E+00  0.00000000E+00  1.00000000E+00  0.00000000E+00  0.00000000E+00
  0.00000000E+00  0.00000000E+00  1.00000000E+00  0.00000000E+00  0.00000000E+00
  0.00000000E+00  0.00000000E+00  1.00000000E+00  0.00000000E+00  0.00000000E+00
  0.00000000E+00  0.00000000E+00  1.00000000E+00  0.00000000E+00  0.00000000E+00
  0.00000000E+00  0.00000000E+00  0.00000000E+00  0.00000000E+00  0.00000000E+00
  0.00000000E+00  0.00000000E+00  0.00000000E+00  1.00000000E+00  1.00000000E+00
MxBond                                     I                3
NBond                                      I   N=          12
           3           1           3           1           3           1
           3           1           3           1           3           1
IBond                                      I   N=          36
           2           3          11           1           0           0
           1           4           5           3           0           0
           3           6           7           5           0           0
           5           8           9           7           0           0
           7          10          11           9           0           0
           1           9          12          11           0           0
RBond                                      R   N=          36
  1.00000000E+00  1.50000000E+00  1.50000000E+00  1.00000000E+00  0.00000000E+00
  0.00000000E+00  1.50000000E+00  1.00000000E+00  1.50000000E+00  1.00000000E+00
  0.00000000E+00  0.00000000E+00  1.50000000E+00  1.00000000E+00  1.50000000E+00
  1.00000000E+00  0.00000000E+00  0.00000000E+00  1.50000000E+00  1.00000000E+00
  1.50000000E+00  1.00000000E+00  0.00000000E+00  0.00000000E+00  1.50000000E+00
  1.00000000E+00  1.50000000E+00  1.00000000E+00  0.00000000E+00  0.00000000E+00
  1.50000000E+00  1.50000000E+00  1.00000000E+00  1.00000000E+00  0.00000000E+00
  0.00000000E+00
Virial Ratio                               R      2.002067061376744E+00
SCF Energy                                 R     -2.307018285824899E+02
MP2 Energy                                 R     -2.314577336109536E+02
Total Energy                               R     -2.314577336109536E+02
Post-SCF wavefunction norm                 R      1.599908272981539E+00
RMS Force                                  R      2.171669768119492E-06
RMS Density                                R      4.386083794962782E-10
External E-field                           R   N=          35
  0.00000000E+00  0.00000000E+00  0.00000000E+00  0.00000000E+00  0.00000000E+00
  0.00000000E+00  0.00000000E+00  0.00000000E+00  0.00000000E+00  0.00000000E+00
  0.00000000E+00  0.00000000E+00  0.00000000E+00  0.00000000E+00  0.00000000E+00
  0.00000000E+00  0.00000000E+00  0.00000000E+00  0.00000000E+00  0.00000000E+00
  0.00000000E+00  0.00000000E+00  0.00000000E+00  0.00000000E+00  0.00000000E+00
  0.00000000E+00  0.00000000E+00  0.00000000E+00  0.00000000E+00  0.00000000E+00
  0.00000000E+00  0.00000000E+00  0.00000000E+00  0.00000000E+00  0.00000000E+00
IOpCl                                      I                0
IROHF                                      I                0
Alpha Orbital Energies                     R   N=         102
 -1.12345110E+01 -1.12339601E+01 -1.12339600E+01 -1.12327745E+01 -1.12327744E+01
 -1.12322015E+01 -1.14161090E+00 -1.00713401E+00 -1.00713379E+00 -8.16527454E-01
 -8.16527031E-01 -7.01119729E-01 -6.38073245E-01 -6.10268715E-01 -5.81005123E-01
 -5.81004868E-01 -4.94008117E-01 -4.88302907E-01 -4.88301378E-01 -3.29135962E-01
 -3.29135532E-01  1.46770926E-01  1.46771633E-01  2.32820386E-01  2.92161613E-01
  2.92161622E-01  3.30338004E-01  3.30338283E-01  3.34254236E-01  3.65438657E-01
  4.70733517E-01  4.70734248E-01  4.95662440E-01  4.95663681E-01  6.60237841E-01
  7.38017995E-01  7.56329755E-01  7.76261682E-01  7.78965669E-01  7.87289973E-01
  8.32636892E-01  8.32637164E-01  8.43579804E-01  8.43580002E-01  8.47079068E-01
  8.47079928E-01  9.13549474E-01  9.13549772E-01  9.94733607E-01  1.11108951E+00
  1.11108970E+00  1.11821565E+00  1.11821631E+00  1.12184330E+00  1.18538390E+00
  1.18538500E+00  1.20170178E+00  1.24403508E+00  1.30202937E+00  1.30202954E+00
  1.38703005E+00  1.38703132E+00  1.45787755E+00  1.51782899E+00  1.66319517E+00
  1.69477568E+00  1.69477673E+00  1.76569070E+00  1.76569180E+00  1.79525064E+00
  1.79525116E+00  2.04758686E+00  2.09064982E+00  2.15749014E+00  2.16734107E+00
  2.30186136E+00  2.30186197E+00  2.39147227E+00  2.39147270E+00  2.46650077E+00
  2.46650114E+00  2.47144345E+00  2.47144451E+00  2.63617459E+00  2.63617784E+00
  2.64471124E+00  2.87849122E+00  2.87849210E+00  2.99853301E+00  3.06781568E+00
  3.06781812E+00  3.08152407E+00  3.08152603E+00  3.08651442E+00  3.39094537E+00
  3.78552179E+00  4.51087282E+00  4.54219613E+00  4.54219670E+00  4.75469291E+00
  4.75469302E+00  5.09388174E+00
Alpha MO coefficients                      R   N=       10404
  4.06218811E-01  1.10417489E-02 -3.08736951E-05 -2.32204186E-05  2.74262672E-08
 -2.18730371E-03  2.59030352E-04  1.94831464E-04 -1.25544406E-07 -9.16814410E-04
 -9.30934259E-04 -1.07937991E-03  2.81068447E-05 -1.20818694E-08 -1.13258054E-08
 -1.07166074E-04  8.28359736E-04  4.06194837E-01  1.10410934E-02  4.65140772E-06
 -3.83496330E-05 -2.34986050E-08 -2.18744207E-03 -3.90031202E-05  3.21588775E-04
  1.12185864E-07 -9.48417183E-04 -8.99208034E-04 -1.07931498E-03 -7.00647083E-06
 -1.70335064E-09  1.23875954E-08 -1.07163302E-04  8.28284601E-04  4.06256225E-01
  1.10427889E-02  3.55254170E-05 -1.51546540E-05  2.65936620E-08 -2.18775308E-03
 -2.98079949E-04  1.27167501E-04 -1.22751329E-07 -9.06380970E-04 -9.41499928E-04
 -1.07946799E-03 -2.10965964E-05  1.35710216E-08 -7.59656967E-09 -1.07173672E-04
  8.28418592E-04  4.06320317E-01  1.10445782E-02  3.08684512E-05  2.31883007E-05
 -3.05297215E-08 -2.18871679E-03 -2.58920731E-04 -1.94501613E-04  1.35070418E-07
 -9.17006146E-04 -9.31111183E-04 -1.07961572E-03  2.80949579E-05 -1.64846718E-08
 -1.08910771E-08 -1.07190827E-04  8.28481427E-04  4.06297173E-01  1.10439181E-02
 -4.65639634E-06  3.83414319E-05  3.14362558E-08 -2.18778514E-03  3.90801248E-05
 -3.21784031E-04 -1.40992185E-07 -9.48665328E-04 -8.99449929E-04 -1.07957386E-03
 -7.00750003E-06 -2.51915255E-09  2.18017423E-08 -1.07185527E-04  8.28486238E-04
  4.06315030E-01  1.10444333E-02 -3.55211585E-05  1.51217137E-05 -3.10432332E-08
 -2.18879761E-03  2.97931844E-04 -1.26831087E-04  1.37076365E-07 -9.06487858E-04
 -9.41581639E-04 -1.07959996E-03 -2.10945944E-05  1.92845913E-08 -7.13096541E-09
 -1.07188656E-04  8.28472579E-04  4.28870914E-01  1.19026125E-02  1.07511697E-04
 -3.50119812E-05  2.09106289E-08 -3.69441495E-03 -6.26955628E-04  5.47725429E-04
 -5.86542144E-08 -8.89877209E-04 -9.18321821E-04 -1.04380036E-03 -2.79249859E-05
  7.55753125E-11 -1.26206859E-08 -9.83905988E-05  6.81973606E-04 -1.16786794E-01
 -3.24122216E-03  1.37313149E-04 -1.13387691E-06  5.46783918E-09  1.00589852E-03
 -1.19499798E-03 -9.79447627E-05 -1.21574502E-08  2.33930387E-04  2.58470758E-04
  2.84242155E-04  3.21567376E-05 -1.33318973E-08 -1.65982796E-09  2.67906189E-05
 -1.85723558E-04 -5.45691293E-01 -1.51447906E-02  9.30943924E-05  7.74694284E-06
 -2.69539230E-08  4.70148806E-03 -3.52262472E-04 -2.67055855E-04  7.05594977E-08
  1.16038617E-03  1.14026306E-03  1.32810705E-03 -2.81138341E-05 -4.20091648E-09
  7.95724251E-09  1.25194025E-04 -8.67688372E-04 -4.28950594E-01 -1.19048368E-02
  1.07528703E-04 -3.49875946E-05  2.67273708E-08  3.69575393E-03 -6.27088619E-04
  5.47517524E-04 -6.03166774E-08  8.89997007E-04  9.18413223E-04  1.04398125E-03
  2.79469179E-05  1.73711259E-09  1.15386730E-08  9.84017987E-05 -6.82088386E-04
  1.16789619E-01  3.24130366E-03  1.37332003E-04 -1.13285749E-06  7.19435977E-09
 -1.00596067E-03 -1.19518424E-03 -9.79529728E-05 -1.81262100E-08 -2.33930311E-04
 -2.58479636E-04 -2.84248336E-04 -3.21795698E-05  1.26455283E-08  4.69901473E-09
 -2.67917384E-05  1.85726753E-04  5.45766901E-01  1.51468988E-02  9.31153495E-05
  7.72761262E-06 -3.37746420E-08 -4.70275823E-03 -3.52423027E-04 -2.66876612E-04
  7.97472384E-08 -1.16050833E-03 -1.14033752E-03 -1.32827817E-03  2.81234447E-05
  9.92546353E-09 -7.92906511E-09 -1.25203824E-04  8.67797497E-04  3.82546223E-01
  1.06169429E-02 -1.60679986E-05  1.17771197E-04  2.18987618E-08 -3.29601920E-03
  4.25651268E-04 -8.22563847E-04 -4.77367181E-08 -8.33138670E-04 -7.79665298E-04
 -9.31048683E-04 -1.17299786E-05 -8.46627376E-09  4.77066833E-09 -8.77661399E-05
  6.08279512E-04  5.62745439E-01  1.56180669E-02  1.77896552E-05  8.79672044E-05
 -2.47385995E-08 -4.84796523E-03 -2.19614741E-04 -2.54333306E-04  5.97627944E-08
 -1.16320526E-03 -1.20935759E-03 -1.36962999E-03  1.39649337E-05 -3.13234496E-09
  8.89922739E-10 -1.29099020E-04  8.94864801E-04  1.80270906E-01  5.00311683E-03
  2.66649829E-05  1.32200614E-04  1.12072318E-08 -1.55347751E-03 -3.88673690E-04
 -1.09750194E-03 -1.99446009E-08 -4.06578191E-04 -3.53397401E-04 -4.38745456E-04
 -1.65119519E-05  5.03191359E-09  1.13167636E-08 -4.13588335E-05  2.86639633E-04
 -3.82490433E-01 -1.06154463E-02 -1.60526536E-05  1.17783628E-04  2.16159753E-08
  3.29607694E-03  4.25527232E-04 -8.22665615E-04 -5.82523278E-08  8.32984665E-04
  7.79502151E-04  9.30887561E-04  1.17477193E-05  1.34607907E-08 -3.28304593E-09
  8.77465660E-05 -6.08146508E-04 -5.62644139E-01 -1.56153013E-02  1.77959321E-05
  8.79711453E-05 -3.58223334E-08  4.84726381E-03 -2.19670606E-04 -2.54368377E-04
  8.62182974E-08  1.16298927E-03  1.20913849E-03  1.36936538E-03 -1.39704717E-05
  4.33744306E-09 -1.42796287E-08  1.29074681E-04 -8.94668265E-04 -1.80164743E-01
 -5.00021854E-03  2.66607128E-05  1.32195814E-04  9.75151581E-09  1.55270245E-03
 -3.88632084E-04 -1.09746182E-03 -2.95853652E-08  4.06351566E-04  3.53177888E-04
  4.38469985E-04  1.65075497E-05 -9.55610086E-09 -9.95611280E-09  4.13335252E-05
 -2.86431800E-04 -4.25340960E-01 -1.18851026E-02 -7.02272798E-05 -1.54372695E-04
 -3.08993702E-08  7.16326159E-03  4.85199944E-04  1.38716482E-03  6.05260532E-08
  6.73721943E-04  4.51213879E-04  9.70873591E-04  1.00549103E-04  5.70141904E-09
 -1.19295843E-08  6.06240830E-05 -6.25279554E-04 -1.22490789E-01 -3.42269860E-03
 -1.11913229E-04 -5.67769826E-05  7.77123698E-09  2.06286326E-03  1.13593452E-03
  4.92184191E-04 -1.60548599E-08  1.58652018E-04  1.65312192E-04  2.79596586E-04
 -1.43627940E-04  1.96573501E-08  4.03686369E-09  1.74582589E-05 -1.80074471E-04
  5.47794815E-01  1.53067888E-02 -1.62029435E-04  1.08916579E-04  3.84997012E-08
 -9.22586827E-03  1.30229177E-03 -9.56262499E-04 -7.99753065E-08 -8.53534046E-04
 -5.95201413E-04 -1.25037313E-03  9.30495271E-05 -7.90199866E-10  6.61388108E-09
 -7.80738157E-05  8.05282928E-04 -4.25257373E-01 -1.18827762E-02  7.02112131E-05
  1.54372100E-04  3.34087994E-08  7.16248437E-03 -4.85104468E-04 -1.38719768E-03
 -6.88041124E-08  6.73548775E-04  4.51037488E-04  9.70669758E-04  1.00545092E-04
  1.03338106E-08 -1.03903615E-08  6.06039368E-05 -6.25148134E-04 -1.22485238E-01
 -3.42254331E-03  1.11891167E-04  5.67741129E-05 -9.77397835E-09  2.06285680E-03
 -1.13573428E-03 -4.92177449E-04  1.77572088E-08  1.58635450E-04  1.65298282E-04
  2.79581638E-04 -1.43622942E-04  1.88198771E-08  1.47711948E-09  1.74569984E-05
 -1.80062761E-04  5.47722112E-01  1.53047685E-02  1.62014443E-04 -1.08924089E-04
 -4.34776493E-08 -9.22528636E-03 -1.30223896E-03  9.56365121E-04  8.49746476E-08
 -8.53378841E-04 -5.95044077E-04 -1.25019413E-03  9.30460931E-05  5.28541434E-09
  5.55764023E-09 -7.80566377E-05  8.05162350E-04 -3.86925280E-01 -1.08116655E-02
 -1.61910907E-04 -9.99474135E-06 -2.67924417E-08  6.51583810E-03  1.42761888E-03
 -5.11001541E-05  6.15990974E-08  4.53426311E-04  5.69890565E-04  8.83191866E-04
  1.44805322E-04 -8.20777049E-09  1.29020948E-08  5.51353175E-05 -5.68873617E-04
  5.61757646E-01  1.56969142E-02 -4.92292754E-05  1.92103368E-04 -3.59154344E-08
 -9.46028442E-03  4.51271702E-04 -1.56962637E-03  7.01042709E-08 -5.89625465E-04
 -8.96067626E-04 -1.28226340E-03  1.25007508E-05  5.26796676E-09 -8.63093746E-09
 -8.00518410E-05  8.25896081E-04 -1.74764114E-01 -4.88334254E-03  1.01351019E-04
  8.18010034E-05 -1.11957381E-08  2.94275894E-03 -9.14903549E-04 -8.68053801E-04
  2.98151030E-08  1.79359077E-04  2.82843844E-04  3.98918835E-04 -1.32785572E-04
  6.27003397E-09  1.84814887E-08  2.48965323E-05 -2.56985771E-04 -3.86982401E-01
 -1.08133218E-02  1.61943252E-04  1.00189168E-05  3.03514096E-08  6.51879170E-03
 -1.42853838E-03  5.04175329E-05 -5.61548388E-08  4.53427816E-04  5.69876117E-04
  8.83284529E-04  1.44837623E-04 -8.42516935E-09  1.09695038E-08  5.51586031E-05
 -5.68783455E-04  5.61858807E-01  1.56997931E-02  4.92289260E-05 -1.92151121E-04
  4.51253891E-08 -9.46361941E-03 -4.51359272E-04  1.57078765E-03 -8.49266809E-08
 -5.89684208E-04 -8.96180751E-04 -1.28246337E-03  1.25098442E-05  3.77511775E-09
  5.20700127E-09 -8.00863773E-05  8.25879091E-04 -1.74865803E-01 -4.88623380E-03
 -1.01396667E-04 -8.17878312E-05  1.37798835E-08  2.94608700E-03  9.15994474E-04
  8.67652920E-04 -2.29035344E-08  1.79465814E-04  2.82909845E-04  3.99119903E-04
 -1.32812809E-04  7.47919786E-09  1.67770759E-08  2.49299953E-05 -2.56966918E-04
 -4.06799209E-01 -1.16318124E-02 -1.69352570E-04 -1.27237190E-04 -4.55591722E-08
  1.50549466E-02  4.33785704E-03  3.25950388E-03  1.80094591E-07  2.99514747E-04
  2.22420736E-04  7.76000341E-04  1.53720607E-04  2.21775711E-08  1.86503321E-08
  1.43148230E-04  1.94414943E-04  4.06824066E-01  1.16325151E-02 -2.55405284E-05
  2.10291398E-04 -4.51501488E-08 -1.50554102E-02  6.54091388E-04 -5.38648066E-03
  1.94580359E-07 -1.26424410E-04 -3.95577610E-04 -7.76054947E-04  3.82970726E-05
 -2.80649930E-09  2.04184816E-08 -1.43148761E-04 -1.94373375E-04 -4.06761524E-01
 -1.16307591E-02  1.94871144E-04 -8.30079210E-05 -4.52376326E-08  1.50544369E-02
 -4.99180016E-03  2.12664100E-03  1.85005343E-07  3.56897397E-04  1.64910559E-04
  7.75911001E-04 -1.15422339E-04 -2.47550669E-08  1.18635952E-08  1.43142117E-04
  1.94474113E-04  4.06699331E-01  1.16290292E-02 -1.69318955E-04 -1.27236174E-04
 -4.86403650E-08 -1.50534900E-02  4.33755156E-03  3.25952004E-03  1.77342915E-07
 -2.99377594E-04 -2.22255194E-04 -7.75765203E-04 -1.53691495E-04 -2.67433651E-08
 -1.75851656E-08 -1.43129773E-04 -1.94563078E-04 -4.06723138E-01 -1.16296819E-02
 -2.55305851E-05  2.10249259E-04 -4.90874452E-08  1.50534713E-02  6.53998904E-04
 -5.38614296E-03  1.57729973E-07  1.26343981E-04  3.95428380E-04  7.75830092E-04
 -3.82939290E-05  3.85850958E-09 -3.48948670E-08  1.43138279E-04  1.94519738E-04
  4.06702586E-01  1.16291197E-02  1.94849027E-04 -8.30253328E-05 -4.89636272E-08
 -1.50536664E-02 -4.99159650E-03  2.12681770E-03  1.71879765E-07 -3.56811365E-04
 -1.64802313E-04 -7.75769465E-04  1.15395253E-04  3.09297068E-08 -1.13487142E-08