opt=Tight                                                               
Freq      RMP2-FC                                                     6-31G(d)            
Number of atoms                            I               27
Info1-9                                    I   N=           9
          37          36        1002           0           0         100
           6           2           1
Charge                                     I                1
Multiplicity                               I                1
Number of electrons                        I               88
Number of alpha electrons                  I               44
Number of beta electrons                   I               44
Number of basis functions                  I              210
Number of independent functions            I              210
Number of point charges in /Mol/           I                0
Number of translation vectors              I                0
Atomic numbers                             I   N=          27
           7           7           6           6           6           6
           6           6           6           6           6           6
           1           1           1           1           1           1
           1           1           1           1           1           1
           1           1           1
Nuclear charges                            R   N=          27
  7.00000000E+00  7.00000000E+00  6.00000000E+00  6.00000000E+00  6.00000000E+00
  6.00000000E+00  6.00000000E+00  6.00000000E+00  6.00000000E+00  6.00000000E+00
  6.00000000E+00  6.00000000E+00  1.00000000E+00  1.00000000E+00  1.00000000E+00
  1.00000000E+00  1.00000000E+00  1.00000000E+00  1.00000000E+00  1.00000000E+00
  1.00000000E+00  1.00000000E+00  1.00000000E+00  1.00000000E+00  1.00000000E+00
  1.00000000E+00  1.00000000E+00
Current cartesian coordinates              R   N=          81
 -6.28970386E+00  3.67006560E-01 -3.73036759E-05 -1.03858885E+00 -5.57258933E-01
  5.61091237E-05 -4.94606727E+00 -4.79478948E-01 -2.37603744E+00 -4.94607268E+00
 -4.79036272E-01  2.37612455E+00 -2.23449760E+00  4.49350009E-01 -2.26839996E+00
 -2.23450625E+00  4.49782392E-01  2.26831254E+00  1.67827830E+00 -2.38920470E-01
  2.36169402E-05  2.79285925E+00  2.16047402E+00 -1.79423681E-04  3.17105276E+00
 -2.41478756E+00  2.13812653E-04  5.42261451E+00  2.36972634E+00 -2.06181692E-04
  5.79917668E+00 -2.19057016E+00  1.85141054E-04  6.92443270E+00  1.98016997E-01
 -1.72199600E-05 -6.39728186E+00  2.31063967E+00 -2.15853567E-04 -8.12363917E+00
 -2.79673793E-01  1.98397254E-05 -5.99303804E+00  2.79309642E-01 -3.98656345E+00
 -5.01656078E+00 -2.54066875E+00 -2.39032563E+00 -5.01656051E+00 -2.54022344E+00
  2.39079165E+00 -5.99304992E+00  2.80048818E-01  3.98650639E+00 -1.23245283E+00
 -2.64041920E-01 -3.92932043E+00 -2.19447520E+00  2.53876384E+00 -2.36746115E+00
 -2.19450000E+00  2.53921760E+00  2.36697346E+00 -1.23246008E+00 -2.63276953E-01
  3.92937494E+00  1.63543966E+00  3.86165150E+00 -3.27350986E-04  2.25543498E+00
 -4.25355364E+00  3.69307311E-04  6.29917119E+00  4.22711020E+00 -3.61907381E-04
  6.96774692E+00 -3.87925478E+00  3.36435410E-04  8.97065218E+00  3.68380547E-01
 -4.44909228E-05
Force Field                                I                0
Int Atom Types                             I   N=          27
           0           0           0           0           0           0
           0           0           0           0           0           0
           0           0           0           0           0           0
           0           0           0           0           0           0
           0           0           0
MM charges                                 R   N=          27
  0.00000000E+00  0.00000000E+00  0.00000000E+00  0.00000000E+00  0.00000000E+00
  0.00000000E+00  0.00000000E+00  0.00000000E+00  0.00000000E+00  0.00000000E+00
  0.00000000E+00  0.00000000E+00  0.00000000E+00  0.00000000E+00  0.00000000E+00
  0.00000000E+00  0.00000000E+00  0.00000000E+00  0.00000000E+00  0.00000000E+00
  0.00000000E+00  0.00000000E+00  0.00000000E+00  0.00000000E+00  0.00000000E+00
  0.00000000E+00  0.00000000E+00
Integer atomic weights                     I   N=          27
          14          14          12          12          12          12
          12          12          12          12          12          12
           1           1           1           1           1           1
           1           1           1           1           1           1
           1           1           1
Real atomic weights                        R   N=          27
  1.40030740E+01  1.40030740E+01  1.20000000E+01  1.20000000E+01  1.20000000E+01
  1.20000000E+01  1.20000000E+01  1.20000000E+01  1.20000000E+01  1.20000000E+01
  1.20000000E+01  1.20000000E+01  1.00782504E+00  1.00782504E+00  1.00782504E+00
  1.00782504E+00  1.00782504E+00  1.00782504E+00  1.00782504E+00  1.00782504E+00
  1.00782504E+00  1.00782504E+00  1.00782504E+00  1.00782504E+00  1.00782504E+00
  1.00782504E+00  1.00782504E+00
Atom fragment info                         I   N=          27
           0           0           0           0           0           0
           0           0           0           0           0           0
           0           0           0           0           0           0
           0           0           0           0           0           0
           0           0           0
Atom residue num                           I   N=          27
           0           0           0           0           0           0
           0           0           0           0           0           0
           0           0           0           0           0           0
           0           0           0           0           0           0
           0           0           0
Nuclear spins                              I   N=          27
           2           2           0           0           0           0
           0           0           0           0           0           0
           1           1           1           1           1           1
           1           1           1           1           1           1
           1           1           1
Nuclear ZEff                               R   N=          27
 -4.55000000E+00 -4.55000000E+00 -3.60000000E+00 -3.60000000E+00 -3.60000000E+00
 -3.60000000E+00 -3.60000000E+00 -3.60000000E+00 -3.60000000E+00 -3.60000000E+00
 -3.60000000E+00 -3.60000000E+00 -1.00000000E+00 -1.00000000E+00 -1.00000000E+00
 -1.00000000E+00 -1.00000000E+00 -1.00000000E+00 -1.00000000E+00 -1.00000000E+00
 -1.00000000E+00 -1.00000000E+00 -1.00000000E+00 -1.00000000E+00 -1.00000000E+00
 -1.00000000E+00 -1.00000000E+00
Nuclear QMom                               R   N=          27
  2.04400000E+00  2.04400000E+00  0.00000000E+00  0.00000000E+00  0.00000000E+00
  0.00000000E+00  0.00000000E+00  0.00000000E+00  0.00000000E+00  0.00000000E+00
  0.00000000E+00  0.00000000E+00  0.00000000E+00  0.00000000E+00  0.00000000E+00
  0.00000000E+00  0.00000000E+00  0.00000000E+00  0.00000000E+00  0.00000000E+00
  0.00000000E+00  0.00000000E+00  0.00000000E+00  0.00000000E+00  0.00000000E+00
  0.00000000E+00  0.00000000E+00
Nuclear GFac                               R   N=          27
  4.03761000E-01  4.03761000E-01  0.00000000E+00  0.00000000E+00  0.00000000E+00
  0.00000000E+00  0.00000000E+00  0.00000000E+00  0.00000000E+00  0.00000000E+00
  0.00000000E+00  0.00000000E+00  2.79284600E+00  2.79284600E+00  2.79284600E+00
  2.79284600E+00  2.79284600E+00  2.79284600E+00  2.79284600E+00  2.79284600E+00
  2.79284600E+00  2.79284600E+00  2.79284600E+00  2.79284600E+00  2.79284600E+00
  2.79284600E+00  2.79284600E+00
MicOpt                                     I   N=          27
          -1          -1          -1          -1          -1          -1
          -1          -1          -1          -1          -1          -1
          -1          -1          -1          -1          -1          -1
          -1          -1          -1          -1          -1          -1
          -1          -1          -1
Number of contracted shells                I               78
Number of primitive shells                 I              192
Pure/Cartesian d shells                    I                1
Pure/Cartesian f shells                    I                0
Highest angular momentum                   I                2
Largest degree of contraction              I                6
Shell types                                I   N=          78
           0          -1          -1           2           0          -1
          -1           2           0          -1          -1           2
           0          -1          -1           2           0          -1
          -1           2           0          -1          -1           2
           0          -1          -1           2           0          -1
          -1           2           0          -1          -1           2
           0          -1          -1           2           0          -1
          -1           2           0          -1          -1           2
           0           0           0           0           0           0
           0           0           0           0           0           0
           0           0           0           0           0           0
           0           0           0           0           0           0
           0           0           0           0           0           0
Number of primitives per shell             I   N=          78
           6           3           1           1           6           3
           1           1           6           3           1           1
           6           3           1           1           6           3
           1           1           6           3           1           1
           6           3           1           1           6           3
           1           1           6           3           1           1
           6           3           1           1           6           3
           1           1           6           3           1           1
           3           1           3           1           3           1
           3           1           3           1           3           1
           3           1           3           1           3           1
           3           1           3           1           3           1
           3           1           3           1           3           1
Shell to atom map                          I   N=          78
           1           1           1           1           2           2
           2           2           3           3           3           3
           4           4           4           4           5           5
           5           5           6           6           6           6
           7           7           7           7           8           8
           8           8           9           9           9           9
          10          10          10          10          11          11
          11          11          12          12          12          12
          13          13          14          14          15          15
          16          16          17          17          18          18
          19          19          20          20          21          21
          22          22          23          23          24          24
          25          25          26          26          27          27
Primitive exponents                        R   N=         192
  4.17351146E+03  6.27457911E+02  1.42902093E+02  4.02343293E+01  1.28202129E+01
  4.39043701E+00  1.16263619E+01  2.71627981E+00  7.72218397E-01  2.12031498E-01
  8.00000000E-01  4.17351146E+03  6.27457911E+02  1.42902093E+02  4.02343293E+01
  1.28202129E+01  4.39043701E+00  1.16263619E+01  2.71627981E+00  7.72218397E-01
  2.12031498E-01  8.00000000E-01  3.04752488E+03  4.57369518E+02  1.03948685E+02
  2.92101553E+01  9.28666296E+00  3.16392696E+00  7.86827235E+00  1.88128854E+00
  5.44249258E-01  1.68714478E-01  8.00000000E-01  3.04752488E+03  4.57369518E+02
  1.03948685E+02  2.92101553E+01  9.28666296E+00  3.16392696E+00  7.86827235E+00
  1.88128854E+00  5.44249258E-01  1.68714478E-01  8.00000000E-01  3.04752488E+03
  4.57369518E+02  1.03948685E+02  2.92101553E+01  9.28666296E+00  3.16392696E+00
  7.86827235E+00  1.88128854E+00  5.44249258E-01  1.68714478E-01  8.00000000E-01
  3.04752488E+03  4.57369518E+02  1.03948685E+02  2.92101553E+01  9.28666296E+00
  3.16392696E+00  7.86827235E+00  1.88128854E+00  5.44249258E-01  1.68714478E-01
  8.00000000E-01  3.04752488E+03  4.57369518E+02  1.03948685E+02  2.92101553E+01
  9.28666296E+00  3.16392696E+00  7.86827235E+00  1.88128854E+00  5.44249258E-01
  1.68714478E-01  8.00000000E-01  3.04752488E+03  4.57369518E+02  1.03948685E+02
  2.92101553E+01  9.28666296E+00  3.16392696E+00  7.86827235E+00  1.88128854E+00
  5.44249258E-01  1.68714478E-01  8.00000000E-01  3.04752488E+03  4.57369518E+02
  1.03948685E+02  2.92101553E+01  9.28666296E+00  3.16392696E+00  7.86827235E+00
  1.88128854E+00  5.44249258E-01  1.68714478E-01  8.00000000E-01  3.04752488E+03
  4.57369518E+02  1.03948685E+02  2.92101553E+01  9.28666296E+00  3.16392696E+00
  7.86827235E+00  1.88128854E+00  5.44249258E-01  1.68714478E-01  8.00000000E-01
  3.04752488E+03  4.57369518E+02  1.03948685E+02  2.92101553E+01  9.28666296E+00
  3.16392696E+00  7.86827235E+00  1.88128854E+00  5.44249258E-01  1.68714478E-01
  8.00000000E-01  3.04752488E+03  4.57369518E+02  1.03948685E+02  2.92101553E+01
  9.28666296E+00  3.16392696E+00  7.86827235E+00  1.88128854E+00  5.44249258E-01
  1.68714478E-01  8.00000000E-01  1.87311370E+01  2.82539436E+00  6.40121692E-01
  1.61277759E-01  1.87311370E+01  2.82539436E+00  6.40121692E-01  1.61277759E-01
  1.87311370E+01  2.82539436E+00  6.40121692E-01  1.61277759E-01  1.87311370E+01
  2.82539436E+00  6.40121692E-01  1.61277759E-01  1.87311370E+01  2.82539436E+00
  6.40121692E-01  1.61277759E-01  1.87311370E+01  2.82539436E+00  6.40121692E-01
  1.61277759E-01  1.87311370E+01  2.82539436E+00  6.40121692E-01  1.61277759E-01
  1.87311370E+01  2.82539436E+00  6.40121692E-01  1.61277759E-01  1.87311370E+01
  2.82539436E+00  6.40121692E-01  1.61277759E-01  1.87311370E+01  2.82539436E+00
  6.40121692E-01  1.61277759E-01  1.87311370E+01  2.82539436E+00  6.40121692E-01
  1.61277759E-01  1.87311370E+01  2.82539436E+00  6.40121692E-01  1.61277759E-01
  1.87311370E+01  2.82539436E+00  6.40121692E-01  1.61277759E-01  1.87311370E+01
  2.82539436E+00  6.40121692E-01  1.61277759E-01  1.87311370E+01  2.82539436E+00
  6.40121692E-01  1.61277759E-01
Contraction coefficients                   R   N=         192
  1.83477216E-03  1.39946270E-02  6.85865518E-02  2.32240873E-01  4.69069948E-01
  3.60455199E-01 -1.14961182E-01 -1.69117479E-01  1.14585195E+00  1.00000000E+00
  1.00000000E+00  1.83477216E-03  1.39946270E-02  6.85865518E-02  2.32240873E-01
  4.69069948E-01  3.60455199E-01 -1.14961182E-01 -1.69117479E-01  1.14585195E+00
  1.00000000E+00  1.00000000E+00  1.83473713E-03  1.40373228E-02  6.88426223E-02
  2.32184443E-01  4.67941348E-01  3.62311985E-01 -1.19332420E-01 -1.60854152E-01
  1.14345644E+00  1.00000000E+00  1.00000000E+00  1.83473713E-03  1.40373228E-02
  6.88426223E-02  2.32184443E-01  4.67941348E-01  3.62311985E-01 -1.19332420E-01
 -1.60854152E-01  1.14345644E+00  1.00000000E+00  1.00000000E+00  1.83473713E-03
  1.40373228E-02  6.88426223E-02  2.32184443E-01  4.67941348E-01  3.62311985E-01
 -1.19332420E-01 -1.60854152E-01  1.14345644E+00  1.00000000E+00  1.00000000E+00
  1.83473713E-03  1.40373228E-02  6.88426223E-02  2.32184443E-01  4.67941348E-01
  3.62311985E-01 -1.19332420E-01 -1.60854152E-01  1.14345644E+00  1.00000000E+00
  1.00000000E+00  1.83473713E-03  1.40373228E-02  6.88426223E-02  2.32184443E-01
  4.67941348E-01  3.62311985E-01 -1.19332420E-01 -1.60854152E-01  1.14345644E+00
  1.00000000E+00  1.00000000E+00  1.83473713E-03  1.40373228E-02  6.88426223E-02
  2.32184443E-01  4.67941348E-01  3.62311985E-01 -1.19332420E-01 -1.60854152E-01
  1.14345644E+00  1.00000000E+00  1.00000000E+00  1.83473713E-03  1.40373228E-02
  6.88426223E-02  2.32184443E-01  4.67941348E-01  3.62311985E-01 -1.19332420E-01
 -1.60854152E-01  1.14345644E+00  1.00000000E+00  1.00000000E+00  1.83473713E-03
  1.40373228E-02  6.88426223E-02  2.32184443E-01  4.67941348E-01  3.62311985E-01
 -1.19332420E-01 -1.60854152E-01  1.14345644E+00  1.00000000E+00  1.00000000E+00
  1.83473713E-03  1.40373228E-02  6.88426223E-02  2.32184443E-01  4.67941348E-01
  3.62311985E-01 -1.19332420E-01 -1.60854152E-01  1.14345644E+00  1.00000000E+00
  1.00000000E+00  1.83473713E-03  1.40373228E-02  6.88426223E-02  2.32184443E-01
  4.67941348E-01  3.62311985E-01 -1.19332420E-01 -1.60854152E-01  1.14345644E+00
  1.00000000E+00  1.00000000E+00  3.34946043E-02  2.34726953E-01  8.13757326E-01
  1.00000000E+00  3.34946043E-02  2.34726953E-01  8.13757326E-01  1.00000000E+00
  3.34946043E-02  2.34726953E-01  8.13757326E-01  1.00000000E+00  3.34946043E-02
  2.34726953E-01  8.13757326E-01  1.00000000E+00  3.34946043E-02  2.34726953E-01
  8.13757326E-01  1.00000000E+00  3.34946043E-02  2.34726953E-01  8.13757326E-01
  1.00000000E+00  3.34946043E-02  2.34726953E-01  8.13757326E-01  1.00000000E+00
  3.34946043E-02  2.34726953E-01  8.13757326E-01  1.00000000E+00  3.34946043E-02
  2.34726953E-01  8.13757326E-01  1.00000000E+00  3.34946043E-02  2.34726953E-01
  8.13757326E-01  1.00000000E+00  3.34946043E-02  2.34726953E-01  8.13757326E-01
  1.00000000E+00  3.34946043E-02  2.34726953E-01  8.13757326E-01  1.00000000E+00
  3.34946043E-02  2.34726953E-01  8.13757326E-01  1.00000000E+00  3.34946043E-02
  2.34726953E-01  8.13757326E-01  1.00000000E+00  3.34946043E-02  2.34726953E-01
  8.13757326E-01  1.00000000E+00
P(S=P) Contraction coefficients            R   N=         192
  0.00000000E+00  0.00000000E+00  0.00000000E+00  0.00000000E+00  0.00000000E+00
  0.00000000E+00  6.75797439E-02  3.23907296E-01  7.40895140E-01  1.00000000E+00
  0.00000000E+00  0.00000000E+00  0.00000000E+00  0.00000000E+00  0.00000000E+00
  0.00000000E+00  0.00000000E+00  6.75797439E-02  3.23907296E-01  7.40895140E-01
  1.00000000E+00  0.00000000E+00  0.00000000E+00  0.00000000E+00  0.00000000E+00
  0.00000000E+00  0.00000000E+00  0.00000000E+00  6.89990666E-02  3.16423961E-01
  7.44308291E-01  1.00000000E+00  0.00000000E+00  0.00000000E+00  0.00000000E+00
  0.00000000E+00  0.00000000E+00  0.00000000E+00  0.00000000E+00  6.89990666E-02
  3.16423961E-01  7.44308291E-01  1.00000000E+00  0.00000000E+00  0.00000000E+00
  0.00000000E+00  0.00000000E+00  0.00000000E+00  0.00000000E+00  0.00000000E+00
  6.89990666E-02  3.16423961E-01  7.44308291E-01  1.00000000E+00  0.00000000E+00
  0.00000000E+00  0.00000000E+00  0.00000000E+00  0.00000000E+00  0.00000000E+00
  0.00000000E+00  6.89990666E-02  3.16423961E-01  7.44308291E-01  1.00000000E+00
  0.00000000E+00  0.00000000E+00  0.00000000E+00  0.00000000E+00  0.00000000E+00
  0.00000000E+00  0.00000000E+00  6.89990666E-02  3.16423961E-01  7.44308291E-01
  1.00000000E+00  0.00000000E+00  0.00000000E+00  0.00000000E+00  0.00000000E+00
  0.00000000E+00  0.00000000E+00  0.00000000E+00  6.89990666E-02  3.16423961E-01
  7.44308291E-01  1.00000000E+00  0.00000000E+00  0.00000000E+00  0.00000000E+00
  0.00000000E+00  0.00000000E+00  0.00000000E+00  0.00000000E+00  6.89990666E-02
  3.16423961E-01  7.44308291E-01  1.00000000E+00  0.00000000E+00  0.00000000E+00
  0.00000000E+00  0.00000000E+00  0.00000000E+00  0.00000000E+00  0.00000000E+00
  6.89990666E-02  3.16423961E-01  7.44308291E-01  1.00000000E+00  0.00000000E+00
  0.00000000E+00  0.00000000E+00  0.00000000E+00  0.00000000E+00  0.00000000E+00
  0.00000000E+00  6.89990666E-02  3.16423961E-01  7.44308291E-01  1.00000000E+00
  0.00000000E+00  0.00000000E+00  0.00000000E+00  0.00000000E+00  0.00000000E+00
  0.00000000E+00  0.00000000E+00  6.89990666E-02  3.16423961E-01  7.44308291E-01
  1.00000000E+00  0.00000000E+00  0.00000000E+00  0.00000000E+00  0.00000000E+00
  0.00000000E+00  0.00000000E+00  0.00000000E+00  0.00000000E+00  0.00000000E+00
  0.00000000E+00  0.00000000E+00  0.00000000E+00  0.00000000E+00  0.00000000E+00
  0.00000000E+00  0.00000000E+00  0.00000000E+00  0.00000000E+00  0.00000000E+00
  0.00000000E+00  0.00000000E+00  0.00000000E+00  0.00000000E+00  0.00000000E+00
  0.00000000E+00  0.00000000E+00  0.00000000E+00  0.00000000E+00  0.00000000E+00
  0.00000000E+00  0.00000000E+00  0.00000000E+00  0.00000000E+00  0.00000000E+00
  0.00000000E+00  0.00000000E+00  0.00000000E+00  0.00000000E+00  0.00000000E+00
  0.00000000E+00  0.00000000E+00  0.00000000E+00  0.00000000E+00  0.00000000E+00
  0.00000000E+00  0.00000000E+00  0.00000000E+00  0.00000000E+00  0.00000000E+00
  0.00000000E+00  0.00000000E+00  0.00000000E+00  0.00000000E+00  0.00000000E+00
  0.00000000E+00  0.00000000E+00  0.00000000E+00  0.00000000E+00  0.00000000E+00
  0.00000000E+00  0.00000000E+00
Coordinates of each shell                  R   N=         234
 -6.28970386E+00  3.67006560E-01 -3.73036759E-05 -6.28970386E+00  3.67006560E-01
 -3.73036759E-05 -6.28970386E+00  3.67006560E-01 -3.73036759E-05 -6.28970386E+00
  3.67006560E-01 -3.73036759E-05 -1.03858885E+00 -5.57258933E-01  5.61091237E-05
 -1.03858885E+00 -5.57258933E-01  5.61091237E-05 -1.03858885E+00 -5.57258933E-01
  5.61091237E-05 -1.03858885E+00 -5.57258933E-01  5.61091237E-05 -4.94606727E+00
 -4.79478948E-01 -2.37603744E+00 -4.94606727E+00 -4.79478948E-01 -2.37603744E+00
 -4.94606727E+00 -4.79478948E-01 -2.37603744E+00 -4.94606727E+00 -4.79478948E-01
 -2.37603744E+00 -4.94607268E+00 -4.79036272E-01  2.37612455E+00 -4.94607268E+00
 -4.79036272E-01  2.37612455E+00 -4.94607268E+00 -4.79036272E-01  2.37612455E+00
 -4.94607268E+00 -4.79036272E-01  2.37612455E+00 -2.23449760E+00  4.49350009E-01
 -2.26839996E+00 -2.23449760E+00  4.49350009E-01 -2.26839996E+00 -2.23449760E+00
  4.49350009E-01 -2.26839996E+00 -2.23449760E+00  4.49350009E-01 -2.26839996E+00
 -2.23450625E+00  4.49782392E-01  2.26831254E+00 -2.23450625E+00  4.49782392E-01
  2.26831254E+00 -2.23450625E+00  4.49782392E-01  2.26831254E+00 -2.23450625E+00
  4.49782392E-01  2.26831254E+00  1.67827830E+00 -2.38920470E-01  2.36169402E-05
  1.67827830E+00 -2.38920470E-01  2.36169402E-05  1.67827830E+00 -2.38920470E-01
  2.36169402E-05  1.67827830E+00 -2.38920470E-01  2.36169402E-05  2.79285925E+00
  2.16047402E+00 -1.79423681E-04  2.79285925E+00  2.16047402E+00 -1.79423681E-04
  2.79285925E+00  2.16047402E+00 -1.79423681E-04  2.79285925E+00  2.16047402E+00
 -1.79423681E-04  3.17105276E+00 -2.41478756E+00  2.13812653E-04  3.17105276E+00
 -2.41478756E+00  2.13812653E-04  3.17105276E+00 -2.41478756E+00  2.13812653E-04
  3.17105276E+00 -2.41478756E+00  2.13812653E-04  5.42261451E+00  2.36972634E+00
 -2.06181692E-04  5.42261451E+00  2.36972634E+00 -2.06181692E-04  5.42261451E+00
  2.36972634E+00 -2.06181692E-04  5.42261451E+00  2.36972634E+00 -2.06181692E-04
  5.79917668E+00 -2.19057016E+00  1.85141054E-04  5.79917668E+00 -2.19057016E+00
  1.85141054E-04  5.79917668E+00 -2.19057016E+00  1.85141054E-04  5.79917668E+00
 -2.19057016E+00  1.85141054E-04  6.92443270E+00  1.98016997E-01 -1.72199600E-05
  6.92443270E+00  1.98016997E-01 -1.72199600E-05  6.92443270E+00  1.98016997E-01
 -1.72199600E-05  6.92443270E+00  1.98016997E-01 -1.72199600E-05 -6.39728186E+00
  2.31063967E+00 -2.15853567E-04 -6.39728186E+00  2.31063967E+00 -2.15853567E-04
 -8.12363917E+00 -2.79673793E-01  1.98397254E-05 -8.12363917E+00 -2.79673793E-01
  1.98397254E-05 -5.99303804E+00  2.79309642E-01 -3.98656345E+00 -5.99303804E+00
  2.79309642E-01 -3.98656345E+00 -5.01656078E+00 -2.54066875E+00 -2.39032563E+00
 -5.01656078E+00 -2.54066875E+00 -2.39032563E+00 -5.01656051E+00 -2.54022344E+00
  2.39079165E+00 -5.01656051E+00 -2.54022344E+00  2.39079165E+00 -5.99304992E+00
  2.80048818E-01  3.98650639E+00 -5.99304992E+00  2.80048818E-01  3.98650639E+00
 -1.23245283E+00 -2.64041920E-01 -3.92932043E+00 -1.23245283E+00 -2.64041920E-01
 -3.92932043E+00 -2.19447520E+00  2.53876384E+00 -2.36746115E+00 -2.19447520E+00
  2.53876384E+00 -2.36746115E+00 -2.19450000E+00  2.53921760E+00  2.36697346E+00
 -2.19450000E+00  2.53921760E+00  2.36697346E+00 -1.23246008E+00 -2.63276953E-01
  3.92937494E+00 -1.23246008E+00 -2.63276953E-01  3.92937494E+00  1.63543966E+00
  3.86165150E+00 -3.27350986E-04  1.63543966E+00  3.86165150E+00 -3.27350986E-04
  2.25543498E+00 -4.25355364E+00  3.69307311E-04  2.25543498E+00 -4.25355364E+00
  3.69307311E-04  6.29917119E+00  4.22711020E+00 -3.61907381E-04  6.29917119E+00
  4.22711020E+00 -3.61907381E-04  6.96774692E+00 -3.87925478E+00  3.36435410E-04
  6.96774692E+00 -3.87925478E+00  3.36435410E-04  8.97065218E+00  3.68380547E-01
 -4.44909228E-05  8.97065218E+00  3.68380547E-01 -4.44909228E-05
Constraint Structure                       R   N=          81
 -6.28970386E+00  3.67006560E-01 -3.73036759E-05 -1.03858885E+00 -5.57258933E-01
  5.61091237E-05 -4.94606727E+00 -4.79478948E-01 -2.37603744E+00 -4.94607268E+00
 -4.79036272E-01  2.37612455E+00 -2.23449760E+00  4.49350009E-01 -2.26839996E+00
 -2.23450625E+00  4.49782392E-01  2.26831254E+00  1.67827830E+00 -2.38920470E-01
  2.36169402E-05  2.79285925E+00  2.16047402E+00 -1.79423681E-04  3.17105276E+00
 -2.41478756E+00  2.13812653E-04  5.42261451E+00  2.36972634E+00 -2.06181692E-04
  5.79917668E+00 -2.19057016E+00  1.85141054E-04  6.92443270E+00  1.98016997E-01
 -1.72199600E-05 -6.39728186E+00  2.31063967E+00 -2.15853567E-04 -8.12363917E+00
 -2.79673793E-01  1.98397254E-05 -5.99303804E+00  2.79309642E-01 -3.98656345E+00
 -5.01656078E+00 -2.54066875E+00 -2.39032563E+00 -5.01656051E+00 -2.54022344E+00
  2.39079165E+00 -5.99304992E+00  2.80048818E-01  3.98650639E+00 -1.23245283E+00
 -2.64041920E-01 -3.92932043E+00 -2.19447520E+00  2.53876384E+00 -2.36746115E+00
 -2.19450000E+00  2.53921760E+00  2.36697346E+00 -1.23246008E+00 -2.63276953E-01
  3.92937494E+00  1.63543966E+00  3.86165150E+00 -3.27350986E-04  2.25543498E+00
 -4.25355364E+00  3.69307311E-04  6.29917119E+00  4.22711020E+00 -3.61907381E-04
  6.96774692E+00 -3.87925478E+00  3.36435410E-04  8.97065218E+00  3.68380547E-01
 -4.44909228E-05
Num ILSW                                   I              100
ILSW                                       I   N=         100
           0           1           0           0           2           0
           0           0           0           0           0          -1
           0           0           0           0           0           0
           0           0           0           0           1           0
           1           0           0           0           0           0
           0           0      100000           0          -1           0
           0           0           0           0           0           0
           0           0           0           1           1           0
           0           0           1           0           0           0
           0           0           4          40           0           0
           0           0           0           0           0           0
           0           0           0           0           0           0
           0           0           0           0           0           0
           0           0           0           0           0           0
           0           0           0           0           0           0
           0           0           0           0           0           0
           0           0           0           0
Num RLSW                                   I               40
RLSW                                       R   N=          40
  1.00000000E+00  1.00000000E+00  1.00000000E+00  1.00000000E+00  1.00000000E+00
  0.00000000E+00  0.00000000E+00  1.00000000E+00  0.00000000E+00  0.00000000E+00
  0.00000000E+00  0.00000000E+00  1.00000000E+00  0.00000000E+00  0.00000000E+00
  0.00000000E+00  0.00000000E+00  1.00000000E+00  0.00000000E+00  0.00000000E+00
  0.00000000E+00  0.00000000E+00  1.00000000E+00  0.00000000E+00  0.00000000E+00
  0.00000000E+00  0.00000000E+00  1.00000000E+00  0.00000000E+00  0.00000000E+00
  0.00000000E+00  0.00000000E+00  0.00000000E+00  0.00000000E+00  0.00000000E+00
  0.00000000E+00  0.00000000E+00  0.00000000E+00  1.00000000E+00  1.00000000E+00
MxBond                                     I                4
NBond                                      I   N=          27
           4           3           4           4           4           4
           3           3           3           3           3           3
           1           1           1           1           1           1
           1           1           1           1           1           1
           1           1           1
IBond                                      I   N=         108
           3           4          13          14           5           6
           7           0           1           5          15          16
           1           6          17          18           2           3
          19          20           2           4          21          22
           2           8           9           0           7          10
          23           0           7          11          24           0
           8          12          25           0           9          12
          26           0          10          11          27           0
           1           0           0           0           1           0
           0           0           3           0           0           0
           3           0           0           0           4           0
           0           0           4           0           0           0
           5           0           0           0           5           0
           0           0           6           0           0           0