7580                                                                    
Freq      RMP2-FC                                                     6-31G(d)            
Number of atoms                            I               25
Info1-9                                    I   N=           9
          37          35        1002           0           0         100
           6           2           1
Charge                                     I                0
Multiplicity                               I                1
Number of electrons                        I               90
Number of alpha electrons                  I               45
Number of beta electrons                   I               45
Number of basis functions                  I              219
Number of independent functions            I              219
Number of point charges in /Mol/           I                0
Number of translation vectors              I                0
Atomic numbers                             I   N=          25
           6           6           6           6           6           6
           6           6           6           6           6           6
           6           1           1           1           1           1
           1           1           1           1           1           1
           1
Nuclear charges                            R   N=          25
  6.00000000E+00  6.00000000E+00  6.00000000E+00  6.00000000E+00  6.00000000E+00
  6.00000000E+00  6.00000000E+00  6.00000000E+00  6.00000000E+00  6.00000000E+00
  6.00000000E+00  6.00000000E+00  6.00000000E+00  1.00000000E+00  1.00000000E+00
  1.00000000E+00  1.00000000E+00  1.00000000E+00  1.00000000E+00  1.00000000E+00
  1.00000000E+00  1.00000000E+00  1.00000000E+00  1.00000000E+00  1.00000000E+00
Current cartesian coordinates              R   N=          75
  9.68061252E-06 -1.98657448E-03  2.86149306E+00 -2.36603245E+00 -1.16561360E-01
  1.26427771E+00  2.36602926E+00  1.14793636E-01  1.26439254E+00 -2.69107618E+00
 -2.08630171E+00 -4.78567778E-01  2.69098494E+00  2.08685879E+00 -4.75835030E-01
 -4.25561062E+00  1.72069600E+00  1.47340811E+00  4.25571904E+00 -1.72262002E+00
  1.47113590E+00 -4.86153676E+00 -2.21998385E+00 -1.96533017E+00  4.86142429E+00
  2.22258838E+00 -1.96244651E+00 -6.43141883E+00  1.59674605E+00 -1.88548189E-02
  6.43150483E+00 -1.59661374E+00 -2.09863792E-02 -6.74070083E+00 -3.76001457E-01
 -1.74017590E+00  6.74070119E+00  3.78432355E-01 -1.73968686E+00 -9.44573113E-02
  1.65575888E+00  4.10544952E+00  9.45022712E-02 -1.66144416E+00  4.10316392E+00
 -1.21726794E+00 -3.50864714E+00 -6.78446680E-01  1.21708608E+00  3.50936737E+00
 -6.73873169E-01 -4.02602628E+00  3.26054202E+00  2.81946980E+00  4.02619611E+00
 -3.26426648E+00  2.81514502E+00 -5.08822317E+00 -3.76091598E+00 -3.30661352E+00
  5.08804689E+00  3.76531407E+00 -3.30167751E+00 -7.88135457E+00  3.04191225E+00
  1.65395300E-01  7.88153637E+00 -3.04192167E+00  1.61389942E-01 -8.43142507E+00
 -4.77320526E-01 -2.90346958E+00  8.43140123E+00  4.81342414E-01 -2.90287630E+00
Force Field                                I                0
Int Atom Types                             I   N=          25
           0           0           0           0           0           0
           0           0           0           0           0           0
           0           0           0           0           0           0
           0           0           0           0           0           0
           0
MM charges                                 R   N=          25
  0.00000000E+00  0.00000000E+00  0.00000000E+00  0.00000000E+00  0.00000000E+00
  0.00000000E+00  0.00000000E+00  0.00000000E+00  0.00000000E+00  0.00000000E+00
  0.00000000E+00  0.00000000E+00  0.00000000E+00  0.00000000E+00  0.00000000E+00
  0.00000000E+00  0.00000000E+00  0.00000000E+00  0.00000000E+00  0.00000000E+00
  0.00000000E+00  0.00000000E+00  0.00000000E+00  0.00000000E+00  0.00000000E+00
Integer atomic weights                     I   N=          25
          12          12          12          12          12          12
          12          12          12          12          12          12
          12           1           1           1           1           1
           1           1           1           1           1           1
           1
Real atomic weights                        R   N=          25
  1.20000000E+01  1.20000000E+01  1.20000000E+01  1.20000000E+01  1.20000000E+01
  1.20000000E+01  1.20000000E+01  1.20000000E+01  1.20000000E+01  1.20000000E+01
  1.20000000E+01  1.20000000E+01  1.20000000E+01  1.00782504E+00  1.00782504E+00
  1.00782504E+00  1.00782504E+00  1.00782504E+00  1.00782504E+00  1.00782504E+00
  1.00782504E+00  1.00782504E+00  1.00782504E+00  1.00782504E+00  1.00782504E+00
Atom fragment info                         I   N=          25
           0           0           0           0           0           0
           0           0           0           0           0           0
           0           0           0           0           0           0
           0           0           0           0           0           0
           0
Atom residue num                           I   N=          25
           0           0           0           0           0           0
           0           0           0           0           0           0
           0           0           0           0           0           0
           0           0           0           0           0           0
           0
Nuclear spins                              I   N=          25
           0           0           0           0           0           0
           0           0           0           0           0           0
           0           1           1           1           1           1
           1           1           1           1           1           1
           1
Nuclear ZEff                               R   N=          25
 -3.60000000E+00 -3.60000000E+00 -3.60000000E+00 -3.60000000E+00 -3.60000000E+00
 -3.60000000E+00 -3.60000000E+00 -3.60000000E+00 -3.60000000E+00 -3.60000000E+00
 -3.60000000E+00 -3.60000000E+00 -3.60000000E+00 -1.00000000E+00 -1.00000000E+00
 -1.00000000E+00 -1.00000000E+00 -1.00000000E+00 -1.00000000E+00 -1.00000000E+00
 -1.00000000E+00 -1.00000000E+00 -1.00000000E+00 -1.00000000E+00 -1.00000000E+00
Nuclear QMom                               R   N=          25
  0.00000000E+00  0.00000000E+00  0.00000000E+00  0.00000000E+00  0.00000000E+00
  0.00000000E+00  0.00000000E+00  0.00000000E+00  0.00000000E+00  0.00000000E+00
  0.00000000E+00  0.00000000E+00  0.00000000E+00  0.00000000E+00  0.00000000E+00
  0.00000000E+00  0.00000000E+00  0.00000000E+00  0.00000000E+00  0.00000000E+00
  0.00000000E+00  0.00000000E+00  0.00000000E+00  0.00000000E+00  0.00000000E+00
Nuclear GFac                               R   N=          25
  0.00000000E+00  0.00000000E+00  0.00000000E+00  0.00000000E+00  0.00000000E+00
  0.00000000E+00  0.00000000E+00  0.00000000E+00  0.00000000E+00  0.00000000E+00
  0.00000000E+00  0.00000000E+00  0.00000000E+00  2.79284600E+00  2.79284600E+00
  2.79284600E+00  2.79284600E+00  2.79284600E+00  2.79284600E+00  2.79284600E+00
  2.79284600E+00  2.79284600E+00  2.79284600E+00  2.79284600E+00  2.79284600E+00
MicOpt                                     I   N=          25
          -1          -1          -1          -1          -1          -1
          -1          -1          -1          -1          -1          -1
          -1          -1          -1          -1          -1          -1
          -1          -1          -1          -1          -1          -1
          -1
Number of contracted shells                I               76
Number of primitive shells                 I              191
Pure/Cartesian d shells                    I                1
Pure/Cartesian f shells                    I                0
Highest angular momentum                   I                2
Largest degree of contraction              I                6
Shell types                                I   N=          76
           0          -1          -1           2           0          -1
          -1           2           0          -1          -1           2
           0          -1          -1           2           0          -1
          -1           2           0          -1          -1           2
           0          -1          -1           2           0          -1
          -1           2           0          -1          -1           2
           0          -1          -1           2           0          -1
          -1           2           0          -1          -1           2
           0          -1          -1           2           0           0
           0           0           0           0           0           0
           0           0           0           0           0           0
           0           0           0           0           0           0
           0           0           0           0
Number of primitives per shell             I   N=          76
           6           3           1           1           6           3
           1           1           6           3           1           1
           6           3           1           1           6           3
           1           1           6           3           1           1
           6           3           1           1           6           3
           1           1           6           3           1           1
           6           3           1           1           6           3
           1           1           6           3           1           1
           6           3           1           1           3           1
           3           1           3           1           3           1
           3           1           3           1           3           1
           3           1           3           1           3           1
           3           1           3           1
Shell to atom map                          I   N=          76
           1           1           1           1           2           2
           2           2           3           3           3           3
           4           4           4           4           5           5
           5           5           6           6           6           6
           7           7           7           7           8           8
           8           8           9           9           9           9
          10          10          10          10          11          11
          11          11          12          12          12          12
          13          13          13          13          14          14
          15          15          16          16          17          17
          18          18          19          19          20          20
          21          21          22          22          23          23
          24          24          25          25
Primitive exponents                        R   N=         191
  3.04752488E+03  4.57369518E+02  1.03948685E+02  2.92101553E+01  9.28666296E+00
  3.16392696E+00  7.86827235E+00  1.88128854E+00  5.44249258E-01  1.68714478E-01
  8.00000000E-01  3.04752488E+03  4.57369518E+02  1.03948685E+02  2.92101553E+01
  9.28666296E+00  3.16392696E+00  7.86827235E+00  1.88128854E+00  5.44249258E-01
  1.68714478E-01  8.00000000E-01  3.04752488E+03  4.57369518E+02  1.03948685E+02
  2.92101553E+01  9.28666296E+00  3.16392696E+00  7.86827235E+00  1.88128854E+00
  5.44249258E-01  1.68714478E-01  8.00000000E-01  3.04752488E+03  4.57369518E+02
  1.03948685E+02  2.92101553E+01  9.28666296E+00  3.16392696E+00  7.86827235E+00
  1.88128854E+00  5.44249258E-01  1.68714478E-01  8.00000000E-01  3.04752488E+03
  4.57369518E+02  1.03948685E+02  2.92101553E+01  9.28666296E+00  3.16392696E+00
  7.86827235E+00  1.88128854E+00  5.44249258E-01  1.68714478E-01  8.00000000E-01
  3.04752488E+03  4.57369518E+02  1.03948685E+02  2.92101553E+01  9.28666296E+00
  3.16392696E+00  7.86827235E+00  1.88128854E+00  5.44249258E-01  1.68714478E-01
  8.00000000E-01  3.04752488E+03  4.57369518E+02  1.03948685E+02  2.92101553E+01
  9.28666296E+00  3.16392696E+00  7.86827235E+00  1.88128854E+00  5.44249258E-01
  1.68714478E-01  8.00000000E-01  3.04752488E+03  4.57369518E+02  1.03948685E+02
  2.92101553E+01  9.28666296E+00  3.16392696E+00  7.86827235E+00  1.88128854E+00
  5.44249258E-01  1.68714478E-01  8.00000000E-01  3.04752488E+03  4.57369518E+02
  1.03948685E+02  2.92101553E+01  9.28666296E+00  3.16392696E+00  7.86827235E+00
  1.88128854E+00  5.44249258E-01  1.68714478E-01  8.00000000E-01  3.04752488E+03
  4.57369518E+02  1.03948685E+02  2.92101553E+01  9.28666296E+00  3.16392696E+00
  7.86827235E+00  1.88128854E+00  5.44249258E-01  1.68714478E-01  8.00000000E-01
  3.04752488E+03  4.57369518E+02  1.03948685E+02  2.92101553E+01  9.28666296E+00
  3.16392696E+00  7.86827235E+00  1.88128854E+00  5.44249258E-01  1.68714478E-01
  8.00000000E-01  3.04752488E+03  4.57369518E+02  1.03948685E+02  2.92101553E+01
  9.28666296E+00  3.16392696E+00  7.86827235E+00  1.88128854E+00  5.44249258E-01
  1.68714478E-01  8.00000000E-01  3.04752488E+03  4.57369518E+02  1.03948685E+02
  2.92101553E+01  9.28666296E+00  3.16392696E+00  7.86827235E+00  1.88128854E+00
  5.44249258E-01  1.68714478E-01  8.00000000E-01  1.87311370E+01  2.82539436E+00
  6.40121692E-01  1.61277759E-01  1.87311370E+01  2.82539436E+00  6.40121692E-01
  1.61277759E-01  1.87311370E+01  2.82539436E+00  6.40121692E-01  1.61277759E-01
  1.87311370E+01  2.82539436E+00  6.40121692E-01  1.61277759E-01  1.87311370E+01
  2.82539436E+00  6.40121692E-01  1.61277759E-01  1.87311370E+01  2.82539436E+00
  6.40121692E-01  1.61277759E-01  1.87311370E+01  2.82539436E+00  6.40121692E-01
  1.61277759E-01  1.87311370E+01  2.82539436E+00  6.40121692E-01  1.61277759E-01
  1.87311370E+01  2.82539436E+00  6.40121692E-01  1.61277759E-01  1.87311370E+01
  2.82539436E+00  6.40121692E-01  1.61277759E-01  1.87311370E+01  2.82539436E+00
  6.40121692E-01  1.61277759E-01  1.87311370E+01  2.82539436E+00  6.40121692E-01
  1.61277759E-01
Contraction coefficients                   R   N=         191
  1.83473713E-03  1.40373228E-02  6.88426223E-02  2.32184443E-01  4.67941348E-01
  3.62311985E-01 -1.19332420E-01 -1.60854152E-01  1.14345644E+00  1.00000000E+00
  1.00000000E+00  1.83473713E-03  1.40373228E-02  6.88426223E-02  2.32184443E-01
  4.67941348E-01  3.62311985E-01 -1.19332420E-01 -1.60854152E-01  1.14345644E+00
  1.00000000E+00  1.00000000E+00  1.83473713E-03  1.40373228E-02  6.88426223E-02
  2.32184443E-01  4.67941348E-01  3.62311985E-01 -1.19332420E-01 -1.60854152E-01
  1.14345644E+00  1.00000000E+00  1.00000000E+00  1.83473713E-03  1.40373228E-02
  6.88426223E-02  2.32184443E-01  4.67941348E-01  3.62311985E-01 -1.19332420E-01
 -1.60854152E-01  1.14345644E+00  1.00000000E+00  1.00000000E+00  1.83473713E-03
  1.40373228E-02  6.88426223E-02  2.32184443E-01  4.67941348E-01  3.62311985E-01
 -1.19332420E-01 -1.60854152E-01  1.14345644E+00  1.00000000E+00  1.00000000E+00
  1.83473713E-03  1.40373228E-02  6.88426223E-02  2.32184443E-01  4.67941348E-01
  3.62311985E-01 -1.19332420E-01 -1.60854152E-01  1.14345644E+00  1.00000000E+00
  1.00000000E+00  1.83473713E-03  1.40373228E-02  6.88426223E-02  2.32184443E-01
  4.67941348E-01  3.62311985E-01 -1.19332420E-01 -1.60854152E-01  1.14345644E+00
  1.00000000E+00  1.00000000E+00  1.83473713E-03  1.40373228E-02  6.88426223E-02
  2.32184443E-01  4.67941348E-01  3.62311985E-01 -1.19332420E-01 -1.60854152E-01
  1.14345644E+00  1.00000000E+00  1.00000000E+00  1.83473713E-03  1.40373228E-02
  6.88426223E-02  2.32184443E-01  4.67941348E-01  3.62311985E-01 -1.19332420E-01
 -1.60854152E-01  1.14345644E+00  1.00000000E+00  1.00000000E+00  1.83473713E-03
  1.40373228E-02  6.88426223E-02  2.32184443E-01  4.67941348E-01  3.62311985E-01
 -1.19332420E-01 -1.60854152E-01  1.14345644E+00  1.00000000E+00  1.00000000E+00
  1.83473713E-03  1.40373228E-02  6.88426223E-02  2.32184443E-01  4.67941348E-01
  3.62311985E-01 -1.19332420E-01 -1.60854152E-01  1.14345644E+00  1.00000000E+00
  1.00000000E+00  1.83473713E-03  1.40373228E-02  6.88426223E-02  2.32184443E-01
  4.67941348E-01  3.62311985E-01 -1.19332420E-01 -1.60854152E-01  1.14345644E+00
  1.00000000E+00  1.00000000E+00  1.83473713E-03  1.40373228E-02  6.88426223E-02
  2.32184443E-01  4.67941348E-01  3.62311985E-01 -1.19332420E-01 -1.60854152E-01
  1.14345644E+00  1.00000000E+00  1.00000000E+00  3.34946043E-02  2.34726953E-01
  8.13757326E-01  1.00000000E+00  3.34946043E-02  2.34726953E-01  8.13757326E-01
  1.00000000E+00  3.34946043E-02  2.34726953E-01  8.13757326E-01  1.00000000E+00
  3.34946043E-02  2.34726953E-01  8.13757326E-01  1.00000000E+00  3.34946043E-02
  2.34726953E-01  8.13757326E-01  1.00000000E+00  3.34946043E-02  2.34726953E-01
  8.13757326E-01  1.00000000E+00  3.34946043E-02  2.34726953E-01  8.13757326E-01
  1.00000000E+00  3.34946043E-02  2.34726953E-01  8.13757326E-01  1.00000000E+00
  3.34946043E-02  2.34726953E-01  8.13757326E-01  1.00000000E+00  3.34946043E-02
  2.34726953E-01  8.13757326E-01  1.00000000E+00  3.34946043E-02  2.34726953E-01
  8.13757326E-01  1.00000000E+00  3.34946043E-02  2.34726953E-01  8.13757326E-01
  1.00000000E+00
P(S=P) Contraction coefficients            R   N=         191
  0.00000000E+00  0.00000000E+00  0.00000000E+00  0.00000000E+00  0.00000000E+00
  0.00000000E+00  6.89990666E-02  3.16423961E-01  7.44308291E-01  1.00000000E+00
  0.00000000E+00  0.00000000E+00  0.00000000E+00  0.00000000E+00  0.00000000E+00
  0.00000000E+00  0.00000000E+00  6.89990666E-02  3.16423961E-01  7.44308291E-01
  1.00000000E+00  0.00000000E+00  0.00000000E+00  0.00000000E+00  0.00000000E+00
  0.00000000E+00  0.00000000E+00  0.00000000E+00  6.89990666E-02  3.16423961E-01
  7.44308291E-01  1.00000000E+00  0.00000000E+00  0.00000000E+00  0.00000000E+00
  0.00000000E+00  0.00000000E+00  0.00000000E+00  0.00000000E+00  6.89990666E-02
  3.16423961E-01  7.44308291E-01  1.00000000E+00  0.00000000E+00  0.00000000E+00
  0.00000000E+00  0.00000000E+00  0.00000000E+00  0.00000000E+00  0.00000000E+00
  6.89990666E-02  3.16423961E-01  7.44308291E-01  1.00000000E+00  0.00000000E+00
  0.00000000E+00  0.00000000E+00  0.00000000E+00  0.00000000E+00  0.00000000E+00
  0.00000000E+00  6.89990666E-02  3.16423961E-01  7.44308291E-01  1.00000000E+00
  0.00000000E+00  0.00000000E+00  0.00000000E+00  0.00000000E+00  0.00000000E+00
  0.00000000E+00  0.00000000E+00  6.89990666E-02  3.16423961E-01  7.44308291E-01
  1.00000000E+00  0.00000000E+00  0.00000000E+00  0.00000000E+00  0.00000000E+00
  0.00000000E+00  0.00000000E+00  0.00000000E+00  6.89990666E-02  3.16423961E-01
  7.44308291E-01  1.00000000E+00  0.00000000E+00  0.00000000E+00  0.00000000E+00
  0.00000000E+00  0.00000000E+00  0.00000000E+00  0.00000000E+00  6.89990666E-02
  3.16423961E-01  7.44308291E-01  1.00000000E+00  0.00000000E+00  0.00000000E+00
  0.00000000E+00  0.00000000E+00  0.00000000E+00  0.00000000E+00  0.00000000E+00
  6.89990666E-02  3.16423961E-01  7.44308291E-01  1.00000000E+00  0.00000000E+00
  0.00000000E+00  0.00000000E+00  0.00000000E+00  0.00000000E+00  0.00000000E+00
  0.00000000E+00  6.89990666E-02  3.16423961E-01  7.44308291E-01  1.00000000E+00
  0.00000000E+00  0.00000000E+00  0.00000000E+00  0.00000000E+00  0.00000000E+00
  0.00000000E+00  0.00000000E+00  6.89990666E-02  3.16423961E-01  7.44308291E-01
  1.00000000E+00  0.00000000E+00  0.00000000E+00  0.00000000E+00  0.00000000E+00
  0.00000000E+00  0.00000000E+00  0.00000000E+00  6.89990666E-02  3.16423961E-01
  7.44308291E-01  1.00000000E+00  0.00000000E+00  0.00000000E+00  0.00000000E+00
  0.00000000E+00  0.00000000E+00  0.00000000E+00  0.00000000E+00  0.00000000E+00
  0.00000000E+00  0.00000000E+00  0.00000000E+00  0.00000000E+00  0.00000000E+00
  0.00000000E+00  0.00000000E+00  0.00000000E+00  0.00000000E+00  0.00000000E+00
  0.00000000E+00  0.00000000E+00  0.00000000E+00  0.00000000E+00  0.00000000E+00
  0.00000000E+00  0.00000000E+00  0.00000000E+00  0.00000000E+00  0.00000000E+00
  0.00000000E+00  0.00000000E+00  0.00000000E+00  0.00000000E+00  0.00000000E+00
  0.00000000E+00  0.00000000E+00  0.00000000E+00  0.00000000E+00  0.00000000E+00
  0.00000000E+00  0.00000000E+00  0.00000000E+00  0.00000000E+00  0.00000000E+00
  0.00000000E+00  0.00000000E+00  0.00000000E+00  0.00000000E+00  0.00000000E+00
  0.00000000E+00
Coordinates of each shell                  R   N=         228
  9.68061252E-06 -1.98657448E-03  2.86149306E+00  9.68061252E-06 -1.98657448E-03
  2.86149306E+00  9.68061252E-06 -1.98657448E-03  2.86149306E+00  9.68061252E-06
 -1.98657448E-03  2.86149306E+00 -2.36603245E+00 -1.16561360E-01  1.26427771E+00
 -2.36603245E+00 -1.16561360E-01  1.26427771E+00 -2.36603245E+00 -1.16561360E-01
  1.26427771E+00 -2.36603245E+00 -1.16561360E-01  1.26427771E+00  2.36602926E+00
  1.14793636E-01  1.26439254E+00  2.36602926E+00  1.14793636E-01  1.26439254E+00
  2.36602926E+00  1.14793636E-01  1.26439254E+00  2.36602926E+00  1.14793636E-01
  1.26439254E+00 -2.69107618E+00 -2.08630171E+00 -4.78567778E-01 -2.69107618E+00
 -2.08630171E+00 -4.78567778E-01 -2.69107618E+00 -2.08630171E+00 -4.78567778E-01
 -2.69107618E+00 -2.08630171E+00 -4.78567778E-01  2.69098494E+00  2.08685879E+00
 -4.75835030E-01  2.69098494E+00  2.08685879E+00 -4.75835030E-01  2.69098494E+00
  2.08685879E+00 -4.75835030E-01  2.69098494E+00  2.08685879E+00 -4.75835030E-01
 -4.25561062E+00  1.72069600E+00  1.47340811E+00 -4.25561062E+00  1.72069600E+00
  1.47340811E+00 -4.25561062E+00  1.72069600E+00  1.47340811E+00 -4.25561062E+00
  1.72069600E+00  1.47340811E+00  4.25571904E+00 -1.72262002E+00  1.47113590E+00
  4.25571904E+00 -1.72262002E+00  1.47113590E+00  4.25571904E+00 -1.72262002E+00
  1.47113590E+00  4.25571904E+00 -1.72262002E+00  1.47113590E+00 -4.86153676E+00
 -2.21998385E+00 -1.96533017E+00 -4.86153676E+00 -2.21998385E+00 -1.96533017E+00
 -4.86153676E+00 -2.21998385E+00 -1.96533017E+00 -4.86153676E+00 -2.21998385E+00
 -1.96533017E+00  4.86142429E+00  2.22258838E+00 -1.96244651E+00  4.86142429E+00
  2.22258838E+00 -1.96244651E+00  4.86142429E+00  2.22258838E+00 -1.96244651E+00
  4.86142429E+00  2.22258838E+00 -1.96244651E+00 -6.43141883E+00  1.59674605E+00
 -1.88548189E-02 -6.43141883E+00  1.59674605E+00 -1.88548189E-02 -6.43141883E+00
  1.59674605E+00 -1.88548189E-02 -6.43141883E+00  1.59674605E+00 -1.88548189E-02
  6.43150483E+00 -1.59661374E+00 -2.09863792E-02  6.43150483E+00 -1.59661374E+00
 -2.09863792E-02  6.43150483E+00 -1.59661374E+00 -2.09863792E-02  6.43150483E+00
 -1.59661374E+00 -2.09863792E-02 -6.74070083E+00 -3.76001457E-01 -1.74017590E+00
 -6.74070083E+00 -3.76001457E-01 -1.74017590E+00 -6.74070083E+00 -3.76001457E-01
 -1.74017590E+00 -6.74070083E+00 -3.76001457E-01 -1.74017590E+00  6.74070119E+00
  3.78432355E-01 -1.73968686E+00  6.74070119E+00  3.78432355E-01 -1.73968686E+00
  6.74070119E+00  3.78432355E-01 -1.73968686E+00  6.74070119E+00  3.78432355E-01
 -1.73968686E+00 -9.44573113E-02  1.65575888E+00  4.10544952E+00 -9.44573113E-02
  1.65575888E+00  4.10544952E+00  9.45022712E-02 -1.66144416E+00  4.10316392E+00
  9.45022712E-02 -1.66144416E+00  4.10316392E+00 -1.21726794E+00 -3.50864714E+00
 -6.78446680E-01 -1.21726794E+00 -3.50864714E+00 -6.78446680E-01  1.21708608E+00
  3.50936737E+00 -6.73873169E-01  1.21708608E+00  3.50936737E+00 -6.73873169E-01
 -4.02602628E+00  3.26054202E+00  2.81946980E+00 -4.02602628E+00  3.26054202E+00
  2.81946980E+00  4.02619611E+00 -3.26426648E+00  2.81514502E+00  4.02619611E+00
 -3.26426648E+00  2.81514502E+00 -5.08822317E+00 -3.76091598E+00 -3.30661352E+00
 -5.08822317E+00 -3.76091598E+00 -3.30661352E+00  5.08804689E+00  3.76531407E+00
 -3.30167751E+00  5.08804689E+00  3.76531407E+00 -3.30167751E+00 -7.88135457E+00
  3.04191225E+00  1.65395300E-01 -7.88135457E+00  3.04191225E+00  1.65395300E-01
  7.88153637E+00 -3.04192167E+00  1.61389942E-01  7.88153637E+00 -3.04192167E+00
  1.61389942E-01 -8.43142507E+00 -4.77320526E-01 -2.90346958E+00 -8.43142507E+00
 -4.77320526E-01 -2.90346958E+00  8.43140123E+00  4.81342414E-01 -2.90287630E+00
  8.43140123E+00  4.81342414E-01 -2.90287630E+00
Constraint Structure                       R   N=          75
  9.68061252E-06 -1.98657448E-03  2.86149306E+00 -2.36603245E+00 -1.16561360E-01
  1.26427771E+00  2.36602926E+00  1.14793636E-01  1.26439254E+00 -2.69107618E+00
 -2.08630171E+00 -4.78567778E-01  2.69098494E+00  2.08685879E+00 -4.75835030E-01
 -4.25561062E+00  1.72069600E+00  1.47340811E+00  4.25571904E+00 -1.72262002E+00
  1.47113590E+00 -4.86153676E+00 -2.21998385E+00 -1.96533017E+00  4.86142429E+00
  2.22258838E+00 -1.96244651E+00 -6.43141883E+00  1.59674605E+00 -1.88548189E-02
  6.43150483E+00 -1.59661374E+00 -2.09863792E-02 -6.74070083E+00 -3.76001457E-01
 -1.74017590E+00  6.74070119E+00  3.78432355E-01 -1.73968686E+00 -9.44573113E-02
  1.65575888E+00  4.10544952E+00  9.45022712E-02 -1.66144416E+00  4.10316392E+00
 -1.21726794E+00 -3.50864714E+00 -6.78446680E-01  1.21708608E+00  3.50936737E+00
 -6.73873169E-01 -4.02602628E+00  3.26054202E+00  2.81946980E+00  4.02619611E+00
 -3.26426648E+00  2.81514502E+00 -5.08822317E+00 -3.76091598E+00 -3.30661352E+00
  5.08804689E+00  3.76531407E+00 -3.30167751E+00 -7.88135457E+00  3.04191225E+00
  1.65395300E-01  7.88153637E+00 -3.04192167E+00  1.61389942E-01 -8.43142507E+00
 -4.77320526E-01 -2.90346958E+00  8.43140123E+00  4.81342414E-01 -2.90287630E+00
Num ILSW                                   I              100
ILSW                                       I   N=         100
           0           1           0           1           2           0
           0           0           0           0           0          -1
           0           0           0           0           0           0
           0           0           0           0           1           0
           1           0           0           0           0           0
           0           0      100000           0          -1           0
           0           0           0           0           0           0
           0           0           0           1           1           0
           0           0           1           0           0           0
           0           0           4          40           0           0
           0           0           0           0           0           0
           0           0           0           0           0           0
           0           0           0           0           0           0
           0           0           0           0           0           0
           0           0           0           0           0           0
           0           0           0           0           0           0
           0           0           0           0
Num RLSW                                   I               40
RLSW                                       R   N=          40
  1.00000000E+00  1.00000000E+00  1.00000000E+00  1.00000000E+00  1.00000000E+00
  0.00000000E+00  0.00000000E+00  1.00000000E+00  0.00000000E+00  0.00000000E+00
  0.00000000E+00  0.00000000E+00  1.00000000E+00  0.00000000E+00  0.00000000E+00
  0.00000000E+00  0.00000000E+00  1.00000000E+00  0.00000000E+00  0.00000000E+00
  0.00000000E+00  0.00000000E+00  1.00000000E+00  0.00000000E+00  0.00000000E+00
  0.00000000E+00  0.00000000E+00  1.00000000E+00  0.00000000E+00  0.00000000E+00
  0.00000000E+00  0.00000000E+00  0.00000000E+00  0.00000000E+00  0.00000000E+00
  0.00000000E+00  0.00000000E+00  0.00000000E+00  1.00000000E+00  1.00000000E+00
MxBond                                     I                4
NBond                                      I   N=          25
           4           3           3           3           3           3
           3           3           3           3           3           3
           3           1           1           1           1           1
           1           1           1           1           1           1
           1
IBond                                      I   N=         100
           2           3          14          15           1           4
           6           0           1           5           7           0
           2           8          16           0           3           9
          17           0           2          10          18           0
           3          11          19           0           4          12
          20           0           5          13          21           0
           6          12          22           0           7          13
          23           0           8          10          24           0
           9          11          25           0           1           0
           0           0           1           0           0           0
           4           0           0           0           5           0
           0           0           6           0           0           0
           7           0           0           0           8           0
           0           0           9           0           0           0
          10           0           0           0          11           0
           0           0          12           0           0           0
          13           0           0           0
RBond                                      R   N=         100
  1.00000000E+00  1.00000000E+00  1.00000000E+00  1.00000000E+00  1.00000000E+00
  1.50000000E+00  1.50000000E+00  0.00000000E+00  1.00000000E+00  1.50000000E+00
  1.50000000E+00  0.00000000E+00  1.50000000E+00  1.50000000E+00  1.00000000E+00
  0.00000000E+00  1.50000000E+00  1.50000000E+00  1.00000000E+00  0.00000000E+00
  1.50000000E+00  1.50000000E+00  1.00000000E+00  0.00000000E+00  1.50000000E+00
  1.50000000E+00  1.00000000E+00  0.00000000E+00  1.50000000E+00  1.50000000E+00
  1.00000000E+00  0.00000000E+00  1.50000000E+00  1.50000000E+00  1.00000000E+00