083_EthylMethylThioether Gaussian SP Calculation on node144.bme.utexas.e
Freq      RMP2-FC                                                     6-31G(d)            
Number of atoms                            I               12
Info1-9                                    I   N=           9
          23          22        1002           0           0         100
           6           2           1
Charge                                     I                0
Multiplicity                               I                1
Number of electrons                        I               42
Number of alpha electrons                  I               21
Number of beta electrons                   I               21
Number of basis functions                  I               80
Number of independent functions            I               80
Number of point charges in /Mol/           I                0
Number of translation vectors              I                0
Atomic numbers                             I   N=          12
           6          16           6           6           1           1
           1           1           1           1           1           1
Nuclear charges                            R   N=          12
  6.00000000E+00  1.60000000E+01  6.00000000E+00  6.00000000E+00  1.00000000E+00
  1.00000000E+00  1.00000000E+00  1.00000000E+00  1.00000000E+00  1.00000000E+00
  1.00000000E+00  1.00000000E+00
Current cartesian coordinates              R   N=          36
 -3.41392155E+00  1.63677685E+00  0.00000000E+00  2.22044605E-16  1.53933941E+00
  0.00000000E+00  4.28358958E-01 -1.86203596E+00  0.00000000E+00  3.23597469E+00
 -2.50267731E+00  0.00000000E+00 -4.18931799E+00  7.30483042E-01  1.68570399E+00
 -3.98270486E+00  3.61997167E+00  0.00000000E+00 -4.18931799E+00  7.30483042E-01
 -1.68570399E+00 -4.88809304E-01 -2.66206817E+00  1.67341607E+00 -4.88809304E-01
 -2.66206817E+00 -1.67341607E+00  4.16941490E+00 -1.73306952E+00 -1.67361813E+00
  4.16941490E+00 -1.73306952E+00  1.67361813E+00  3.49765704E+00 -4.55247430E+00
  0.00000000E+00
Force Field                                I                0
Int Atom Types                             I   N=          12
           0           0           0           0           0           0
           0           0           0           0           0           0
MM charges                                 R   N=          12
  0.00000000E+00  0.00000000E+00  0.00000000E+00  0.00000000E+00  0.00000000E+00
  0.00000000E+00  0.00000000E+00  0.00000000E+00  0.00000000E+00  0.00000000E+00
  0.00000000E+00  0.00000000E+00
Integer atomic weights                     I   N=          12
          12          32          12          12           1           1
           1           1           1           1           1           1
Real atomic weights                        R   N=          12
  1.20000000E+01  3.19720718E+01  1.20000000E+01  1.20000000E+01  1.00782504E+00
  1.00782504E+00  1.00782504E+00  1.00782504E+00  1.00782504E+00  1.00782504E+00
  1.00782504E+00  1.00782504E+00
Atom fragment info                         I   N=          12
           0           0           0           0           0           0
           0           0           0           0           0           0
Atom residue num                           I   N=          12
           0           0           0           0           0           0
           0           0           0           0           0           0
Nuclear spins                              I   N=          12
           0           0           0           0           1           1
           1           1           1           1           1           1
Nuclear ZEff                               R   N=          12
 -3.60000000E+00 -1.36000000E+01 -3.60000000E+00 -3.60000000E+00 -1.00000000E+00
 -1.00000000E+00 -1.00000000E+00 -1.00000000E+00 -1.00000000E+00 -1.00000000E+00
 -1.00000000E+00 -1.00000000E+00
Nuclear QMom                               R   N=          12
  0.00000000E+00  0.00000000E+00  0.00000000E+00  0.00000000E+00  0.00000000E+00
  0.00000000E+00  0.00000000E+00  0.00000000E+00  0.00000000E+00  0.00000000E+00
  0.00000000E+00  0.00000000E+00
Nuclear GFac                               R   N=          12
  0.00000000E+00  0.00000000E+00  0.00000000E+00  0.00000000E+00  2.79284600E+00
  2.79284600E+00  2.79284600E+00  2.79284600E+00  2.79284600E+00  2.79284600E+00
  2.79284600E+00  2.79284600E+00
MicOpt                                     I   N=          12
          -1          -1          -1          -1          -1          -1
          -1          -1          -1          -1          -1          -1
Number of contracted shells                I               33
Number of primitive shells                 I               82
Pure/Cartesian d shells                    I                1
Pure/Cartesian f shells                    I                0
Highest angular momentum                   I                2
Largest degree of contraction              I                6
Shell types                                I   N=          33
           0          -1          -1           2           0          -1
          -1          -1           2           0          -1          -1
           2           0          -1          -1           2           0
           0           0           0           0           0           0
           0           0           0           0           0           0
           0           0           0
Number of primitives per shell             I   N=          33
           6           3           1           1           6           6
           3           1           1           6           3           1
           1           6           3           1           1           3
           1           3           1           3           1           3
           1           3           1           3           1           3
           1           3           1
Shell to atom map                          I   N=          33
           1           1           1           1           2           2
           2           2           2           3           3           3
           3           4           4           4           4           5
           5           6           6           7           7           8
           8           9           9          10          10          11
          11          12          12
Primitive exponents                        R   N=          82
  3.04752488E+03  4.57369518E+02  1.03948685E+02  2.92101553E+01  9.28666296E+00
  3.16392696E+00  7.86827235E+00  1.88128854E+00  5.44249258E-01  1.68714478E-01
  8.00000000E-01  2.19171000E+04  3.30149000E+03  7.54146000E+02  2.12711000E+02
  6.79896000E+01  2.30515000E+01  4.23735000E+02  1.00710000E+02  3.21599000E+01
  1.18079000E+01  4.63110000E+00  1.87025000E+00  2.61584000E+00  9.22167000E-01
  3.41287000E-01  1.17167000E-01  6.50000000E-01  3.04752488E+03  4.57369518E+02
  1.03948685E+02  2.92101553E+01  9.28666296E+00  3.16392696E+00  7.86827235E+00
  1.88128854E+00  5.44249258E-01  1.68714478E-01  8.00000000E-01  3.04752488E+03
  4.57369518E+02  1.03948685E+02  2.92101553E+01  9.28666296E+00  3.16392696E+00
  7.86827235E+00  1.88128854E+00  5.44249258E-01  1.68714478E-01  8.00000000E-01
  1.87311370E+01  2.82539436E+00  6.40121692E-01  1.61277759E-01  1.87311370E+01
  2.82539436E+00  6.40121692E-01  1.61277759E-01  1.87311370E+01  2.82539436E+00
  6.40121692E-01  1.61277759E-01  1.87311370E+01  2.82539436E+00  6.40121692E-01
  1.61277759E-01  1.87311370E+01  2.82539436E+00  6.40121692E-01  1.61277759E-01
  1.87311370E+01  2.82539436E+00  6.40121692E-01  1.61277759E-01  1.87311370E+01
  2.82539436E+00  6.40121692E-01  1.61277759E-01  1.87311370E+01  2.82539436E+00
  6.40121692E-01  1.61277759E-01
Contraction coefficients                   R   N=          82
  1.83473713E-03  1.40373228E-02  6.88426223E-02  2.32184443E-01  4.67941348E-01
  3.62311985E-01 -1.19332420E-01 -1.60854152E-01  1.14345644E+00  1.00000000E+00
  1.00000000E+00  1.86924085E-03  1.42303065E-02  6.96962317E-02  2.38487108E-01
  4.83307220E-01  3.38074154E-01 -2.37677050E-03 -3.16930067E-02 -1.13317024E-01
  5.60900118E-02  5.92255124E-01  4.55006095E-01 -2.50373114E-01  6.69567631E-02
  1.05450627E+00  1.00000000E+00  1.00000000E+00  1.83473713E-03  1.40373228E-02
  6.88426223E-02  2.32184443E-01  4.67941348E-01  3.62311985E-01 -1.19332420E-01
 -1.60854152E-01  1.14345644E+00  1.00000000E+00  1.00000000E+00  1.83473713E-03
  1.40373228E-02  6.88426223E-02  2.32184443E-01  4.67941348E-01  3.62311985E-01
 -1.19332420E-01 -1.60854152E-01  1.14345644E+00  1.00000000E+00  1.00000000E+00
  3.34946043E-02  2.34726953E-01  8.13757326E-01  1.00000000E+00  3.34946043E-02
  2.34726953E-01  8.13757326E-01  1.00000000E+00  3.34946043E-02  2.34726953E-01
  8.13757326E-01  1.00000000E+00  3.34946043E-02  2.34726953E-01  8.13757326E-01
  1.00000000E+00  3.34946043E-02  2.34726953E-01  8.13757326E-01  1.00000000E+00
  3.34946043E-02  2.34726953E-01  8.13757326E-01  1.00000000E+00  3.34946043E-02
  2.34726953E-01  8.13757326E-01  1.00000000E+00  3.34946043E-02  2.34726953E-01
  8.13757326E-01  1.00000000E+00
P(S=P) Contraction coefficients            R   N=          82
  0.00000000E+00  0.00000000E+00  0.00000000E+00  0.00000000E+00  0.00000000E+00
  0.00000000E+00  6.89990666E-02  3.16423961E-01  7.44308291E-01  1.00000000E+00
  0.00000000E+00  0.00000000E+00  0.00000000E+00  0.00000000E+00  0.00000000E+00
  0.00000000E+00  0.00000000E+00  4.06100998E-03  3.06812999E-02  1.30451999E-01
  3.27204999E-01  4.52850998E-01  2.56041999E-01 -1.45104895E-02  3.10262776E-01
  7.54482456E-01  1.00000000E+00  0.00000000E+00  0.00000000E+00  0.00000000E+00
  0.00000000E+00  0.00000000E+00  0.00000000E+00  0.00000000E+00  6.89990666E-02
  3.16423961E-01  7.44308291E-01  1.00000000E+00  0.00000000E+00  0.00000000E+00
  0.00000000E+00  0.00000000E+00  0.00000000E+00  0.00000000E+00  0.00000000E+00
  6.89990666E-02  3.16423961E-01  7.44308291E-01  1.00000000E+00  0.00000000E+00
  0.00000000E+00  0.00000000E+00  0.00000000E+00  0.00000000E+00  0.00000000E+00
  0.00000000E+00  0.00000000E+00  0.00000000E+00  0.00000000E+00  0.00000000E+00
  0.00000000E+00  0.00000000E+00  0.00000000E+00  0.00000000E+00  0.00000000E+00
  0.00000000E+00  0.00000000E+00  0.00000000E+00  0.00000000E+00  0.00000000E+00
  0.00000000E+00  0.00000000E+00  0.00000000E+00  0.00000000E+00  0.00000000E+00
  0.00000000E+00  0.00000000E+00  0.00000000E+00  0.00000000E+00  0.00000000E+00
  0.00000000E+00  0.00000000E+00
Coordinates of each shell                  R   N=          99
 -3.41392155E+00  1.63677685E+00  0.00000000E+00 -3.41392155E+00  1.63677685E+00
  0.00000000E+00 -3.41392155E+00  1.63677685E+00  0.00000000E+00 -3.41392155E+00
  1.63677685E+00  0.00000000E+00  1.11022302E-16  1.53933941E+00  0.00000000E+00
  1.11022302E-16  1.53933941E+00  0.00000000E+00  1.11022302E-16  1.53933941E+00
  0.00000000E+00  1.11022302E-16  1.53933941E+00  0.00000000E+00  1.11022302E-16
  1.53933941E+00  0.00000000E+00  4.28358958E-01 -1.86203596E+00  0.00000000E+00
  4.28358958E-01 -1.86203596E+00  0.00000000E+00  4.28358958E-01 -1.86203596E+00
  0.00000000E+00  4.28358958E-01 -1.86203596E+00  0.00000000E+00  3.23597469E+00
 -2.50267731E+00  0.00000000E+00  3.23597469E+00 -2.50267731E+00  0.00000000E+00
  3.23597469E+00 -2.50267731E+00  0.00000000E+00  3.23597469E+00 -2.50267731E+00
  0.00000000E+00 -4.18931799E+00  7.30483042E-01  1.68570399E+00 -4.18931799E+00
  7.30483042E-01  1.68570399E+00 -3.98270486E+00  3.61997167E+00  0.00000000E+00
 -3.98270486E+00  3.61997167E+00  0.00000000E+00 -4.18931799E+00  7.30483042E-01
 -1.68570399E+00 -4.18931799E+00  7.30483042E-01 -1.68570399E+00 -4.88809304E-01
 -2.66206817E+00  1.67341607E+00 -4.88809304E-01 -2.66206817E+00  1.67341607E+00
 -4.88809304E-01 -2.66206817E+00 -1.67341607E+00 -4.88809304E-01 -2.66206817E+00
 -1.67341607E+00  4.16941490E+00 -1.73306952E+00 -1.67361813E+00  4.16941490E+00
 -1.73306952E+00 -1.67361813E+00  4.16941490E+00 -1.73306952E+00  1.67361813E+00
  4.16941490E+00 -1.73306952E+00  1.67361813E+00  3.49765704E+00 -4.55247430E+00
  0.00000000E+00  3.49765704E+00 -4.55247430E+00  0.00000000E+00
Constraint Structure                       R   N=          36
 -3.41392155E+00  1.63677685E+00  0.00000000E+00  1.11022302E-16  1.53933941E+00
  0.00000000E+00  4.28358958E-01 -1.86203596E+00  0.00000000E+00  3.23597469E+00
 -2.50267731E+00  0.00000000E+00 -4.18931799E+00  7.30483042E-01  1.68570399E+00
 -3.98270486E+00  3.61997167E+00  0.00000000E+00 -4.18931799E+00  7.30483042E-01
 -1.68570399E+00 -4.88809304E-01 -2.66206817E+00  1.67341607E+00 -4.88809304E-01
 -2.66206817E+00 -1.67341607E+00  4.16941490E+00 -1.73306952E+00 -1.67361813E+00
  4.16941490E+00 -1.73306952E+00  1.67361813E+00  3.49765704E+00 -4.55247430E+00
  0.00000000E+00
Num ILSW                                   I              100
ILSW                                       I   N=         100
           0           1           0           0           2           0
           0           0           0           0           0          -1
           0           0           0           0           0           0
           0           0           0           0           1           0
           1           0           0           0           0           0
           0           0      100000           0          -1           0
           0           0           0           0           0           0
           0           0           0           1           1           0
           0           0           1           0           0           0
           0           0           4          40           0           0
           0           0           0           0           0           0
           0           0           0           0           0           0
           0           0           0           0           0           0
           0           0           0           0           0           0
           0           0           0           0           0           0
           0           0           0           0           0           0
           0           0           0           0
Num RLSW                                   I               40
RLSW                                       R   N=          40
  1.00000000E+00  1.00000000E+00  1.00000000E+00  1.00000000E+00  1.00000000E+00
  0.00000000E+00  0.00000000E+00  1.00000000E+00  0.00000000E+00  0.00000000E+00
  0.00000000E+00  0.00000000E+00  1.00000000E+00  0.00000000E+00  0.00000000E+00
  0.00000000E+00  0.00000000E+00  1.00000000E+00  0.00000000E+00  0.00000000E+00
  0.00000000E+00  0.00000000E+00  1.00000000E+00  0.00000000E+00  0.00000000E+00
  0.00000000E+00  0.00000000E+00  1.00000000E+00  0.00000000E+00  0.00000000E+00
  0.00000000E+00  0.00000000E+00  0.00000000E+00  0.00000000E+00  0.00000000E+00
  0.00000000E+00  0.00000000E+00  0.00000000E+00  1.00000000E+00  1.00000000E+00
MxBond                                     I                4
NBond                                      I   N=          12
           4           2           4           4           1           1
           1           1           1           1           1           1
IBond                                      I   N=          48
           2           5           6           7           1           3
           0           0           2           4           8           9
           3          10          11          12           1           0
           0           0           1           0           0           0
           1           0           0           0           3           0
           0           0           3           0           0           0
           4           0           0           0           4           0
           0           0           4           0           0           0
RBond                                      R   N=          48
  1.00000000E+00  1.00000000E+00  1.00000000E+00  1.00000000E+00  1.00000000E+00
  1.00000000E+00  0.00000000E+00  0.00000000E+00  1.00000000E+00  1.00000000E+00
  1.00000000E+00  1.00000000E+00  1.00000000E+00  1.00000000E+00  1.00000000E+00
  1.00000000E+00  1.00000000E+00  0.00000000E+00  0.00000000E+00  0.00000000E+00
  1.00000000E+00  0.00000000E+00  0.00000000E+00  0.00000000E+00  1.00000000E+00
  0.00000000E+00  0.00000000E+00  0.00000000E+00  1.00000000E+00  0.00000000E+00
  0.00000000E+00  0.00000000E+00  1.00000000E+00  0.00000000E+00  0.00000000E+00
  0.00000000E+00  1.00000000E+00  0.00000000E+00  0.00000000E+00  0.00000000E+00
  1.00000000E+00  0.00000000E+00  0.00000000E+00  0.00000000E+00  1.00000000E+00
  0.00000000E+00  0.00000000E+00  0.00000000E+00
Virial Ratio                               R      2.000575445208568E+00
SCF Energy                                 R     -5.157699224036195E+02
MP2 Energy                                 R     -5.162879494444462E+02
Total Energy                               R     -5.162879494444462E+02
Post-SCF wavefunction norm                 R      1.540730634347981E+00
RMS Force                                  R      2.778780200444785E-06
RMS Density                                R      1.135949627940457E-09
External E-field                           R   N=          35
  0.00000000E+00  0.00000000E+00  0.00000000E+00  0.00000000E+00  0.00000000E+00
  0.00000000E+00  0.00000000E+00  0.00000000E+00  0.00000000E+00  0.00000000E+00
  0.00000000E+00  0.00000000E+00  0.00000000E+00  0.00000000E+00  0.00000000E+00
  0.00000000E+00  0.00000000E+00  0.00000000E+00  0.00000000E+00  0.00000000E+00
  0.00000000E+00  0.00000000E+00  0.00000000E+00  0.00000000E+00  0.00000000E+00
  0.00000000E+00  0.00000000E+00  0.00000000E+00  0.00000000E+00  0.00000000E+00
  0.00000000E+00  0.00000000E+00  0.00000000E+00  0.00000000E+00  0.00000000E+00
IOpCl                                      I                0
IROHF                                      I                0
Alpha Orbital Energies                     R   N=          80
 -9.19278519E+01 -1.12554866E+01 -1.12502491E+01 -1.12244293E+01 -8.93840368E+00
 -6.62137585E+00 -6.61997581E+00 -6.61786496E+00 -1.07894882E+00 -9.98456476E-01
 -8.77375177E-01 -7.90247067E-01 -6.29464703E-01 -5.97800623E-01 -5.84804810E-01
 -5.79758644E-01 -5.27080831E-01 -5.05770201E-01 -4.73837504E-01 -4.28120844E-01
 -3.32369468E-01  1.88980274E-01  2.27399240E-01  2.59615846E-01  2.79479144E-01
  2.79995118E-01  2.95428932E-01  3.22428160E-01  3.33402612E-01  3.34700204E-01
  3.35729795E-01  3.98187596E-01  5.54197422E-01  5.78625763E-01  5.84367247E-01
  6.01992111E-01  6.49095731E-01  7.15877077E-01  7.76267076E-01  8.01591781E-01
  8.32489581E-01  8.41110382E-01  8.59647528E-01  9.10208964E-01  1.04994334E+00
  1.10177925E+00  1.11700452E+00  1.14759800E+00  1.14805336E+00  1.16633370E+00
  1.17761345E+00  1.18747012E+00  1.18769239E+00  1.21409101E+00  1.22620638E+00
  1.24061533E+00  1.27110086E+00  1.33205666E+00  1.40956581E+00  1.55817235E+00
  1.76086476E+00  1.81457217E+00  1.85688240E+00  2.00119016E+00  2.01827331E+00
  2.25146511E+00  2.29458595E+00  2.30523827E+00  2.47329938E+00  2.56071605E+00
  2.56869197E+00  2.59075582E+00  2.60922141E+00  2.65400824E+00  2.65824292E+00
  2.95865492E+00  4.34888450E+00  4.58128732E+00  4.62966974E+00  4.80072488E+00
Alpha MO coefficients                      R   N=        6400
 -8.20178589E-06  3.24601843E-05  1.07425390E-04 -6.92484987E-07  0.00000000E+00
  2.90015417E-04 -1.21349908E-04  2.87344759E-05  0.00000000E+00 -4.55096297E-05
 -1.75661953E-05 -2.43582251E-05  5.22335944E-06  0.00000000E+00  0.00000000E+00
  9.96254213E-01  1.42574726E-02 -5.87581623E-05 -6.84921432E-05  0.00000000E+00
 -2.00070846E-02  6.45379933E-05  1.15349935E-04  0.00000000E+00  2.71728657E-03
 -1.05634165E-04 -2.04221124E-04  0.00000000E+00  6.89947977E-03  6.90395730E-03
  6.89765832E-03  6.28106732E-06  0.00000000E+00  0.00000000E+00 -1.15228310E-05
  1.05594379E-05 -1.30624788E-05  9.90099437E-05  0.00000000E+00  3.54886871E-04
  1.14394253E-04 -1.18357774E-04  0.00000000E+00 -3.77964491E-06 -4.76512814E-05
 -3.31558110E-05  6.54782259E-06  0.00000000E+00  0.00000000E+00 -3.51919663E-06
  2.08119656E-05  1.53093936E-05 -1.37048828E-05  0.00000000E+00 -8.08056728E-05
  1.98721797E-04 -6.78123935E-05  0.00000000E+00 -3.84491603E-05 -1.85925207E-05
 -2.11465829E-05  1.16794065E-05  0.00000000E+00  0.00000000E+00 -2.75531449E-05
 -1.89349490E-04 -3.22149237E-05 -1.87836884E-04 -2.75531449E-05 -1.89349490E-04
 -2.89736458E-05 -1.84510397E-04 -2.89736458E-05 -1.84510397E-04  2.43472435E-05
 -1.33298517E-04  2.43472435E-05 -1.33298517E-04 -1.22663621E-05 -2.12724579E-05
 -1.24105233E-03 -1.08644879E-04 -4.50330458E-05  9.58821116E-05  0.00000000E+00
  7.17916762E-05 -3.07372768E-04 -4.60032372E-04  0.00000000E+00 -8.06193963E-05
 -2.22171695E-05 -6.39076927E-05 -1.42159949E-05  0.00000000E+00  0.00000000E+00
  1.32840993E-06 -2.96561643E-05 -2.04455594E-05  6.33456644E-05  0.00000000E+00
  3.52592067E-04  1.72956515E-04 -5.92564478E-04  0.00000000E+00  2.83482495E-03
 -2.30695925E-04 -1.53395618E-03  0.00000000E+00 -1.00229456E-04 -9.61671773E-05
 -1.69708484E-04 -5.45208451E-05  0.00000000E+00  0.00000000E+00  9.95819955E-01
  2.81470482E-02  1.57221841E-05  4.18389527E-04  0.00000000E+00 -1.54089618E-02
 -5.22010383E-04 -6.13070836E-04  0.00000000E+00 -1.57020765E-03 -1.82993903E-03
 -1.53682271E-03  4.43491912E-05  0.00000000E+00  0.00000000E+00  9.50333589E-03
  3.07724322E-04 -2.44194537E-05  2.21992375E-05  0.00000000E+00  3.72923019E-03
 -1.59970934E-03  4.76132930E-04  0.00000000E+00 -5.21561936E-04 -1.54526896E-04
 -1.32043175E-04  7.43634008E-05  0.00000000E+00  0.00000000E+00 -3.41468091E-06
 -4.58875553E-04 -1.01514711E-05  3.50452647E-04 -3.41468091E-06 -4.58875553E-04
  1.87443798E-04  2.35916283E-03  1.87443798E-04  2.35916283E-03 -1.43641635E-04
 -6.75285066E-05 -1.43641635E-04 -6.75285066E-05 -1.30379578E-04 -1.96356805E-05
  9.95768597E-01  2.82115448E-02  4.22058362E-04 -2.95498464E-05  0.00000000E+00
 -1.38238403E-02 -7.97760917E-04  2.29583691E-04  0.00000000E+00 -2.04960116E-03
 -1.73644318E-03 -1.76349343E-03  2.76842199E-05  0.00000000E+00  0.00000000E+00
  9.97445998E-07 -2.72247963E-05  4.11216262E-05 -2.53112322E-06  0.00000000E+00
  3.67778705E-04 -4.46609034E-04  3.20991200E-05  0.00000000E+00  2.70686512E-03
 -1.62110998E-03 -2.52633528E-04  0.00000000E+00 -1.22170795E-04 -1.17538419E-04
 -1.71090319E-04 -3.49827216E-05  0.00000000E+00  0.00000000E+00  1.20600408E-03
  1.53298932E-05  1.37930445E-04 -3.84377649E-05  0.00000000E+00 -4.65527516E-04
 -1.10197874E-03 -2.31899932E-04  0.00000000E+00 -8.64860344E-05 -6.59801830E-05
 -3.01923725E-05 -1.14727188E-05  0.00000000E+00  0.00000000E+00 -2.93926926E-05
 -1.66377125E-04 -1.13901170E-05 -2.46503672E-05  0.00000000E+00  1.19031847E-03
 -5.52974798E-04  4.07318307E-04  0.00000000E+00  3.13656745E-06 -5.85297149E-05
 -4.67994520E-05 -3.95695519E-05  0.00000000E+00  0.00000000E+00  1.32261955E-04
  2.27256716E-03  8.77576190E-05  2.13894482E-03  1.32261955E-04  2.27256716E-03
 -3.55307936E-05 -4.47581058E-04 -3.55307936E-05 -4.47581058E-04 -7.48975556E-05
  4.22472112E-06 -7.48975556E-05  4.22472112E-06 -2.10414659E-05  1.13598478E-04
 -2.06806133E-05 -1.05595721E-04 -3.25180606E-05  2.04695332E-05  0.00000000E+00
  5.67622421E-04  3.21016193E-04 -1.73268968E-04  0.00000000E+00 -2.36543435E-05
 -4.55514424E-05 -4.47598786E-05 -1.13381810E-05  0.00000000E+00  0.00000000E+00
  1.61048831E-07 -1.75221878E-05 -1.16438481E-06 -1.17339151E-05  0.00000000E+00
  9.48441720E-07 -3.73712815E-05  1.18076226E-04  0.00000000E+00 -3.10505964E-04
  4.42486589E-04 -7.11262538E-05  0.00000000E+00 -2.92562189E-05 -5.22913375E-05
 -7.24269296E-05 -3.61421140E-05  0.00000000E+00  0.00000000E+00 -9.81232035E-03
 -1.91618094E-04 -1.83977931E-05 -7.02475983E-06  0.00000000E+00  4.01977823E-03
  1.90251389E-03 -4.06049949E-04  0.00000000E+00 -4.77988363E-04 -1.50190918E-04
 -1.04369642E-04  1.04037752E-04  0.00000000E+00  0.00000000E+00  9.95698603E-01
  2.84405436E-02 -1.65117744E-04  4.75158620E-05  0.00000000E+00 -1.51998222E-02
  8.78245287E-04 -3.21134146E-04  0.00000000E+00 -1.87595608E-03 -1.80939433E-03
 -1.81578281E-03  2.11455256E-05  0.00000000E+00  0.00000000E+00 -3.64712606E-05
  3.98122905E-06 -1.86157103E-05  1.32884363E-04 -3.64712606E-05  3.98122905E-06
 -1.37915744E-04  3.40099208E-05 -1.37915744E-04  3.40099208E-05  1.64816811E-04
  2.51352735E-03  1.64816811E-04  2.51352735E-03  1.26341281E-04  2.46007284E-03
 -8.44740774E-05  5.41491586E-04 -1.64117867E-04 -9.08118691E-06  0.00000000E+00
 -7.02707768E-04  3.28914795E-04 -1.26861374E-04  0.00000000E+00 -4.86606602E-04
  6.06168582E-05  1.03467982E-04  3.15178246E-06  0.00000000E+00  0.00000000E+00
 -2.81775182E-01  1.03024610E+00 -4.42928229E-03 -4.38335936E-03  0.00000000E+00
  2.43645068E-02 -1.02091621E-03 -1.27587193E-03  0.00000000E+00 -7.22999760E-03
  7.82380272E-04  1.25997817E-03  0.00000000E+00 -1.00803404E-03 -1.07446705E-03
 -1.60938789E-03 -1.67435622E-04  0.00000000E+00  0.00000000E+00 -6.60909972E-05
  6.25053213E-04  5.29366233E-06 -1.16973536E-04  0.00000000E+00 -1.19956272E-03
 -5.79191377E-04  3.27360102E-04  0.00000000E+00 -3.12026990E-06 -4.29965642E-04
  1.43234884E-04  5.20413011E-05  0.00000000E+00  0.00000000E+00 -1.58273936E-05
 -1.85391793E-04 -1.52537181E-05 -1.25473591E-05  0.00000000E+00  8.18276283E-04
 -7.46593905E-04  4.97588978E-04  0.00000000E+00  6.49029401E-05  3.36748737E-05
 -2.01895414E-07 -6.33607379E-05  0.00000000E+00  0.00000000E+00 -2.09189466E-05
  6.86999019E-04  4.37096512E-05  5.60832224E-04 -2.09189466E-05  6.86999019E-04
 -1.42495965E-05  6.98440834E-04 -1.42495965E-05  6.98440834E-04 -1.25396451E-04
  3.00421352E-04 -1.25396451E-04  3.00421352E-04  4.08304949E-05  1.29306645E-04
  5.08123425E-05 -9.11125737E-04  5.34225655E-04  6.02175263E-05  0.00000000E+00
  2.07691586E-03  6.51397206E-05  7.57352768E-05  0.00000000E+00  8.38109539E-04
 -1.11869310E-04 -1.64620600E-04  1.31117974E-04  0.00000000E+00  0.00000000E+00
 -1.83546536E-04  7.02897839E-04  7.64907361E-01 -6.32860482E-01  0.00000000E+00
 -3.47830157E-04  1.88691649E-02 -1.57220371E-02  0.00000000E+00  9.49090690E-04
 -5.42474487E-03  3.61608123E-03  0.00000000E+00 -1.03759418E-03  1.37264347E-03
  1.40249060E-04 -1.65652096E-04  0.00000000E+00  0.00000000E+00  3.88560448E-05
  1.26738434E-03  1.31906797E-05 -2.57379662E-04  0.00000000E+00 -4.10059106E-03
 -8.82161836E-04 -1.46756479E-03  0.00000000E+00  8.29651405E-05 -7.12424888E-04
  3.57607066E-04 -8.54540244E-05  0.00000000E+00  0.00000000E+00 -2.95764573E-05
 -3.45782853E-04 -8.02747563E-05  6.42585484E-05  0.00000000E+00  1.58641685E-03
 -1.47810664E-03  1.36270257E-03  0.00000000E+00  1.00217521E-04  1.16182770E-04
  5.76349163E-05 -2.04294737E-04  0.00000000E+00  0.00000000E+00 -1.40919189E-04
 -8.42400770E-04 -8.30796812E-05 -1.66620961E-03 -1.40919189E-04 -8.42400770E-04
  1.77076394E-04  3.82041257E-04  1.77076394E-04  3.82041257E-04 -2.58560711E-04
  7.51693443E-04 -2.58560711E-04  7.51693443E-04  9.98145185E-05  3.01394633E-04
  5.04100696E-05 -5.82360071E-04  3.20459252E-04 -1.77140936E-05  0.00000000E+00
  1.58279435E-03  5.55551850E-04 -3.37877952E-04  0.00000000E+00  5.05630154E-04
 -1.18345732E-04 -4.45932819E-05 -2.68552249E-04  0.00000000E+00  0.00000000E+00
 -2.03429000E-03  7.74574942E-03  6.33153873E-01  7.65228076E-01  0.00000000E+00
 -4.70366927E-03  1.44268085E-02  1.75423184E-02  0.00000000E+00 -5.19099035E-04
 -3.21370061E-03 -3.89231301E-03  0.00000000E+00  8.60019286E-04  6.94335928E-04
  1.82760767E-03 -4.81228990E-04  0.00000000E+00  0.00000000E+00  2.06791397E-05
 -8.09454737E-04 -2.05619086E-05  3.25566371E-04  0.00000000E+00  2.72764697E-03
 -2.32564564E-04  5.73394067E-04  0.00000000E+00 -7.94350360E-05  4.78529370E-04
 -1.01816191E-04 -3.15690055E-04  0.00000000E+00  0.00000000E+00  3.07981989E-05
  1.80735621E-04  8.17653403E-05 -8.25348154E-06  0.00000000E+00 -1.37031326E-03
  1.00099728E-04 -2.09224536E-04  0.00000000E+00 -1.97985088E-05  7.33153266E-05
  2.60068168E-05  3.86547920E-05  0.00000000E+00  0.00000000E+00 -1.25441483E-04
 -8.02300030E-04 -1.31865972E-04  2.00251764E-04 -1.25441483E-04 -8.02300030E-04
 -1.71162308E-04 -1.03250878E-03 -1.71162308E-04 -1.03250878E-03 -1.71629615E-06
  4.24103945E-04 -1.71629615E-06  4.24103945E-04 -5.93858518E-06  2.30292797E-04
  0.00000000E+00  0.00000000E+00  0.00000000E+00  0.00000000E+00 -1.38556043E-05
  0.00000000E+00  0.00000000E+00  0.00000000E+00 -3.62821631E-04  0.00000000E+00
  0.00000000E+00  0.00000000E+00  0.00000000E+00 -2.42492966E-04  5.86401452E-05
  0.00000000E+00  0.00000000E+00  0.00000000E+00  0.00000000E+00  9.93893012E-01
  0.00000000E+00  0.00000000E+00  0.00000000E+00  2.03215381E-02  0.00000000E+00
  0.00000000E+00  0.00000000E+00 -4.72850084E-03  0.00000000E+00  0.00000000E+00
  0.00000000E+00  0.00000000E+00 -3.86547063E-04 -4.23671799E-04  0.00000000E+00
  0.00000000E+00  0.00000000E+00  0.00000000E+00  7.32402885E-05  0.00000000E+00
  0.00000000E+00  0.00000000E+00 -8.38172269E-04  0.00000000E+00  0.00000000E+00
  0.00000000E+00  0.00000000E+00  8.02420813E-05 -2.00581608E-04  0.00000000E+00
  0.00000000E+00  0.00000000E+00  0.00000000E+00  6.41407068E-06  0.00000000E+00
  0.00000000E+00  0.00000000E+00  1.09887285E-04  0.00000000E+00  0.00000000E+00
  0.00000000E+00  0.00000000E+00 -4.70781370E-05  8.02219117E-05 -2.11886603E-06
  6.57667892E-04  0.00000000E+00  0.00000000E+00  2.11886603E-06 -6.57667892E-04
  6.36793472E-05  8.47416748E-04 -6.36793472E-05 -8.47416748E-04  1.22961353E-04
 -4.22966241E-04 -1.22961353E-04  4.22966241E-04  0.00000000E+00  0.00000000E+00
 -7.56189759E-02  1.38792696E-01  4.01065797E-02 -6.29638428E-03  0.00000000E+00
  1.36497397E-01  1.35088211E-02 -2.06057262E-03  0.00000000E+00  9.25164975E-03