12722                                                                   
Freq      RMP2-FC                                                     6-31G(d)            
Number of atoms                            I               11
Info1-9                                    I   N=           9
          23          21        1002           0           0         100
           6           2           1
Charge                                     I                0
Multiplicity                               I                1
Number of electrons                        I               74
Number of alpha electrons                  I               37
Number of beta electrons                   I               37
Number of basis functions                  I              139
Number of independent functions            I              139
Number of point charges in /Mol/           I                0
Number of translation vectors              I                0
Atomic numbers                             I   N=          11
           9           9           9           9           9           9
           6           6           6           1           1
Nuclear charges                            R   N=          11
  9.00000000E+00  9.00000000E+00  9.00000000E+00  9.00000000E+00  9.00000000E+00
  9.00000000E+00  6.00000000E+00  6.00000000E+00  6.00000000E+00  1.00000000E+00
  1.00000000E+00
Current cartesian coordinates              R   N=          33
  4.41921958E+00  1.10826192E-05  1.70878440E+00  2.56893330E+00  2.05856470E+00
 -1.34492202E+00  2.56896312E+00 -2.05856636E+00 -1.34492009E+00 -2.56896534E+00
  2.05859627E+00 -1.34487356E+00 -2.56893361E+00 -2.05853429E+00 -1.34496718E+00
 -4.41921857E+00 -5.45832673E-05  1.70878496E+00  9.03366578E-07 -1.83524229E-05
  1.68949568E+00  2.39722776E+00  1.61588588E-06  1.45132906E-01 -2.39722685E+00
  1.41801547E-06  1.45133607E-01  5.58895854E-07  1.67741606E+00  2.89024070E+00
  2.25648701E-06 -1.67747558E+00  2.89020750E+00
Force Field                                I                0
Int Atom Types                             I   N=          11
           0           0           0           0           0           0
           0           0           0           0           0
MM charges                                 R   N=          11
  0.00000000E+00  0.00000000E+00  0.00000000E+00  0.00000000E+00  0.00000000E+00
  0.00000000E+00  0.00000000E+00  0.00000000E+00  0.00000000E+00  0.00000000E+00
  0.00000000E+00
Integer atomic weights                     I   N=          11
          19          19          19          19          19          19
          12          12          12           1           1
Real atomic weights                        R   N=          11
  1.89984032E+01  1.89984032E+01  1.89984032E+01  1.89984032E+01  1.89984032E+01
  1.89984032E+01  1.20000000E+01  1.20000000E+01  1.20000000E+01  1.00782504E+00
  1.00782504E+00
Atom fragment info                         I   N=          11
           0           0           0           0           0           0
           0           0           0           0           0
Atom residue num                           I   N=          11
           0           0           0           0           0           0
           0           0           0           0           0
Nuclear spins                              I   N=          11
           1           1           1           1           1           1
           0           0           0           1           1
Nuclear ZEff                               R   N=          11
 -6.75000000E+00 -6.75000000E+00 -6.75000000E+00 -6.75000000E+00 -6.75000000E+00
 -6.75000000E+00 -3.60000000E+00 -3.60000000E+00 -3.60000000E+00 -1.00000000E+00
 -1.00000000E+00
Nuclear QMom                               R   N=          11
  0.00000000E+00  0.00000000E+00  0.00000000E+00  0.00000000E+00  0.00000000E+00
  0.00000000E+00  0.00000000E+00  0.00000000E+00  0.00000000E+00  0.00000000E+00
  0.00000000E+00
Nuclear GFac                               R   N=          11
  2.62886700E+00  2.62886700E+00  2.62886700E+00  2.62886700E+00  2.62886700E+00
  2.62886700E+00  0.00000000E+00  0.00000000E+00  0.00000000E+00  2.79284600E+00
  2.79284600E+00
MicOpt                                     I   N=          11
          -1          -1          -1          -1          -1          -1
          -1          -1          -1          -1          -1
Number of contracted shells                I               40
Number of primitive shells                 I              107
Pure/Cartesian d shells                    I                1
Pure/Cartesian f shells                    I                0
Highest angular momentum                   I                2
Largest degree of contraction              I                6
Shell types                                I   N=          40
           0          -1          -1           2           0          -1
          -1           2           0          -1          -1           2
           0          -1          -1           2           0          -1
          -1           2           0          -1          -1           2
           0          -1          -1           2           0          -1
          -1           2           0          -1          -1           2
           0           0           0           0
Number of primitives per shell             I   N=          40
           6           3           1           1           6           3
           1           1           6           3           1           1
           6           3           1           1           6           3
           1           1           6           3           1           1
           6           3           1           1           6           3
           1           1           6           3           1           1
           3           1           3           1
Shell to atom map                          I   N=          40
           1           1           1           1           2           2
           2           2           3           3           3           3
           4           4           4           4           5           5
           5           5           6           6           6           6
           7           7           7           7           8           8
           8           8           9           9           9           9
          10          10          11          11
Primitive exponents                        R   N=         107
  7.00171309E+03  1.05136609E+03  2.39285690E+02  6.73974453E+01  2.15199573E+01
  7.40310130E+00  2.08479528E+01  4.80830834E+00  1.34406986E+00  3.58151393E-01
  8.00000000E-01  7.00171309E+03  1.05136609E+03  2.39285690E+02  6.73974453E+01
  2.15199573E+01  7.40310130E+00  2.08479528E+01  4.80830834E+00  1.34406986E+00
  3.58151393E-01  8.00000000E-01  7.00171309E+03  1.05136609E+03  2.39285690E+02
  6.73974453E+01  2.15199573E+01  7.40310130E+00  2.08479528E+01  4.80830834E+00
  1.34406986E+00  3.58151393E-01  8.00000000E-01  7.00171309E+03  1.05136609E+03
  2.39285690E+02  6.73974453E+01  2.15199573E+01  7.40310130E+00  2.08479528E+01
  4.80830834E+00  1.34406986E+00  3.58151393E-01  8.00000000E-01  7.00171309E+03
  1.05136609E+03  2.39285690E+02  6.73974453E+01  2.15199573E+01  7.40310130E+00
  2.08479528E+01  4.80830834E+00  1.34406986E+00  3.58151393E-01  8.00000000E-01
  7.00171309E+03  1.05136609E+03  2.39285690E+02  6.73974453E+01  2.15199573E+01
  7.40310130E+00  2.08479528E+01  4.80830834E+00  1.34406986E+00  3.58151393E-01
  8.00000000E-01  3.04752488E+03  4.57369518E+02  1.03948685E+02  2.92101553E+01
  9.28666296E+00  3.16392696E+00  7.86827235E+00  1.88128854E+00  5.44249258E-01
  1.68714478E-01  8.00000000E-01  3.04752488E+03  4.57369518E+02  1.03948685E+02
  2.92101553E+01  9.28666296E+00  3.16392696E+00  7.86827235E+00  1.88128854E+00
  5.44249258E-01  1.68714478E-01  8.00000000E-01  3.04752488E+03  4.57369518E+02
  1.03948685E+02  2.92101553E+01  9.28666296E+00  3.16392696E+00  7.86827235E+00
  1.88128854E+00  5.44249258E-01  1.68714478E-01  8.00000000E-01  1.87311370E+01
  2.82539436E+00  6.40121692E-01  1.61277759E-01  1.87311370E+01  2.82539436E+00
  6.40121692E-01  1.61277759E-01
Contraction coefficients                   R   N=         107
  1.81961690E-03  1.39160796E-02  6.84053245E-02  2.33185760E-01  4.71267439E-01
  3.56618546E-01 -1.08506975E-01 -1.46451658E-01  1.12868858E+00  1.00000000E+00
  1.00000000E+00  1.81961690E-03  1.39160796E-02  6.84053245E-02  2.33185760E-01
  4.71267439E-01  3.56618546E-01 -1.08506975E-01 -1.46451658E-01  1.12868858E+00
  1.00000000E+00  1.00000000E+00  1.81961690E-03  1.39160796E-02  6.84053245E-02
  2.33185760E-01  4.71267439E-01  3.56618546E-01 -1.08506975E-01 -1.46451658E-01
  1.12868858E+00  1.00000000E+00  1.00000000E+00  1.81961690E-03  1.39160796E-02
  6.84053245E-02  2.33185760E-01  4.71267439E-01  3.56618546E-01 -1.08506975E-01
 -1.46451658E-01  1.12868858E+00  1.00000000E+00  1.00000000E+00  1.81961690E-03
  1.39160796E-02  6.84053245E-02  2.33185760E-01  4.71267439E-01  3.56618546E-01
 -1.08506975E-01 -1.46451658E-01  1.12868858E+00  1.00000000E+00  1.00000000E+00
  1.81961690E-03  1.39160796E-02  6.84053245E-02  2.33185760E-01  4.71267439E-01
  3.56618546E-01 -1.08506975E-01 -1.46451658E-01  1.12868858E+00  1.00000000E+00
  1.00000000E+00  1.83473713E-03  1.40373228E-02  6.88426223E-02  2.32184443E-01
  4.67941348E-01  3.62311985E-01 -1.19332420E-01 -1.60854152E-01  1.14345644E+00
  1.00000000E+00  1.00000000E+00  1.83473713E-03  1.40373228E-02  6.88426223E-02
  2.32184443E-01  4.67941348E-01  3.62311985E-01 -1.19332420E-01 -1.60854152E-01
  1.14345644E+00  1.00000000E+00  1.00000000E+00  1.83473713E-03  1.40373228E-02
  6.88426223E-02  2.32184443E-01  4.67941348E-01  3.62311985E-01 -1.19332420E-01
 -1.60854152E-01  1.14345644E+00  1.00000000E+00  1.00000000E+00  3.34946043E-02
  2.34726953E-01  8.13757326E-01  1.00000000E+00  3.34946043E-02  2.34726953E-01
  8.13757326E-01  1.00000000E+00
P(S=P) Contraction coefficients            R   N=         107
  0.00000000E+00  0.00000000E+00  0.00000000E+00  0.00000000E+00  0.00000000E+00
  0.00000000E+00  7.16287242E-02  3.45912103E-01  7.22469956E-01  1.00000000E+00
  0.00000000E+00  0.00000000E+00  0.00000000E+00  0.00000000E+00  0.00000000E+00
  0.00000000E+00  0.00000000E+00  7.16287242E-02  3.45912103E-01  7.22469956E-01
  1.00000000E+00  0.00000000E+00  0.00000000E+00  0.00000000E+00  0.00000000E+00
  0.00000000E+00  0.00000000E+00  0.00000000E+00  7.16287242E-02  3.45912103E-01
  7.22469956E-01  1.00000000E+00  0.00000000E+00  0.00000000E+00  0.00000000E+00
  0.00000000E+00  0.00000000E+00  0.00000000E+00  0.00000000E+00  7.16287242E-02
  3.45912103E-01  7.22469956E-01  1.00000000E+00  0.00000000E+00  0.00000000E+00
  0.00000000E+00  0.00000000E+00  0.00000000E+00  0.00000000E+00  0.00000000E+00
  7.16287242E-02  3.45912103E-01  7.22469956E-01  1.00000000E+00  0.00000000E+00
  0.00000000E+00  0.00000000E+00  0.00000000E+00  0.00000000E+00  0.00000000E+00
  0.00000000E+00  7.16287242E-02  3.45912103E-01  7.22469956E-01  1.00000000E+00
  0.00000000E+00  0.00000000E+00  0.00000000E+00  0.00000000E+00  0.00000000E+00
  0.00000000E+00  0.00000000E+00  6.89990666E-02  3.16423961E-01  7.44308291E-01
  1.00000000E+00  0.00000000E+00  0.00000000E+00  0.00000000E+00  0.00000000E+00
  0.00000000E+00  0.00000000E+00  0.00000000E+00  6.89990666E-02  3.16423961E-01
  7.44308291E-01  1.00000000E+00  0.00000000E+00  0.00000000E+00  0.00000000E+00
  0.00000000E+00  0.00000000E+00  0.00000000E+00  0.00000000E+00  6.89990666E-02
  3.16423961E-01  7.44308291E-01  1.00000000E+00  0.00000000E+00  0.00000000E+00
  0.00000000E+00  0.00000000E+00  0.00000000E+00  0.00000000E+00  0.00000000E+00
  0.00000000E+00  0.00000000E+00
Coordinates of each shell                  R   N=         120
  4.41921958E+00  1.10826192E-05  1.70878440E+00  4.41921958E+00  1.10826192E-05
  1.70878440E+00  4.41921958E+00  1.10826192E-05  1.70878440E+00  4.41921958E+00
  1.10826192E-05  1.70878440E+00  2.56893330E+00  2.05856470E+00 -1.34492202E+00
  2.56893330E+00  2.05856470E+00 -1.34492202E+00  2.56893330E+00  2.05856470E+00
 -1.34492202E+00  2.56893330E+00  2.05856470E+00 -1.34492202E+00  2.56896312E+00
 -2.05856636E+00 -1.34492009E+00  2.56896312E+00 -2.05856636E+00 -1.34492009E+00
  2.56896312E+00 -2.05856636E+00 -1.34492009E+00  2.56896312E+00 -2.05856636E+00
 -1.34492009E+00 -2.56896534E+00  2.05859627E+00 -1.34487356E+00 -2.56896534E+00
  2.05859627E+00 -1.34487356E+00 -2.56896534E+00  2.05859627E+00 -1.34487356E+00
 -2.56896534E+00  2.05859627E+00 -1.34487356E+00 -2.56893361E+00 -2.05853429E+00
 -1.34496718E+00 -2.56893361E+00 -2.05853429E+00 -1.34496718E+00 -2.56893361E+00
 -2.05853429E+00 -1.34496718E+00 -2.56893361E+00 -2.05853429E+00 -1.34496718E+00
 -4.41921857E+00 -5.45832673E-05  1.70878496E+00 -4.41921857E+00 -5.45832673E-05
  1.70878496E+00 -4.41921857E+00 -5.45832673E-05  1.70878496E+00 -4.41921857E+00
 -5.45832673E-05  1.70878496E+00  9.03366578E-07 -1.83524229E-05  1.68949568E+00
  9.03366578E-07 -1.83524229E-05  1.68949568E+00  9.03366578E-07 -1.83524229E-05
  1.68949568E+00  9.03366578E-07 -1.83524229E-05  1.68949568E+00  2.39722776E+00
  1.61588588E-06  1.45132906E-01  2.39722776E+00  1.61588588E-06  1.45132906E-01
  2.39722776E+00  1.61588588E-06  1.45132906E-01  2.39722776E+00  1.61588588E-06
  1.45132906E-01 -2.39722685E+00  1.41801547E-06  1.45133607E-01 -2.39722685E+00
  1.41801547E-06  1.45133607E-01 -2.39722685E+00  1.41801547E-06  1.45133607E-01
 -2.39722685E+00  1.41801547E-06  1.45133607E-01  5.58895854E-07  1.67741606E+00
  2.89024070E+00  5.58895854E-07  1.67741606E+00  2.89024070E+00  2.25648701E-06
 -1.67747558E+00  2.89020750E+00  2.25648701E-06 -1.67747558E+00  2.89020750E+00
Constraint Structure                       R   N=          33
  4.41921958E+00  1.10826192E-05  1.70878440E+00  2.56893330E+00  2.05856470E+00
 -1.34492202E+00  2.56896312E+00 -2.05856636E+00 -1.34492009E+00 -2.56896534E+00
  2.05859627E+00 -1.34487356E+00 -2.56893361E+00 -2.05853429E+00 -1.34496718E+00
 -4.41921857E+00 -5.45832673E-05  1.70878496E+00  9.03366578E-07 -1.83524229E-05
  1.68949568E+00  2.39722776E+00  1.61588588E-06  1.45132906E-01 -2.39722685E+00
  1.41801547E-06  1.45133607E-01  5.58895854E-07  1.67741606E+00  2.89024070E+00
  2.25648701E-06 -1.67747558E+00  2.89020750E+00
Num ILSW                                   I              100
ILSW                                       I   N=         100
           0           1           0           0           2           0
           0           0           0           0           0          -1
           0           0           0           0           0           0
           0           0           0           0           1           0
           1           0           0           0           0           0
           0           0      100000           0          -1           0
           0           0           0           0           0           0
           0           0           0           1           1           0
           0           0           1           0           0           0
           0           0           4          40           0           0
           0           0           0           0           0           0
           0           0           0           0           0           0
           0           0           0           0           0           0
           0           0           0           0           0           0
           0           0           0           0           0           0
           0           0           0           0           0           0
           0           0           0           0
Num RLSW                                   I               40
RLSW                                       R   N=          40
  1.00000000E+00  1.00000000E+00  1.00000000E+00  1.00000000E+00  1.00000000E+00
  0.00000000E+00  0.00000000E+00  1.00000000E+00  0.00000000E+00  0.00000000E+00
  0.00000000E+00  0.00000000E+00  1.00000000E+00  0.00000000E+00  0.00000000E+00
  0.00000000E+00  0.00000000E+00  1.00000000E+00  0.00000000E+00  0.00000000E+00
  0.00000000E+00  0.00000000E+00  1.00000000E+00  0.00000000E+00  0.00000000E+00
  0.00000000E+00  0.00000000E+00  1.00000000E+00  0.00000000E+00  0.00000000E+00
  0.00000000E+00  0.00000000E+00  0.00000000E+00  0.00000000E+00  0.00000000E+00
  0.00000000E+00  0.00000000E+00  0.00000000E+00  1.00000000E+00  1.00000000E+00
MxBond                                     I                4
NBond                                      I   N=          11
           1           1           1           1           1           1
           4           4           4           1           1
IBond                                      I   N=          44
           8           0           0           0           8           0
           0           0           8           0           0           0
           9           0           0           0           9           0
           0           0           9           0           0           0
           8           9          10          11           1           2
           3           7           4           5           6           7
           7           0           0           0           7           0
           0           0
RBond                                      R   N=          44
  1.00000000E+00  0.00000000E+00  0.00000000E+00  0.00000000E+00  1.00000000E+00
  0.00000000E+00  0.00000000E+00  0.00000000E+00  1.00000000E+00  0.00000000E+00
  0.00000000E+00  0.00000000E+00  1.00000000E+00  0.00000000E+00  0.00000000E+00
  0.00000000E+00  1.00000000E+00  0.00000000E+00  0.00000000E+00  0.00000000E+00
  1.00000000E+00  0.00000000E+00  0.00000000E+00  0.00000000E+00  1.00000000E+00
  1.00000000E+00  1.00000000E+00  1.00000000E+00  1.00000000E+00  1.00000000E+00
  1.00000000E+00  1.00000000E+00  1.00000000E+00  1.00000000E+00  1.00000000E+00
  1.00000000E+00  1.00000000E+00  0.00000000E+00  0.00000000E+00  0.00000000E+00
  1.00000000E+00  0.00000000E+00  0.00000000E+00  0.00000000E+00
Virial Ratio                               R      2.002534911203034E+00
SCF Energy                                 R     -7.114296439979626E+02
MP2 Energy                                 R     -7.128347041959951E+02
Total Energy                               R     -7.128347041959951E+02
Post-SCF wavefunction norm                 R      1.638053123058648E+00
RMS Force                                  R      7.709570895531965E-07
RMS Density                                R      1.103039131396924E-09
External E-field                           R   N=          35
  0.00000000E+00  0.00000000E+00  0.00000000E+00  0.00000000E+00  0.00000000E+00
  0.00000000E+00  0.00000000E+00  0.00000000E+00  0.00000000E+00  0.00000000E+00
  0.00000000E+00  0.00000000E+00  0.00000000E+00  0.00000000E+00  0.00000000E+00
  0.00000000E+00  0.00000000E+00  0.00000000E+00  0.00000000E+00  0.00000000E+00
  0.00000000E+00  0.00000000E+00  0.00000000E+00  0.00000000E+00  0.00000000E+00
  0.00000000E+00  0.00000000E+00  0.00000000E+00  0.00000000E+00  0.00000000E+00
  0.00000000E+00  0.00000000E+00  0.00000000E+00  0.00000000E+00  0.00000000E+00
IOpCl                                      I                0
IROHF                                      I                0
Alpha Orbital Energies                     R   N=         139
 -2.63556520E+01 -2.63556515E+01 -2.63540036E+01 -2.63540002E+01 -2.63539856E+01
 -2.63539813E+01 -1.15334737E+01 -1.15334599E+01 -1.13006769E+01 -1.73724563E+00
 -1.73154074E+00 -1.64314342E+00 -1.64227116E+00 -1.63977192E+00 -1.63814057E+00
 -1.13565984E+00 -9.86186674E-01 -9.26587122E-01 -8.41118243E-01 -8.38555886E-01
 -8.37701531E-01 -8.23186794E-01 -8.10898328E-01 -7.62258952E-01 -7.30350283E-01
 -7.15195561E-01 -7.11963969E-01 -7.05056656E-01 -6.76864531E-01 -6.74237166E-01
 -6.62007711E-01 -6.59980071E-01 -6.56528906E-01 -6.50254575E-01 -6.17307640E-01
 -5.95379915E-01 -5.77140688E-01  2.25801603E-01  2.45717358E-01  3.13022394E-01
  3.18711298E-01  3.45690571E-01  4.13886175E-01  4.22903747E-01  4.27964627E-01
  4.32531884E-01  5.01385676E-01  6.62954098E-01  6.88101785E-01  7.04045798E-01
  7.27438796E-01  7.42411820E-01  7.62153270E-01  7.77538371E-01  8.99248452E-01
  9.03597788E-01  9.67660139E-01  1.07711247E+00  1.12398784E+00  1.17668363E+00
  1.27795427E+00  1.29002896E+00  1.31674220E+00  1.35200733E+00  1.36407302E+00
  1.37781680E+00  1.38071509E+00  1.47444757E+00  1.50320925E+00  1.52182279E+00
  1.57920389E+00  1.58907930E+00  1.61426411E+00  1.61586700E+00  1.62227779E+00
  1.63777876E+00  1.65427939E+00  1.66004286E+00  1.66461362E+00  1.69995085E+00
  1.70183130E+00  1.75229312E+00  1.76576217E+00  1.90054578E+00  1.92813164E+00
  1.93094076E+00  1.93140941E+00  2.02149591E+00  2.05133438E+00  2.08248609E+00
  2.09809473E+00  2.11525822E+00  2.11576816E+00  2.12178677E+00  2.12877005E+00
  2.14613391E+00  2.16133884E+00  2.17111469E+00  2.21343208E+00  2.25818404E+00
  2.28727998E+00  2.28773634E+00  2.31118178E+00  2.32994790E+00  2.35610024E+00
  2.35740267E+00  2.39563792E+00  2.39714577E+00  2.45704587E+00  2.51782404E+00
  2.52731222E+00  2.54339684E+00  2.56288881E+00  2.57910872E+00  2.69401030E+00
  2.82119052E+00  2.82670222E+00  2.82755374E+00  3.02268213E+00  3.04389112E+00
  3.14391106E+00  3.18167905E+00  3.19660331E+00  3.22404842E+00  3.35786867E+00
  3.36846529E+00  3.37135114E+00  3.39072462E+00  3.43326549E+00  3.43775594E+00
  4.55357189E+00  4.68894994E+00  4.74663871E+00  4.78075379E+00  4.95996827E+00
  4.96322675E+00  5.47045043E+00  5.60274355E+00  6.19790242E+00
Alpha MO coefficients                      R   N=       19321
  7.97581453E-01  1.44194178E-02 -6.05743638E-04 -2.23658772E-09 -4.58117845E-04
  5.87758080E-03  5.08728763E-04  2.91898246E-09  4.02743227E-04 -3.80327795E-03
 -3.55724824E-03 -3.69662318E-03 -1.43157124E-09 -2.45623267E-04 -1.28488266E-09
 -4.30364371E-03  1.54831907E-05 -2.28315452E-06  6.06548744E-06  4.35783140E-06
 -3.23714328E-04 -4.98046864E-05  6.23361160E-05 -1.40928985E-04  6.52131391E-05
  5.89898165E-05  2.05327719E-05  1.98322263E-05 -2.76027619E-05  4.39407467E-05
 -4.29981690E-03  1.55521653E-05 -2.28327125E-06 -6.06276390E-06  4.35997400E-06
 -3.23687217E-04 -4.98039718E-05 -6.23383460E-05 -1.40931222E-04  6.51964524E-05
  5.89714585E-05  2.05148110E-05 -1.98320151E-05 -2.76018690E-05 -4.39418975E-05
  3.19812877E-03 -9.51681677E-06 -1.43012904E-06 -5.46491439E-06 -5.00301361E-06
  2.30714394E-04 -3.99667174E-05 -4.05542846E-05  1.11771960E-04 -4.72401474E-05
 -4.49753093E-05 -1.26771679E-05  1.55261428E-05 -2.06662154E-05 -3.38154927E-05
  3.19579801E-03 -9.55695407E-06 -1.43028009E-06  5.46344998E-06 -5.00391186E-06
  2.30690797E-04 -3.99674429E-05  4.05489235E-05  1.11773957E-04 -4.72279285E-05
 -4.49661766E-05 -1.26622989E-05 -1.55251485E-05 -2.06672469E-05  3.38137895E-05
 -5.93927649E-01 -1.07375537E-02 -4.48808168E-04 -1.29217876E-08  3.42590074E-04
 -4.36443577E-03  3.74316649E-04  1.11531264E-08 -3.08757538E-04  2.83035808E-03
  2.65305850E-03  2.75507043E-03  6.39247139E-09 -1.85109716E-04 -4.54649481E-09
  1.74048702E-06  2.71155752E-05 -2.43792507E-05 -2.22350862E-10  1.63330749E-06
 -9.57821510E-05 -7.03777186E-04 -1.86756158E-09  2.42187825E-05 -2.25699338E-05
 -2.31297824E-06 -1.15831165E-06 -1.04252894E-10  3.32924274E-05 -7.39629207E-13
 -2.31060623E-05  1.09155631E-04  3.95214087E-04  9.22915383E-10  2.36435371E-04
  9.25542344E-04 -3.13422797E-05 -4.49601931E-09  3.33085341E-04  1.64419056E-04
  7.17380473E-06  7.93380443E-05  6.81879613E-10  1.48419532E-04  1.08041164E-09
  1.76230594E-05 -8.07797217E-05  2.93916301E-04  7.32970631E-09 -1.72851303E-04
 -7.34951194E-04 -1.03306627E-05  6.20377317E-09 -2.95417298E-04 -1.20978158E-04
 -4.71812738E-06 -5.53027706E-05 -4.00460452E-09  1.13772118E-04  2.31126813E-09
  8.36485435E-06 -9.90725847E-06  8.36390291E-06 -9.90544003E-06  5.93928253E-01
  1.07376608E-02 -4.58979376E-04 -1.74873842E-09 -3.36090380E-04  4.41997274E-03
  3.94580972E-04  2.32969714E-09  2.69022355E-04 -2.83841607E-03 -2.63458711E-03
 -2.74456837E-03 -1.25111938E-09 -1.75215994E-04 -8.76655858E-10 -3.22724083E-03
  1.85680731E-05 -2.64246909E-06  1.20739887E-06 -2.88833361E-06 -2.77156658E-04
 -2.70385262E-05  6.68971445E-05 -8.11179918E-05  5.31737805E-05  4.02636928E-05
  2.44108787E-05  1.21252172E-05 -2.01622900E-05  2.89056978E-05 -3.22437338E-03
  1.86189612E-05 -2.64257680E-06 -1.20540414E-06 -2.88684903E-06 -2.77133278E-04
 -2.70377530E-05 -6.68983029E-05 -8.11190459E-05  5.31605868E-05  4.02495052E-05
  2.43968809E-05 -1.21248992E-05 -2.01617581E-05 -2.89064420E-05 -4.32493283E-03
  2.22291647E-05  3.18572650E-06  2.89505831E-06 -1.51834977E-06 -3.58292326E-04
  4.01763767E-05  8.19577877E-05 -1.18099687E-04  6.96298058E-05  5.54751844E-05
  2.92700956E-05 -1.73004241E-05  2.72257536E-05  4.02864505E-05 -4.32178634E-03
  2.22876466E-05  3.18632809E-06 -2.89247013E-06 -1.51667302E-06 -3.58275102E-04
  4.01766551E-05 -8.19534259E-05 -1.18105274E-04  6.96166029E-05  5.54658285E-05
  2.92539592E-05  1.72992084E-05  2.72269296E-05 -4.02853237E-05  7.97581900E-01
  1.44194972E-02  6.13317905E-04  1.72057708E-08 -4.53277385E-04  5.91893921E-03
 -5.23818533E-04 -1.35220298E-08  3.73153401E-04 -3.80927896E-03 -3.54349379E-03
 -3.68880304E-03 -8.55759490E-09  2.38255616E-04  6.11746656E-09  1.18923652E-05
  1.85273029E-04  3.56791161E-06 -4.99044341E-11  1.11596898E-05 -6.54450062E-04
  1.03000648E-04  5.22676753E-10  1.65478262E-04 -1.54213411E-04 -1.58034557E-05
 -7.91386875E-06 -1.07944155E-09 -4.87245025E-06 -2.71427883E-10 -1.57514290E-05
  8.30442097E-05  2.95641210E-04  7.88531379E-10  1.87276315E-04  5.29613605E-04
 -6.87338786E-05 -2.47704431E-09  8.26943679E-05  1.27524790E-04  7.51859967E-06
  7.22600772E-05  6.02700775E-10  9.91813622E-05  6.59268337E-10 -2.17122810E-05
  1.10842469E-04 -3.96498536E-04 -1.06023228E-08  2.47177496E-04  7.72632313E-04
  7.48325994E-05 -6.55789370E-09  1.74678377E-04  1.69293885E-04  9.25883207E-06
  9.19652114E-05  4.93309208E-09 -1.37554193E-04 -3.33915367E-09  5.71508603E-05
 -6.76866389E-05  5.71516893E-05 -6.76864270E-05  2.20654633E-04  1.34998170E-06
  2.56071578E-07 -2.82570156E-06  1.00852280E-07  1.33594714E-05 -2.58678808E-07
 -6.45059537E-05  2.94394435E-06 -3.81316092E-06 -4.36808304E-06 -5.29512482E-06
  3.01124068E-05 -1.15848657E-06  4.04059368E-05  5.24135462E-01  9.29544804E-03
 -1.83165204E-05 -4.03784043E-04  2.96039259E-04  4.48163696E-03 -2.23966302E-05
  2.19841125E-04 -2.06854705E-04 -2.45286576E-03 -2.59495665E-03 -2.56528708E-03
 -1.41884044E-05  1.01639485E-05  1.38150856E-04 -4.83658124E-01 -8.55327783E-03
  1.56562450E-05 -3.71122892E-04 -2.72863834E-04 -4.22047970E-03  2.83137233E-05
  1.77412985E-04  1.86427116E-04  2.27953714E-03  2.40063258E-03  2.38379393E-03
 -1.11022556E-05 -8.39235014E-06  1.26313204E-04 -5.06444003E-01 -8.97443512E-03
 -1.66749734E-05  3.89930477E-04 -2.85851335E-04 -4.35438827E-03 -2.42707334E-05
 -2.10053299E-04  1.98016523E-04  2.37535433E-03  2.51287271E-03  2.48486044E-03
 -1.35196947E-05  9.91412185E-06 -1.33056821E-04  4.72950555E-01  8.35932327E-03
  1.46568009E-05  3.62622769E-04  2.66693845E-04  4.14272900E-03  2.94654664E-05
 -1.72974892E-04 -1.81106066E-04 -2.23252695E-03 -2.35197114E-03 -2.33507150E-03
 -1.07258758E-05 -8.21984757E-06 -1.23348626E-04 -1.81901735E-04  9.15415830E-07
  3.85530393E-07  2.95397910E-06 -1.02793874E-07 -1.83397981E-05 -1.64982171E-06
  6.13534371E-05 -1.89419916E-06  4.28266022E-06  5.09661868E-06  5.76037873E-06
  2.91244015E-05 -7.42799948E-07 -3.92057470E-05  6.92791383E-08  9.15873261E-07
 -3.01235708E-06 -1.90830059E-07  1.26648737E-07 -3.44573974E-06 -1.13545886E-05
 -4.73924585E-06  1.50863832E-06 -3.37004533E-07 -9.55443446E-08 -3.03556596E-07
 -5.30320008E-05  4.35404433E-06  6.85284156E-07 -1.87371489E-06  4.54975923E-06
  5.62572020E-06  4.35408020E-04 -1.54569692E-05  4.51806159E-05 -1.92104118E-05
 -6.20668016E-06 -1.53844789E-05 -3.16632847E-06  7.36710865E-06  3.39070923E-06
  4.67732033E-05 -1.83003286E-06 -1.57814222E-04  1.72600259E-06 -3.33197310E-06
  4.95601973E-06 -4.22234980E-04  1.29405081E-05 -3.83083466E-05 -1.84083624E-05
  1.41068985E-05  1.66020304E-05  3.37187478E-06 -5.97052513E-06 -2.51364496E-06
  4.61616864E-05 -1.90940951E-06  1.53107550E-04  8.78953672E-07  3.05540884E-07
 -4.79634131E-07 -9.54814333E-07  2.17338959E-04  1.14603564E-05 -6.19473071E-07
  4.52804182E-06  1.35596135E-09 -2.34328142E-05  6.92459784E-06 -1.09395157E-04
  5.56063481E-06  1.93473186E-06  3.15357292E-06  1.75666637E-06  3.41391218E-05
 -2.19654804E-06  4.14163657E-05  5.09287133E-01  9.23967998E-03 -4.77735527E-05
 -4.00729352E-04  2.93364580E-04  3.66178054E-03  5.55007031E-05  2.61786131E-04
 -2.54796167E-04 -2.23024275E-03 -2.34570988E-03 -2.31305462E-03 -1.90292560E-05
  7.56436498E-06  1.45053456E-04 -4.69974710E-01 -8.52376457E-03  4.42197456E-05
 -3.70353235E-04 -2.70840404E-04 -3.38623288E-03 -5.11921481E-05  2.30332734E-04
  2.35009143E-04  2.05897035E-03  2.15749975E-03  2.13493831E-03 -1.72085449E-05
 -6.96450606E-06  1.33127170E-04  5.19740244E-01  9.42215239E-03  4.80011610E-05
 -4.08601588E-04  2.99221424E-04  3.76137634E-03 -5.41373979E-05  2.63148749E-04
 -2.58385034E-04 -2.28109299E-03 -2.39822984E-03 -2.36619884E-03  1.90728397E-05
 -7.64410267E-06  1.47675282E-04 -4.88467036E-01 -8.85376118E-03 -4.49449169E-05
 -3.84730255E-04 -2.81318020E-04 -3.53716208E-03  5.10354519E-05  2.40335984E-04
  2.42670514E-04  2.14417110E-03  2.24860755E-03  2.22408950E-03  1.78872983E-05
  7.41974960E-06  1.38092112E-04  1.73699039E-04  1.14238270E-05  6.89831334E-07
  4.44378849E-06 -2.09255036E-08 -2.69094050E-05 -7.13575826E-06 -1.11228548E-04