047_Ethyne Gaussian SP Calculation on node144.bme.utexas.edu            
Freq      RMP2-FC                                                     6-31G(d)            
Number of atoms                            I                4
Info1-9                                    I   N=           9
          15          14        1002           0           0         100
           6           2           1
Charge                                     I                0
Multiplicity                               I                1
Number of electrons                        I               14
Number of alpha electrons                  I                7
Number of beta electrons                   I                7
Number of basis functions                  I               34
Number of independent functions            I               34
Number of point charges in /Mol/           I                0
Number of translation vectors              I                0
Atomic numbers                             I   N=           4
           6           1           6           1
Nuclear charges                            R   N=           4
  6.00000000E+00  1.00000000E+00  6.00000000E+00  1.00000000E+00
Current cartesian coordinates              R   N=          12
 -1.38777878E-17 -5.37764278E-17  1.15052651E+00 -5.55111512E-17 -4.85722573E-17
  3.16531917E+00  2.77555756E-17  4.33680869E-17 -1.15052367E+00  5.55111512E-17
  1.59594560E-16 -3.16533621E+00
Force Field                                I                0
Int Atom Types                             I   N=           4
           0           0           0           0
MM charges                                 R   N=           4
  0.00000000E+00  0.00000000E+00  0.00000000E+00  0.00000000E+00
Integer atomic weights                     I   N=           4
          12           1          12           1
Real atomic weights                        R   N=           4
  1.20000000E+01  1.00782504E+00  1.20000000E+01  1.00782504E+00
Atom fragment info                         I   N=           4
           0           0           0           0
Atom residue num                           I   N=           4
           0           0           0           0
Nuclear spins                              I   N=           4
           0           1           0           1
Nuclear ZEff                               R   N=           4
 -3.60000000E+00 -1.00000000E+00 -3.60000000E+00 -1.00000000E+00
Nuclear QMom                               R   N=           4
  0.00000000E+00  0.00000000E+00  0.00000000E+00  0.00000000E+00
Nuclear GFac                               R   N=           4
  0.00000000E+00  2.79284600E+00  0.00000000E+00  2.79284600E+00
MicOpt                                     I   N=           4
          -1          -1          -1          -1
Number of contracted shells                I               12
Number of primitive shells                 I               30
Pure/Cartesian d shells                    I                1
Pure/Cartesian f shells                    I                0
Highest angular momentum                   I                2
Largest degree of contraction              I                6
Shell types                                I   N=          12
           0          -1          -1           2           0           0
           0          -1          -1           2           0           0
Number of primitives per shell             I   N=          12
           6           3           1           1           3           1
           6           3           1           1           3           1
Shell to atom map                          I   N=          12
           1           1           1           1           2           2
           3           3           3           3           4           4
Primitive exponents                        R   N=          30
  3.04752488E+03  4.57369518E+02  1.03948685E+02  2.92101553E+01  9.28666296E+00
  3.16392696E+00  7.86827235E+00  1.88128854E+00  5.44249258E-01  1.68714478E-01
  8.00000000E-01  1.87311370E+01  2.82539436E+00  6.40121692E-01  1.61277759E-01
  3.04752488E+03  4.57369518E+02  1.03948685E+02  2.92101553E+01  9.28666296E+00
  3.16392696E+00  7.86827235E+00  1.88128854E+00  5.44249258E-01  1.68714478E-01
  8.00000000E-01  1.87311370E+01  2.82539436E+00  6.40121692E-01  1.61277759E-01
Contraction coefficients                   R   N=          30
  1.83473713E-03  1.40373228E-02  6.88426223E-02  2.32184443E-01  4.67941348E-01
  3.62311985E-01 -1.19332420E-01 -1.60854152E-01  1.14345644E+00  1.00000000E+00
  1.00000000E+00  3.34946043E-02  2.34726953E-01  8.13757326E-01  1.00000000E+00
  1.83473713E-03  1.40373228E-02  6.88426223E-02  2.32184443E-01  4.67941348E-01
  3.62311985E-01 -1.19332420E-01 -1.60854152E-01  1.14345644E+00  1.00000000E+00
  1.00000000E+00  3.34946043E-02  2.34726953E-01  8.13757326E-01  1.00000000E+00
P(S=P) Contraction coefficients            R   N=          30
  0.00000000E+00  0.00000000E+00  0.00000000E+00  0.00000000E+00  0.00000000E+00
  0.00000000E+00  6.89990666E-02  3.16423961E-01  7.44308291E-01  1.00000000E+00
  0.00000000E+00  0.00000000E+00  0.00000000E+00  0.00000000E+00  0.00000000E+00
  0.00000000E+00  0.00000000E+00  0.00000000E+00  0.00000000E+00  0.00000000E+00
  0.00000000E+00  6.89990666E-02  3.16423961E-01  7.44308291E-01  1.00000000E+00
  0.00000000E+00  0.00000000E+00  0.00000000E+00  0.00000000E+00  0.00000000E+00
Coordinates of each shell                  R   N=          36
 -1.38777878E-17 -2.42861287E-17  1.15052651E+00 -1.38777878E-17 -2.42861287E-17
  1.15052651E+00 -1.38777878E-17 -2.42861287E-17  1.15052651E+00 -1.38777878E-17
 -2.42861287E-17  1.15052651E+00 -2.77555756E-17  6.93889390E-18  3.16531917E+00
 -2.77555756E-17  6.93889390E-18  3.16531917E+00  2.77555756E-17  1.00613962E-16
 -1.15052367E+00  2.77555756E-17  1.00613962E-16 -1.15052367E+00  2.77555756E-17
  1.00613962E-16 -1.15052367E+00  2.77555756E-17  1.00613962E-16 -1.15052367E+00
  5.55111512E-17  1.04083409E-16 -3.16533621E+00  5.55111512E-17  1.04083409E-16
 -3.16533621E+00
Constraint Structure                       R   N=          12
 -1.38777878E-17 -2.42861287E-17  1.15052651E+00 -2.77555756E-17  6.93889390E-18
  3.16531917E+00  2.77555756E-17  1.00613962E-16 -1.15052367E+00  5.55111512E-17
  1.04083409E-16 -3.16533621E+00
Num ILSW                                   I              100
ILSW                                       I   N=         100
           0           1           0           0           2           0
           0           0           0           0           0          -1
           0           0           0           0           0           0
           0           0           0           0           1           0
           1           0           0           0           0           0
           0           0      100000           0          -1           0
           0           0           0           0           0           0
           0           0           0           1           1           0
           0           0           1           0           0           0
           0           0           4          40           0           0
           0           0           0           0           0           0
           0           0           0           0           0           0
           0           0           0           0           0           0
           0           0           0           0           0           0
           0           0           0           0           0           0
           0           0           0           0           0           0
           0           0           0           0
Num RLSW                                   I               40
RLSW                                       R   N=          40
  1.00000000E+00  1.00000000E+00  1.00000000E+00  1.00000000E+00  1.00000000E+00
  0.00000000E+00  0.00000000E+00  1.00000000E+00  0.00000000E+00  0.00000000E+00
  0.00000000E+00  0.00000000E+00  1.00000000E+00  0.00000000E+00  0.00000000E+00
  0.00000000E+00  0.00000000E+00  1.00000000E+00  0.00000000E+00  0.00000000E+00
  0.00000000E+00  0.00000000E+00  1.00000000E+00  0.00000000E+00  0.00000000E+00
  0.00000000E+00  0.00000000E+00  1.00000000E+00  0.00000000E+00  0.00000000E+00
  0.00000000E+00  0.00000000E+00  0.00000000E+00  0.00000000E+00  0.00000000E+00
  0.00000000E+00  0.00000000E+00  0.00000000E+00  1.00000000E+00  1.00000000E+00
MxBond                                     I                2
NBond                                      I   N=           4
           2           1           2           1
IBond                                      I   N=           8
           2           3           1           0           1           4
           3           0
RBond                                      R   N=           8
  1.00000000E+00  3.00000000E+00  1.00000000E+00  0.00000000E+00  3.00000000E+00
  1.00000000E+00  1.00000000E+00  0.00000000E+00
Virial Ratio                               R      2.003650939253629E+00
SCF Energy                                 R     -7.681539197718611E+01
MP2 Energy                                 R     -7.706679350366120E+01
Total Energy                               R     -7.706679350366120E+01
Post-SCF wavefunction norm                 R      1.484657405672129E+00
RMS Force                                  R      6.234512057729428E-06
RMS Density                                R      4.769268003263675E-10
External E-field                           R   N=          35
  0.00000000E+00  0.00000000E+00  0.00000000E+00  0.00000000E+00  0.00000000E+00
  0.00000000E+00  0.00000000E+00  0.00000000E+00  0.00000000E+00  0.00000000E+00
  0.00000000E+00  0.00000000E+00  0.00000000E+00  0.00000000E+00  0.00000000E+00
  0.00000000E+00  0.00000000E+00  0.00000000E+00  0.00000000E+00  0.00000000E+00
  0.00000000E+00  0.00000000E+00  0.00000000E+00  0.00000000E+00  0.00000000E+00
  0.00000000E+00  0.00000000E+00  0.00000000E+00  0.00000000E+00  0.00000000E+00
  0.00000000E+00  0.00000000E+00  0.00000000E+00  0.00000000E+00  0.00000000E+00
IOpCl                                      I                0
IROHF                                      I                0
Alpha Orbital Energies                     R   N=          34
 -1.12443565E+01 -1.12409867E+01 -1.01505657E+00 -7.61126017E-01 -6.69511834E-01
 -3.96905809E-01 -3.96905809E-01  2.12400006E-01  2.12400006E-01  2.46373225E-01
  2.94762578E-01  6.09868778E-01  6.47017408E-01  7.49706660E-01  7.49706660E-01
  9.03201270E-01  9.03201270E-01  9.38778705E-01  1.04572117E+00  1.28348148E+00
  1.52953525E+00  1.74255588E+00  1.78496998E+00  1.78496998E+00  1.82079492E+00
  1.82079492E+00  2.24266232E+00  2.24266232E+00  2.76145774E+00  2.80971241E+00
  2.80971241E+00  3.55800928E+00  4.54858188E+00  4.76021293E+00
Alpha MO coefficients                      R   N=        1156
  7.03391820E-01  1.82046719E-02 -1.02607549E-18  2.86256723E-18  3.14648781E-04
 -3.64120109E-03 -3.95343943E-17  9.04401060E-17 -9.04828805E-04 -2.11041195E-03
 -2.11041195E-03 -5.39535971E-04  1.94891969E-16 -4.26037788E-17  1.05709470E-16
 -6.86649179E-04  1.56333462E-03  7.03604801E-01  1.82105840E-02 -1.82852275E-17
  4.48706380E-17 -3.14547743E-04 -3.64546202E-03 -6.18765563E-17  1.51697795E-16
  9.03173675E-04 -2.11093121E-03 -2.11093122E-03 -5.39786415E-04 -4.67783074E-17
 -5.04582798E-17  1.23519074E-16 -6.86806249E-04  1.56331396E-03  7.04540801E-01
  1.96884093E-02 -1.22408573E-17  1.15493396E-16 -3.79318333E-04 -1.40530441E-02
  5.13887066E-17 -1.87256745E-17  5.33755799E-03 -1.76387975E-03 -1.76387974E-03
 -6.65372862E-04 -1.30094434E-16 -1.28144977E-16 -4.81649457E-17 -6.06030828E-04
  6.93608621E-05 -7.04328110E-01 -1.96828768E-02 -7.08622813E-17  8.19353897E-17
 -3.79428687E-04  1.40519502E-02 -4.11027545E-17 -5.69444411E-18  5.33782493E-03
  1.76322964E-03  1.76322964E-03  6.65222522E-04 -1.29735969E-16 -1.40410593E-16
 -1.68982656E-17  6.05808845E-04 -6.88934244E-05 -1.70192303E-01  3.15671010E-01
  8.62737266E-17  1.47937236E-16 -1.45051742E-01  2.46262854E-01 -1.00241529E-16
 -6.10429669E-16  9.42193995E-03 -1.20862925E-02 -1.20862925E-02  2.43467290E-02
 -2.10643876E-16  2.08808962E-16  2.54647061E-16  7.30735453E-02 -1.50113601E-03
 -1.70191535E-01  3.15669700E-01  5.21346519E-17  8.50887772E-17  1.45053386E-01
  2.46260308E-01  1.22678861E-16  4.06763812E-16 -9.42282561E-03 -1.20861873E-02
 -1.20861874E-02  2.43464532E-02  2.95407291E-16 -1.99721865E-16  9.17731422E-17
  7.30716036E-02 -1.50154466E-03 -1.07499673E-01  2.22013595E-01  1.01909753E-16
 -4.00841371E-16  1.99114544E-01  8.40179178E-02  1.38848700E-17 -2.04426540E-16
  1.72298360E-01 -9.35262483E-03 -9.35262479E-03  3.86757712E-02  2.69252296E-16
  5.71393469E-17  4.71269912E-16  2.10347758E-01  7.79985170E-02  1.07500444E-01
 -2.22014367E-01  1.15567482E-16 -1.66041331E-16  1.99096872E-01 -8.40191739E-02
  7.76321851E-17  1.39584902E-18  1.72295617E-01  9.35261044E-03  9.35261048E-03
 -3.86751691E-02  1.95064922E-16  7.13599847E-17  3.70958963E-16 -2.10338423E-01
 -7.79937865E-02  1.54899125E-04 -9.28002978E-03 -2.00069713E-16 -3.20462911E-17
 -3.83185446E-01 -5.28406040E-02  2.39555568E-16 -3.25032228E-16 -1.10480880E-01
 -9.36151976E-04 -9.36151968E-04 -1.48712172E-02  1.86510029E-16  2.92506079E-17
  1.85817812E-16 -2.17758086E-01 -1.44680453E-01  1.58933218E-04 -9.28837363E-03
  8.52571068E-17  5.16375657E-16  3.83192629E-01 -5.28372604E-02 -1.03575172E-16
  7.85389038E-17  1.10496331E-01 -9.35977758E-04 -9.35977758E-04 -1.48727619E-02
 -2.55529574E-16  5.96912919E-17  1.00190368E-16 -2.17765862E-01 -1.44682291E-01
 -7.33022102E-17 -8.42275093E-16  3.95990003E-01  8.82929641E-07  1.83598532E-16
  3.08548250E-14  2.74447440E-01  6.11929035E-07 -2.65243721E-14 -4.68907645E-16
 -3.50656115E-16  7.42015077E-16  1.42373671E-16 -2.55121831E-02 -5.68839171E-08
  2.43368178E-16  1.04580837E-14  2.03066368E-16  1.01334838E-15  3.95989922E-01
  8.82929454E-07  1.78606026E-16 -3.07651488E-14  2.74447276E-01  6.11928661E-07
 -2.67212348E-14  3.73192074E-16  3.97083026E-16 -8.85726730E-16  2.61770443E-16
  2.55123963E-02  5.68843930E-08 -2.02790166E-16 -1.06690363E-14 -5.34321359E-16
 -2.59937466E-15 -8.82929637E-07  3.95990005E-01 -5.11276758E-16  7.23949911E-14
 -6.11929031E-07  2.74447442E-01 -5.87380038E-14 -1.03521549E-15 -4.00227795E-16
  1.16374003E-15 -4.31081860E-16  5.68839173E-08 -2.55121830E-02  1.66982646E-15
  2.14779293E-14  4.56936194E-16  3.00620987E-15 -8.82929458E-07  3.95989921E-01
 -4.18844994E-16 -7.13712040E-14 -6.11928665E-07  2.74447274E-01 -5.96644424E-14
  7.81821205E-16  2.53320606E-16 -1.32258742E-15 -3.19529711E-16 -5.68843928E-08
  2.55123965E-02 -1.56020495E-15 -2.24487218E-14  1.27261781E-17  2.12855311E-16
  3.34737834E-01  2.09282047E-06 -1.43625017E-16 -3.25760684E-15  8.09547559E-01
  5.06138696E-06  3.95621744E-15 -2.59643404E-16 -1.05757007E-16  2.58845440E-16
 -4.12184282E-17  3.22733900E-02  2.01777047E-07 -4.94356227E-17 -2.34622253E-15
  1.49587673E-16 -1.75239715E-16 -3.34737817E-01 -2.09282037E-06  6.94073725E-17
  1.78772512E-15 -8.09547719E-01 -5.06138797E-06  4.90412079E-15  2.18341599E-16
 -7.38596949E-17 -7.22814728E-17  1.05990937E-16  3.22731509E-02  2.01775551E-07
  1.59679566E-16  4.64534322E-15 -2.31682528E-16  1.23825640E-15 -2.09282048E-06
  3.34737833E-01 -1.80917158E-16 -3.10042243E-15 -5.06138697E-06  8.09547558E-01
  1.05424570E-14 -6.97081124E-17 -1.82129813E-16 -1.86968752E-16 -3.82208098E-17
 -2.01777047E-07  3.22733901E-02 -3.90900466E-16 -8.91878240E-15 -1.11122817E-16
  2.47149531E-16  2.09282037E-06 -3.34737817E-01  6.77575927E-17  8.04627452E-15
  5.06138797E-06 -8.09547721E-01  5.83495021E-15 -7.87515244E-17 -6.48663936E-17
 -2.91065335E-16  1.83293899E-17 -2.01775552E-07  3.22731509E-02 -2.07011713E-16
  3.19276136E-15 -8.74686030E-02  2.00772513E-01  8.01258126E-17 -1.94224239E-16
  7.61399899E-02 -9.08771159E-01 -9.53315479E-16 -2.06889400E-15  2.22911902E+00
  1.04087039E-02  1.04087039E-02 -2.90418016E-02  2.30449291E-16 -1.29695128E-18
 -1.22568325E-16 -8.07343216E-02 -2.09331720E+00  8.74715075E-02 -2.00772810E-01
  5.10520283E-16  1.92174222E-15  7.61579974E-02  9.08723621E-01  1.38335813E-15
  2.01768910E-15  2.22915134E+00 -1.04087368E-02 -1.04087368E-02  2.90426996E-02
 -2.63491282E-16 -1.68858443E-16 -1.70087871E-17  8.07382811E-02  2.09338195E+00
  4.67108954E-02 -3.48910979E-03  5.66989718E-17  6.13558827E-16 -2.54996262E-01
 -1.42361974E+00 -7.42750448E-16  7.47381885E-16 -8.75361850E-01  1.50690101E-03
  1.50690101E-03  9.38676683E-03  4.02859327E-17  5.92362674E-17 -1.83655838E-17
  1.64401578E-02  1.76553033E+00  4.67065312E-02 -3.47716652E-03  1.44884268E-16
 -3.89012270E-16  2.54991854E-01 -1.42369742E+00  6.02808320E-16 -8.27190472E-16
  8.75177498E-01  1.50749470E-03  1.50749469E-03  9.38501085E-03  4.95961446E-18
  1.89837970E-17  9.45418936E-17  1.64390176E-02  1.76535759E+00  1.23374716E-01
  8.47085105E-02  6.79155019E-16  8.22360514E-15  1.83008740E-01 -6.67331823E+00
  9.73368372E-17 -6.02467110E-15  5.21910888E+00 -2.44729480E-03 -2.44729484E-03
  5.90163400E-02  2.80712432E-16  1.31074364E-16 -7.42313597E-16  3.71190872E-01
 -2.24572309E+00 -1.23374779E-01 -8.46956061E-02  9.92978616E-16  7.81743635E-15
  1.83010699E-01  6.67332432E+00 -1.14365523E-17 -5.13253796E-15  5.21910124E+00
  2.44784907E-03  2.44784902E-03 -5.90150826E-02  7.52622251E-17 -8.49410478E-18
 -2.50210907E-17 -3.71189836E-01  2.24570746E+00  1.12563589E-02  7.34849373E-01
 -8.03012523E-16  1.02697300E-15 -1.88265937E-01 -4.84981638E-01  4.98213008E-16
 -1.92539319E-15  5.08705466E-01  3.34747420E-02  3.34747419E-02  1.21223180E-01
  6.72983679E-17  2.60028750E-16  2.86848567E-16  3.60625380E-01 -5.22069328E-01
  1.12577605E-02  7.34849493E-01 -1.54384692E-15 -1.06296471E-15  1.88266289E-01
 -4.85095077E-01  1.64350334E-15  1.80174769E-15 -5.08810352E-01  3.34747860E-02
  3.34747861E-02  1.21224956E-01  7.70063291E-17  1.46130834E-16 -9.07355185E-17
  3.60630227E-01 -5.22118821E-01  8.08606916E-17  1.29469322E-15  7.06282529E-01
 -1.74727036E-06 -1.02747542E-15 -7.29871648E-15 -6.42021746E-01  1.58829579E-06
  8.96988030E-15  3.97995795E-16 -8.19318503E-17 -3.25175771E-16 -1.04864949E-16
 -7.05648293E-02  1.74570132E-07  3.71126063E-16 -4.32319257E-15 -2.13929633E-17
  1.25689283E-15  7.06283642E-01 -1.74727311E-06 -1.96146005E-17  8.16720624E-15
 -6.42023110E-01  1.58829915E-06  5.16756628E-15 -5.23136366E-16 -7.66499854E-17
  4.48335971E-16  3.26180004E-16  7.05648582E-02 -1.74570204E-07  1.63950138E-15
  1.15664370E-16 -1.13924727E-15 -2.26436579E-15  1.74727035E-06  7.06282530E-01
 -2.20154054E-15  3.74089819E-14 -1.58829579E-06 -6.42021748E-01 -2.16495332E-14
 -2.18109239E-16  3.76562787E-17 -7.38698382E-16  1.53007802E-16 -1.74570132E-07
 -7.05648293E-02 -6.52655912E-15  1.11513241E-14  9.58951928E-16  3.24281812E-15
  1.74727311E-06  7.06283641E-01 -2.79437001E-15 -3.77000756E-14 -1.58829916E-06
 -6.42023107E-01 -2.19840596E-14 -4.52719409E-16  5.71856336E-18  1.15828006E-15
 -4.13832927E-16  1.74570204E-07  7.05648583E-02  5.05893995E-15 -1.08965431E-14
  1.91174499E-16 -1.19956679E-15 -8.28650443E-01  2.08512398E-06 -4.85692921E-16
 -4.37469603E-15  1.12946823E+00 -2.84206847E-06  5.15223438E-15  6.39502311E-16
  1.13051603E-16  4.00566610E-16 -3.19182397E-16 -5.52012472E-02  1.38902290E-07
  7.51437540E-17 -2.24678869E-15 -2.87293380E-16 -2.27029872E-16  8.28649458E-01
 -2.08512151E-06 -5.11436459E-16  2.61136175E-15 -1.12946737E+00  2.84206631E-06
  5.89788093E-15  4.50261300E-16  7.33462640E-17  1.24934524E-15  3.44723561E-16
 -5.52011095E-02  1.38901944E-07  3.53720126E-16  3.21861503E-15  2.99938415E-16
  8.19406461E-16 -2.08512398E-06 -8.28650441E-01  7.74209560E-17 -2.00242001E-14
  2.84206848E-06  1.12946823E+00  1.02495947E-14  5.01648614E-16  1.61624885E-16
  3.97008009E-16 -1.03661983E-16 -1.38902291E-07 -5.52012474E-02  3.79689089E-16
 -2.55155993E-15  6.46128784E-17  8.23208571E-16  2.08512151E-06  8.28649459E-01
 -2.69320163E-15  8.53585070E-15 -2.84206631E-06 -1.12946737E+00  1.99911767E-14
  6.77665636E-16  7.73615740E-16  1.27516359E-15  2.41808007E-16 -1.38901944E-07
 -5.52011093E-02  1.41129819E-15  9.56071116E-15  2.70407878E-02 -6.34970916E-01
  5.43724812E-16 -1.78089419E-16 -4.02545833E-01 -4.31175788E+00 -2.93638498E-16
  3.44268071E-16  5.69423420E+00 -2.69317261E-02 -2.69317261E-02 -2.11229442E-01
  4.05754989E-16 -2.58003524E-16  8.14422338E-16 -2.29471524E-01 -2.56636771E+00
 -2.70413941E-02  6.34985032E-01 -9.57419205E-16 -3.34745125E-15 -4.02554382E-01
  4.31178887E+00  1.79613272E-15  4.85250642E-15  5.69421431E+00  2.69334034E-02
  2.69334034E-02  2.11231615E-01 -8.01566726E-17 -3.21276507E-18 -4.22229687E-16
  2.29467992E-01  2.56632748E+00  1.56852560E-02 -5.26906528E-01 -6.85110748E-16
 -2.33402949E-15 -6.83747027E-01  2.37011647E+00  6.17002851E-16  2.32800359E-15
  2.26199396E+00 -7.31880238E-02 -7.31880237E-02 -1.46641084E-02 -6.94266399E-17
  1.84107296E-16 -2.68153449E-16  3.39810542E-02 -2.03535661E+00  1.56837600E-02
 -5.26897843E-01 -3.09532123E-16  2.39276707E-15  6.83748260E-01  2.37026811E+00
  3.88753638E-16 -2.90223960E-15 -2.26180224E+00 -7.31872392E-02 -7.31872392E-02
 -1.46640062E-02  8.36678199E-18  1.67816197E-16  7.11687941E-18  3.39872727E-02
 -2.03525308E+00  1.27173643E-02 -6.18860450E-01 -2.43610898E-17  1.36989631E-15
  3.16946939E-02 -1.72168070E-01 -9.42265781E-17 -1.18021422E-15 -1.10204316E+00
 -7.18933208E-02 -7.18933207E-02  4.15387112E-02  1.44527863E-16  1.21512228E-16
 -1.84876532E-16  8.72742103E-01  1.00942626E-01  1.27152999E-02 -6.18845117E-01
 -1.89666058E-16 -4.67030832E-16 -3.16708454E-02 -1.72027131E-01  2.51793863E-16
  4.46113170E-16  1.10214841E+00 -7.18903431E-02 -7.18903431E-02  4.15403210E-02
 -2.63996344E-16  1.32275544E-16  1.06740670E-17  8.72770453E-01  1.00951634E-01
 -1.32113360E-02  8.67350352E-01  1.94534202E-16  5.36447984E-16 -8.54959057E-01
 -4.37776208E+00  2.56397174E-16 -7.92065945E-16  2.98737530E+00  1.23088254E-01
  1.23088254E-01 -2.30270217E-01  1.17899820E-15 -3.42016568E-16 -1.08070465E-16
  4.78474531E-01 -1.05494918E+00  1.32114694E-02 -8.67378133E-01 -8.11587100E-17
  2.28919484E-16 -8.54952898E-01  4.37778275E+00  2.42859342E-16  1.78309758E-16
  2.98739503E+00 -1.23092901E-01 -1.23092901E-01  2.30273650E-01 -2.57348876E-16
 -1.50802193E-16  9.28614165E-16 -4.78440945E-01  1.05493046E+00  4.98542513E-02
  1.18758483E+00  5.69917975E-16  3.71191827E-15  2.03823384E-01 -1.32487122E+01
  1.36346079E-16  2.49453531E-16  9.40036850E+00  9.96529131E-02  9.96529130E-02
 -2.34522888E-01  2.83837802E-15  1.54483341E-15  8.14005165E-15 -8.79413665E-01
 -2.32532147E+00 -4.98541536E-02 -1.18756828E+00  5.62798809E-16  3.85780306E-15
  2.03819256E-01  1.32487731E+01  2.92736294E-16  5.11386247E-17  9.40031166E+00
 -9.96476075E-02 -9.96476076E-02  2.34519237E-01 -4.76690989E-15 -1.22360339E-15
 -8.67234969E-15  8.79397923E-01  2.32525663E+00 -3.87095993E-16 -2.91388297E-15
  2.37787735E-01  6.96167817E-05 -4.79819388E-16  3.42141945E-14 -7.08083487E-02
 -2.07304610E-05 -2.26405029E-14 -1.40734885E-15  8.32389685E-16  5.24477143E-16
 -3.55430253E-15  6.07485564E-01  1.77852697E-04  1.91796663E-15  4.83967389E-15
  1.61929957E-16  4.27683168E-15  2.37788463E-01  6.96169949E-05 -1.86024898E-16
 -3.34726869E-14 -7.08081216E-02 -2.07303945E-05 -2.35996366E-14 -6.24704557E-16
  7.38640542E-16 -1.13333470E-15 -3.65014022E-15 -6.07484440E-01 -1.77852368E-04
 -1.21396590E-15 -6.34520356E-15 -6.23916969E-16 -1.58901610E-14 -6.96167817E-05
  2.37787735E-01 -2.61384717E-15  1.80933782E-13  2.07304610E-05 -7.08083487E-02
 -1.32256742E-13  3.65229863E-15 -5.45148960E-15  2.49715614E-15 -1.79511840E-15
 -1.77852697E-04  6.07485564E-01  1.22139781E-14  3.50830952E-14  4.29445308E-16
  1.77294441E-14 -6.96169949E-05  2.37788463E-01 -2.72307816E-15 -1.81742791E-13
  2.07303945E-05 -7.08081217E-02 -1.31043829E-13  3.10084449E-15 -3.31614862E-15
 -4.07680944E-15 -1.62655976E-15  1.77852368E-04 -6.07484440E-01 -1.23937100E-14
 -3.32378719E-14  7.85401690E-14  2.07354659E-11  1.07111020E-15  1.08117189E-15
  4.48116717E-13 -1.38579461E-10 -4.18784037E-16 -1.27879205E-16  9.19603812E-11
 -4.02189085E-02  4.02189085E-02 -2.57258926E-12  6.66453472E-01  3.28047621E-15
  1.60248249E-15 -7.59216770E-12 -2.14546676E-11 -1.02300139E-13 -1.96817881E-11
  1.17445897E-15  9.88556905E-16 -2.19015193E-13  1.37440963E-10 -3.29761961E-16
 -2.70120961E-16  9.21485211E-11 -4.02189092E-02  4.02189092E-02  2.88522932E-12
  6.66453483E-01 -3.18517741E-15 -2.11076956E-15  6.91282149E-12  2.22115993E-11
 -1.12056300E-12 -2.97586208E-10  6.53864185E-16 -1.39574151E-15 -6.41002816E-12
  1.98851326E-09  2.69628571E-17 -2.91030979E-16 -1.31957090E-09  5.77165637E-01
 -5.77165637E-01  3.69234226E-11  4.64407953E-02  5.28695172E-16 -2.51591247E-15
  1.08930105E-10  3.07868337E-10  1.46673748E-12  2.82415164E-10  1.47419159E-16
 -8.33038645E-16  3.15910512E-12 -1.97218467E-09 -3.80599917E-16  7.84497673E-16
 -1.32226507E-09  5.77165647E-01 -5.77165647E-01 -4.13800429E-11  4.64407961E-02
 -1.83700065E-15  5.65408517E-15 -9.91849025E-11 -3.18725564E-10 -1.44601109E-11
  6.80925684E-11  2.22763234E-16  1.54408340E-15  5.14126238E-11 -1.90353160E-11
 -9.68564169E-16  2.10803486E-15 -3.36553977E-11 -4.76957145E-01  4.76957145E-01
  5.23320709E-11  5.14825396E-01  1.28036214E-15 -4.47503265E-15 -7.27627615E-11
  4.93276676E-11 -1.42580426E-11  6.34470089E-11  6.34573467E-16 -7.48235794E-16
 -5.02969328E-11 -8.33765262E-12 -5.77128175E-17 -1.47329808E-15  3.79126097E-11
  4.76957139E-01 -4.76957139E-01  5.13330619E-11 -5.14825390E-01  1.15503295E-15
 -5.78651593E-15 -7.16548879E-11  4.89197625E-11  1.35178314E-11 -6.36608302E-11
 -9.96488602E-17 -6.67084106E-18 -4.80649685E-11  1.79029539E-11 -2.20166261E-16
  3.33044246E-16  3.13857364E-11  4.45851872E-01 -4.45851872E-01 -4.89232319E-11
  5.50742672E-01  7.56158838E-16 -1.02407473E-15  6.80287897E-11 -4.60932636E-11
  1.33301516E-11 -5.93025634E-11  2.61651351E-16 -3.51767530E-16  4.70199533E-11
  7.68072456E-12  2.18534132E-16 -3.27927083E-16 -3.55261141E-11 -4.45851866E-01
  4.45851866E-01 -4.79939668E-11 -5.50742665E-01  5.42747624E-16 -4.04509412E-16
  6.69815626E-11 -4.57555717E-11  1.04967120E-01 -4.51126495E-02 -1.77487671E-15
  5.59231340E-15 -3.61531364E-01 -1.53742678E-01 -1.94208401E-15  7.15111265E-15
  4.15909812E-01  6.15186262E-01  6.15186263E-01 -5.57493882E-01 -6.43804217E-15
  6.68763634E-15 -2.44845104E-14  4.76678371E-01 -3.63666018E-01  1.04967411E-01
 -4.51077379E-02  1.61934799E-15 -5.74122382E-15  3.61508728E-01 -1.53879972E-01
  2.04136464E-15 -7.27331711E-15 -4.16008548E-01  6.15190391E-01  6.15190391E-01
 -5.57508397E-01  7.00065471E-15  7.02724050E-15 -2.38968072E-14  4.76663781E-01
 -3.63690317E-01 -1.15923641E-15  1.04310784E-15 -2.46307760E-01  3.06170883E-04
  1.76204754E-15  4.02616161E-16 -2.87457841E-01  3.57322162E-04 -2.94484741E-15
 -3.59569908E-15 -5.10358207E-15  4.44815383E-15 -9.48742093E-16  9.91077095E-01
 -1.23195043E-03 -3.35994594E-15  2.66301592E-15 -6.22861841E-16  1.58458602E-15
  2.46307329E-01 -3.06170348E-04 -3.22285080E-15  2.03824476E-15  2.87457934E-01
 -3.57322278E-04  2.88443742E-15 -5.21880373E-15 -5.16557108E-15  2.33205726E-15
  8.87733695E-16  9.91077792E-01 -1.23195129E-03 -3.06193448E-15  2.21347811E-15
  2.71029221E-15  1.01957636E-15 -3.06170884E-04 -2.46307760E-01 -1.09108463E-14
 -5.13650545E-15 -3.57322162E-04 -2.87457841E-01  1.22391198E-14  1.07370425E-14
  1.71301645E-14 -1.21977645E-14  2.96522183E-15  1.23195043E-03  9.91077095E-01
  1.08880725E-14 -9.61487239E-15  1.84525637E-15  4.29113181E-15  3.06170348E-04
  2.46307329E-01  7.65040973E-15 -6.66720000E-17  3.57322278E-04  2.87457934E-01
 -9.03227531E-15  1.40966122E-14  1.12901369E-14 -2.01662482E-14 -2.91536814E-15
  1.23195129E-03  9.91077792E-01  1.38689482E-14 -9.89655884E-15 -7.67557480E-02
  1.11656197E+00  1.29517903E-16  4.17823649E-16 -1.00998497E+00  2.31033899E+00
  6.17435582E-17 -2.80008159E-17 -1.34948051E+00 -8.00196866E-01 -8.00196866E-01
  1.07399324E+00 -1.01280044E-15 -2.06271361E-16 -7.32852626E-16 -4.21292645E-01
  4.73287117E-01  7.67522283E-02 -1.11653875E+00 -6.91284405E-17 -2.33233037E-16
 -1.00999283E+00 -2.31033583E+00 -6.19352471E-17 -5.30849811E-16 -1.34948031E+00
  8.00180186E-01  8.00180186E-01 -1.07399371E+00  1.61825327E-15 -3.23330323E-16
 -1.47610897E-15  4.21276906E-01 -4.73280799E-01 -2.91720735E-01  2.42266102E+00
 -4.77697304E-17 -1.02485855E-16 -1.88596312E-01  5.73861262E-01  1.74278487E-16
  7.14676786E-16  1.55988941E-01 -1.15898829E+00 -1.15898829E+00 -1.43553427E+00
  7.51344258E-16 -3.88503104E-16 -1.75172094E-15  2.74177727E-01 -3.24973598E-01
 -2.91736754E-01  2.42274456E+00 -3.25802812E-18 -2.59161449E-16  1.88569622E-01
  5.74006852E-01 -1.43194629E-16 -6.44609770E-16 -1.55916157E-01 -1.15904446E+00
 -1.15904446E+00 -1.43560693E+00  5.83393989E-16 -1.57246709E-16 -1.21877192E-15
  2.74183005E-01 -3.24963215E-01 -3.61841106E-01  1.60745223E+00 -5.06456974E-17
 -1.36649322E-16  7.63334331E-01  3.47773037E+00 -1.67939412E-16 -5.17282135E-16
 -1.73819204E+00 -1.11226560E+00 -1.11226560E+00 -2.01740844E+00 -5.00899095E-16
  5.44402936E-16  1.61423449E-15  4.15372051E-01  1.12425077E-01  3.61828498E-01
 -1.60734538E+00  1.43830819E-16  4.39433107E-16  7.63349424E-01 -3.47771344E+00
  1.24793377E-16  3.59003875E-16 -1.73819311E+00  1.11221694E+00  1.11221694E+00
  2.01733656E+00  4.96376731E-16  3.71719327E-16  1.11453036E-15 -4.15347672E-01
 -1.12434917E-01
Total SCF Density                          R   N=         595
  2.06331883E+00 -1.01832595E-01  2.99486771E-01 -1.54297675E-19 -9.57717623E-20
  3.13616165E-01 -5.78616281E-20 -3.59144108E-20 -1.30568959E-17  3.13616167E-01
  6.35332527E-03  3.94347587E-03 -1.11676894E-17 -6.90807015E-18  4.15035877E-01