opt=Tight                                                               
Freq      RMP2-FC                                                     6-31G(d)            
Number of atoms                            I               14
Info1-9                                    I   N=           9
          23          23        1002           0           0         100
           6           2           1
Charge                                     I               -1
Multiplicity                               I                1
Number of electrons                        I               54
Number of alpha electrons                  I               27
Number of beta electrons                   I               27
Number of basis functions                  I              119
Number of independent functions            I              119
Number of point charges in /Mol/           I                0
Number of translation vectors              I                0
Atomic numbers                             I   N=          14
           8           8           6           6           6           6
           6           1           1           1           1           1
           1           1
Nuclear charges                            R   N=          14
  8.00000000E+00  8.00000000E+00  6.00000000E+00  6.00000000E+00  6.00000000E+00
  6.00000000E+00  6.00000000E+00  1.00000000E+00  1.00000000E+00  1.00000000E+00
  1.00000000E+00  1.00000000E+00  1.00000000E+00  1.00000000E+00
Current cartesian coordinates              R   N=          42
  3.58939774E+00  2.43872581E+00 -1.16250837E-01  5.10107030E+00 -1.53247249E+00
  5.35315604E-01 -3.96874421E+00 -6.83325320E-01 -9.28470964E-01 -5.75109049E+00
  4.00492059E-01  1.07897175E+00 -1.33797268E+00  3.34637981E-01 -6.70268439E-01
  7.34306849E-01 -1.04723764E+00 -1.92118084E-01  3.36344272E+00  6.23755018E-02
  9.80277881E-02 -3.93299788E+00 -2.75111222E+00 -7.94303758E-01 -4.71826929E+00
 -2.18362259E-01 -2.80765416E+00 -5.82362271E+00  2.46374306E+00  9.58358723E-01
 -7.67397420E+00 -3.22348003E-01  8.41185511E-01 -5.09966937E+00 -1.03940371E-01
  2.97480369E+00 -1.09725765E+00  2.37432781E+00 -8.50367610E-01  5.82393603E-01
 -3.09399004E+00  8.60715351E-03
Force Field                                I                0
Int Atom Types                             I   N=          14
           0           0           0           0           0           0
           0           0           0           0           0           0
           0           0
MM charges                                 R   N=          14
  0.00000000E+00  0.00000000E+00  0.00000000E+00  0.00000000E+00  0.00000000E+00
  0.00000000E+00  0.00000000E+00  0.00000000E+00  0.00000000E+00  0.00000000E+00
  0.00000000E+00  0.00000000E+00  0.00000000E+00  0.00000000E+00
Integer atomic weights                     I   N=          14
          16          16          12          12          12          12
          12           1           1           1           1           1
           1           1
Real atomic weights                        R   N=          14
  1.59949146E+01  1.59949146E+01  1.20000000E+01  1.20000000E+01  1.20000000E+01
  1.20000000E+01  1.20000000E+01  1.00782504E+00  1.00782504E+00  1.00782504E+00
  1.00782504E+00  1.00782504E+00  1.00782504E+00  1.00782504E+00
Atom fragment info                         I   N=          14
           0           0           0           0           0           0
           0           0           0           0           0           0
           0           0
Atom residue num                           I   N=          14
           0           0           0           0           0           0
           0           0           0           0           0           0
           0           0
Nuclear spins                              I   N=          14
           0           0           0           0           0           0
           0           1           1           1           1           1
           1           1
Nuclear ZEff                               R   N=          14
 -5.60000000E+00 -5.60000000E+00 -3.60000000E+00 -3.60000000E+00 -3.60000000E+00
 -3.60000000E+00 -3.60000000E+00 -1.00000000E+00 -1.00000000E+00 -1.00000000E+00
 -1.00000000E+00 -1.00000000E+00 -1.00000000E+00 -1.00000000E+00
Nuclear QMom                               R   N=          14
  0.00000000E+00  0.00000000E+00  0.00000000E+00  0.00000000E+00  0.00000000E+00
  0.00000000E+00  0.00000000E+00  0.00000000E+00  0.00000000E+00  0.00000000E+00
  0.00000000E+00  0.00000000E+00  0.00000000E+00  0.00000000E+00
Nuclear GFac                               R   N=          14
  0.00000000E+00  0.00000000E+00  0.00000000E+00  0.00000000E+00  0.00000000E+00
  0.00000000E+00  0.00000000E+00  2.79284600E+00  2.79284600E+00  2.79284600E+00
  2.79284600E+00  2.79284600E+00  2.79284600E+00  2.79284600E+00
MicOpt                                     I   N=          14
          -1          -1          -1          -1          -1          -1
          -1          -1          -1          -1          -1          -1
          -1          -1
Number of contracted shells                I               42
Number of primitive shells                 I              105
Pure/Cartesian d shells                    I                1
Pure/Cartesian f shells                    I                0
Highest angular momentum                   I                2
Largest degree of contraction              I                6
Shell types                                I   N=          42
           0          -1          -1           2           0          -1
          -1           2           0          -1          -1           2
           0          -1          -1           2           0          -1
          -1           2           0          -1          -1           2
           0          -1          -1           2           0           0
           0           0           0           0           0           0
           0           0           0           0           0           0
Number of primitives per shell             I   N=          42
           6           3           1           1           6           3
           1           1           6           3           1           1
           6           3           1           1           6           3
           1           1           6           3           1           1
           6           3           1           1           3           1
           3           1           3           1           3           1
           3           1           3           1           3           1
Shell to atom map                          I   N=          42
           1           1           1           1           2           2
           2           2           3           3           3           3
           4           4           4           4           5           5
           5           5           6           6           6           6
           7           7           7           7           8           8
           9           9          10          10          11          11
          12          12          13          13          14          14
Primitive exponents                        R   N=         105
  5.48467166E+03  8.25234946E+02  1.88046958E+02  5.29645000E+01  1.68975704E+01
  5.79963534E+00  1.55396162E+01  3.59993359E+00  1.01376175E+00  2.70005823E-01
  8.00000000E-01  5.48467166E+03  8.25234946E+02  1.88046958E+02  5.29645000E+01
  1.68975704E+01  5.79963534E+00  1.55396162E+01  3.59993359E+00  1.01376175E+00
  2.70005823E-01  8.00000000E-01  3.04752488E+03  4.57369518E+02  1.03948685E+02
  2.92101553E+01  9.28666296E+00  3.16392696E+00  7.86827235E+00  1.88128854E+00
  5.44249258E-01  1.68714478E-01  8.00000000E-01  3.04752488E+03  4.57369518E+02
  1.03948685E+02  2.92101553E+01  9.28666296E+00  3.16392696E+00  7.86827235E+00
  1.88128854E+00  5.44249258E-01  1.68714478E-01  8.00000000E-01  3.04752488E+03
  4.57369518E+02  1.03948685E+02  2.92101553E+01  9.28666296E+00  3.16392696E+00
  7.86827235E+00  1.88128854E+00  5.44249258E-01  1.68714478E-01  8.00000000E-01
  3.04752488E+03  4.57369518E+02  1.03948685E+02  2.92101553E+01  9.28666296E+00
  3.16392696E+00  7.86827235E+00  1.88128854E+00  5.44249258E-01  1.68714478E-01
  8.00000000E-01  3.04752488E+03  4.57369518E+02  1.03948685E+02  2.92101553E+01
  9.28666296E+00  3.16392696E+00  7.86827235E+00  1.88128854E+00  5.44249258E-01
  1.68714478E-01  8.00000000E-01  1.87311370E+01  2.82539436E+00  6.40121692E-01
  1.61277759E-01  1.87311370E+01  2.82539436E+00  6.40121692E-01  1.61277759E-01
  1.87311370E+01  2.82539436E+00  6.40121692E-01  1.61277759E-01  1.87311370E+01
  2.82539436E+00  6.40121692E-01  1.61277759E-01  1.87311370E+01  2.82539436E+00
  6.40121692E-01  1.61277759E-01  1.87311370E+01  2.82539436E+00  6.40121692E-01
  1.61277759E-01  1.87311370E+01  2.82539436E+00  6.40121692E-01  1.61277759E-01
Contraction coefficients                   R   N=         105
  1.83107443E-03  1.39501722E-02  6.84450781E-02  2.32714336E-01  4.70192898E-01
  3.58520853E-01 -1.10777550E-01 -1.48026263E-01  1.13076702E+00  1.00000000E+00
  1.00000000E+00  1.83107443E-03  1.39501722E-02  6.84450781E-02  2.32714336E-01
  4.70192898E-01  3.58520853E-01 -1.10777550E-01 -1.48026263E-01  1.13076702E+00
  1.00000000E+00  1.00000000E+00  1.83473713E-03  1.40373228E-02  6.88426223E-02
  2.32184443E-01  4.67941348E-01  3.62311985E-01 -1.19332420E-01 -1.60854152E-01
  1.14345644E+00  1.00000000E+00  1.00000000E+00  1.83473713E-03  1.40373228E-02
  6.88426223E-02  2.32184443E-01  4.67941348E-01  3.62311985E-01 -1.19332420E-01
 -1.60854152E-01  1.14345644E+00  1.00000000E+00  1.00000000E+00  1.83473713E-03
  1.40373228E-02  6.88426223E-02  2.32184443E-01  4.67941348E-01  3.62311985E-01
 -1.19332420E-01 -1.60854152E-01  1.14345644E+00  1.00000000E+00  1.00000000E+00
  1.83473713E-03  1.40373228E-02  6.88426223E-02  2.32184443E-01  4.67941348E-01
  3.62311985E-01 -1.19332420E-01 -1.60854152E-01  1.14345644E+00  1.00000000E+00
  1.00000000E+00  1.83473713E-03  1.40373228E-02  6.88426223E-02  2.32184443E-01
  4.67941348E-01  3.62311985E-01 -1.19332420E-01 -1.60854152E-01  1.14345644E+00
  1.00000000E+00  1.00000000E+00  3.34946043E-02  2.34726953E-01  8.13757326E-01
  1.00000000E+00  3.34946043E-02  2.34726953E-01  8.13757326E-01  1.00000000E+00
  3.34946043E-02  2.34726953E-01  8.13757326E-01  1.00000000E+00  3.34946043E-02
  2.34726953E-01  8.13757326E-01  1.00000000E+00  3.34946043E-02  2.34726953E-01
  8.13757326E-01  1.00000000E+00  3.34946043E-02  2.34726953E-01  8.13757326E-01
  1.00000000E+00  3.34946043E-02  2.34726953E-01  8.13757326E-01  1.00000000E+00
P(S=P) Contraction coefficients            R   N=         105
  0.00000000E+00  0.00000000E+00  0.00000000E+00  0.00000000E+00  0.00000000E+00
  0.00000000E+00  7.08742682E-02  3.39752839E-01  7.27158577E-01  1.00000000E+00
  0.00000000E+00  0.00000000E+00  0.00000000E+00  0.00000000E+00  0.00000000E+00
  0.00000000E+00  0.00000000E+00  7.08742682E-02  3.39752839E-01  7.27158577E-01
  1.00000000E+00  0.00000000E+00  0.00000000E+00  0.00000000E+00  0.00000000E+00
  0.00000000E+00  0.00000000E+00  0.00000000E+00  6.89990666E-02  3.16423961E-01
  7.44308291E-01  1.00000000E+00  0.00000000E+00  0.00000000E+00  0.00000000E+00
  0.00000000E+00  0.00000000E+00  0.00000000E+00  0.00000000E+00  6.89990666E-02
  3.16423961E-01  7.44308291E-01  1.00000000E+00  0.00000000E+00  0.00000000E+00
  0.00000000E+00  0.00000000E+00  0.00000000E+00  0.00000000E+00  0.00000000E+00
  6.89990666E-02  3.16423961E-01  7.44308291E-01  1.00000000E+00  0.00000000E+00
  0.00000000E+00  0.00000000E+00  0.00000000E+00  0.00000000E+00  0.00000000E+00
  0.00000000E+00  6.89990666E-02  3.16423961E-01  7.44308291E-01  1.00000000E+00
  0.00000000E+00  0.00000000E+00  0.00000000E+00  0.00000000E+00  0.00000000E+00
  0.00000000E+00  0.00000000E+00  6.89990666E-02  3.16423961E-01  7.44308291E-01
  1.00000000E+00  0.00000000E+00  0.00000000E+00  0.00000000E+00  0.00000000E+00
  0.00000000E+00  0.00000000E+00  0.00000000E+00  0.00000000E+00  0.00000000E+00
  0.00000000E+00  0.00000000E+00  0.00000000E+00  0.00000000E+00  0.00000000E+00
  0.00000000E+00  0.00000000E+00  0.00000000E+00  0.00000000E+00  0.00000000E+00
  0.00000000E+00  0.00000000E+00  0.00000000E+00  0.00000000E+00  0.00000000E+00
  0.00000000E+00  0.00000000E+00  0.00000000E+00  0.00000000E+00  0.00000000E+00
Coordinates of each shell                  R   N=         126
  3.58939774E+00  2.43872581E+00 -1.16250837E-01  3.58939774E+00  2.43872581E+00
 -1.16250837E-01  3.58939774E+00  2.43872581E+00 -1.16250837E-01  3.58939774E+00
  2.43872581E+00 -1.16250837E-01  5.10107030E+00 -1.53247249E+00  5.35315604E-01
  5.10107030E+00 -1.53247249E+00  5.35315604E-01  5.10107030E+00 -1.53247249E+00
  5.35315604E-01  5.10107030E+00 -1.53247249E+00  5.35315604E-01 -3.96874421E+00
 -6.83325320E-01 -9.28470964E-01 -3.96874421E+00 -6.83325320E-01 -9.28470964E-01
 -3.96874421E+00 -6.83325320E-01 -9.28470964E-01 -3.96874421E+00 -6.83325320E-01
 -9.28470964E-01 -5.75109049E+00  4.00492059E-01  1.07897175E+00 -5.75109049E+00
  4.00492059E-01  1.07897175E+00 -5.75109049E+00  4.00492059E-01  1.07897175E+00
 -5.75109049E+00  4.00492059E-01  1.07897175E+00 -1.33797268E+00  3.34637981E-01
 -6.70268439E-01 -1.33797268E+00  3.34637981E-01 -6.70268439E-01 -1.33797268E+00
  3.34637981E-01 -6.70268439E-01 -1.33797268E+00  3.34637981E-01 -6.70268439E-01
  7.34306849E-01 -1.04723764E+00 -1.92118084E-01  7.34306849E-01 -1.04723764E+00
 -1.92118084E-01  7.34306849E-01 -1.04723764E+00 -1.92118084E-01  7.34306849E-01
 -1.04723764E+00 -1.92118084E-01  3.36344272E+00  6.23755018E-02  9.80277881E-02
  3.36344272E+00  6.23755018E-02  9.80277881E-02  3.36344272E+00  6.23755018E-02
  9.80277881E-02  3.36344272E+00  6.23755018E-02  9.80277881E-02 -3.93299788E+00
 -2.75111222E+00 -7.94303758E-01 -3.93299788E+00 -2.75111222E+00 -7.94303758E-01
 -4.71826929E+00 -2.18362259E-01 -2.80765416E+00 -4.71826929E+00 -2.18362259E-01
 -2.80765416E+00 -5.82362271E+00  2.46374306E+00  9.58358723E-01 -5.82362271E+00
  2.46374306E+00  9.58358723E-01 -7.67397420E+00 -3.22348003E-01  8.41185511E-01
 -7.67397420E+00 -3.22348003E-01  8.41185511E-01 -5.09966937E+00 -1.03940371E-01
  2.97480369E+00 -5.09966937E+00 -1.03940371E-01  2.97480369E+00 -1.09725765E+00
  2.37432781E+00 -8.50367610E-01 -1.09725765E+00  2.37432781E+00 -8.50367610E-01
  5.82393603E-01 -3.09399004E+00  8.60715351E-03  5.82393603E-01 -3.09399004E+00
  8.60715351E-03
Constraint Structure                       R   N=          42
  3.58939774E+00  2.43872581E+00 -1.16250837E-01  5.10107030E+00 -1.53247249E+00
  5.35315604E-01 -3.96874421E+00 -6.83325320E-01 -9.28470964E-01 -5.75109049E+00
  4.00492059E-01  1.07897175E+00 -1.33797268E+00  3.34637981E-01 -6.70268439E-01
  7.34306849E-01 -1.04723764E+00 -1.92118084E-01  3.36344272E+00  6.23755018E-02
  9.80277881E-02 -3.93299788E+00 -2.75111222E+00 -7.94303758E-01 -4.71826929E+00
 -2.18362259E-01 -2.80765416E+00 -5.82362271E+00  2.46374306E+00  9.58358723E-01
 -7.67397420E+00 -3.22348003E-01  8.41185511E-01 -5.09966937E+00 -1.03940371E-01
  2.97480369E+00 -1.09725765E+00  2.37432781E+00 -8.50367610E-01  5.82393603E-01
 -3.09399004E+00  8.60715351E-03
Num ILSW                                   I              100
ILSW                                       I   N=         100
           0           1           0           1           2           0
           0           0           0           0           0          -1
           0           0           0           0           0           0
           0           0           0           0           1           0
           1           0           0           0           0           0
           0           0      100000           0          -1           0
           0           0           0           0           0           0
           0           0           0           1           1           0
           0           0           1           0           0           0
           0           0           4          40           0           0
           0           0           0           0           0           0
           0           0           0           0           0           0
           0           0           0           0           0           0
           0           0           0           0           0           0
           0           0           0           0           0           0
           0           0           0           0           0           0
           0           0           0           0
Num RLSW                                   I               40
RLSW                                       R   N=          40
  1.00000000E+00  1.00000000E+00  1.00000000E+00  1.00000000E+00  1.00000000E+00
  0.00000000E+00  0.00000000E+00  1.00000000E+00  0.00000000E+00  0.00000000E+00
  0.00000000E+00  0.00000000E+00  1.00000000E+00  0.00000000E+00  0.00000000E+00
  0.00000000E+00  0.00000000E+00  1.00000000E+00  0.00000000E+00  0.00000000E+00
  0.00000000E+00  0.00000000E+00  1.00000000E+00  0.00000000E+00  0.00000000E+00
  0.00000000E+00  0.00000000E+00  1.00000000E+00  0.00000000E+00  0.00000000E+00
  0.00000000E+00  0.00000000E+00  0.00000000E+00  0.00000000E+00  0.00000000E+00
  0.00000000E+00  0.00000000E+00  0.00000000E+00  1.00000000E+00  1.00000000E+00
MxBond                                     I                4
NBond                                      I   N=          14
           1           1           4           4           3           3
           3           1           1           1           1           1
           1           1
IBond                                      I   N=          56
           7           0           0           0           7           0
           0           0           4           5           8           9
           3          10          11          12           3           6
          13           0           5           7          14           0
           1           2           6           0           3           0
           0           0           3           0           0           0
           4           0           0           0           4           0
           0           0           4           0           0           0
           5           0           0           0           6           0
           0           0
RBond                                      R   N=          56
  2.00000000E+00  0.00000000E+00  0.00000000E+00  0.00000000E+00  2.00000000E+00
  0.00000000E+00  0.00000000E+00  0.00000000E+00  1.00000000E+00  1.00000000E+00
  1.00000000E+00  1.00000000E+00  1.00000000E+00  1.00000000E+00  1.00000000E+00
  1.00000000E+00  1.00000000E+00  2.00000000E+00  1.00000000E+00  0.00000000E+00
  2.00000000E+00  1.00000000E+00  1.00000000E+00  0.00000000E+00  2.00000000E+00
  2.00000000E+00  1.00000000E+00  0.00000000E+00  1.00000000E+00  0.00000000E+00
  0.00000000E+00  0.00000000E+00  1.00000000E+00  0.00000000E+00  0.00000000E+00
  0.00000000E+00  1.00000000E+00  0.00000000E+00  0.00000000E+00  0.00000000E+00
  1.00000000E+00  0.00000000E+00  0.00000000E+00  0.00000000E+00  1.00000000E+00
  0.00000000E+00  0.00000000E+00  0.00000000E+00  1.00000000E+00  0.00000000E+00
  0.00000000E+00  0.00000000E+00  1.00000000E+00  0.00000000E+00  0.00000000E+00
  0.00000000E+00
Virial Ratio                               R      2.002446443861730E+00
SCF Energy                                 R     -3.432498728862387E+02
MP2 Energy                                 R     -3.442455919616963E+02
Total Energy                               R     -3.442455919616963E+02
Post-SCF wavefunction norm                 R      1.625275212910948E+00
RMS Force                                  R      6.346994564463976E-06
RMS Density                                R      2.398441821007721E-09
External E-field                           R   N=          35
  0.00000000E+00  0.00000000E+00  0.00000000E+00  0.00000000E+00  0.00000000E+00
  0.00000000E+00  0.00000000E+00  0.00000000E+00  0.00000000E+00  0.00000000E+00
  0.00000000E+00  0.00000000E+00  0.00000000E+00  0.00000000E+00  0.00000000E+00
  0.00000000E+00  0.00000000E+00  0.00000000E+00  0.00000000E+00  0.00000000E+00
  0.00000000E+00  0.00000000E+00  0.00000000E+00  0.00000000E+00  0.00000000E+00
  0.00000000E+00  0.00000000E+00  0.00000000E+00  0.00000000E+00  0.00000000E+00
  0.00000000E+00  0.00000000E+00  0.00000000E+00  0.00000000E+00  0.00000000E+00
IOpCl                                      I                0
IROHF                                      I                0
Alpha Orbital Energies                     R   N=         119
 -2.04617034E+01 -2.04606335E+01 -1.13076436E+01 -1.12246408E+01 -1.12221248E+01
 -1.12134631E+01 -1.12037389E+01 -1.32602598E+00 -1.22481991E+00 -1.07165447E+00
 -9.83500238E-01 -8.57681956E-01 -7.63614068E-01 -6.87668448E-01 -6.17522475E-01
 -6.04676110E-01 -5.86255484E-01 -5.56571200E-01 -5.27102551E-01 -5.15924726E-01
 -5.12471919E-01 -4.88745491E-01 -4.73278093E-01 -3.72998102E-01 -3.69717621E-01
 -3.59916142E-01 -3.40295355E-01  1.57309356E-01  2.54833404E-01  2.79486849E-01
  3.05379053E-01  3.19701499E-01  3.36446969E-01  3.41846971E-01  3.47388281E-01
  3.53197642E-01  4.05450874E-01  4.61317780E-01  5.14422327E-01  5.26665116E-01
  5.93412667E-01  6.14992864E-01  7.29038309E-01  7.46222801E-01  7.74621027E-01
  8.10079285E-01  8.12396505E-01  8.60979586E-01  8.76188589E-01  9.01731069E-01
  9.16012255E-01  9.55884552E-01  9.72768154E-01  9.91403013E-01  1.04284543E+00
  1.07065279E+00  1.11031636E+00  1.13070427E+00  1.14385991E+00  1.16488875E+00
  1.17650658E+00  1.18856711E+00  1.19841702E+00  1.22425960E+00  1.24974356E+00
  1.25752793E+00  1.31021978E+00  1.32207633E+00  1.33009232E+00  1.40189354E+00
  1.43193291E+00  1.47744678E+00  1.57301807E+00  1.62645190E+00  1.63575684E+00
  1.69535688E+00  1.72604386E+00  1.76656781E+00  1.84555391E+00  1.90439353E+00
  1.94058025E+00  2.04079642E+00  2.07691498E+00  2.10116354E+00  2.16347502E+00
  2.18815954E+00  2.19149918E+00  2.22323713E+00  2.24867038E+00  2.27862706E+00
  2.29998132E+00  2.32401833E+00  2.35474844E+00  2.40963320E+00  2.44607017E+00
  2.49698004E+00  2.54653273E+00  2.62018702E+00  2.62918222E+00  2.66186617E+00
  2.70625373E+00  2.78674674E+00  2.88632062E+00  2.95346550E+00  3.00309215E+00
  3.02354521E+00  3.09605906E+00  3.20533041E+00  3.28466967E+00  3.33022177E+00
  3.49900434E+00  3.56209958E+00  4.31198565E+00  4.54404556E+00  4.61424995E+00
  4.74156582E+00  4.78999768E+00  4.87060794E+00  4.95229523E+00
Alpha MO coefficients                      R   N=       14161
 -1.50387912E-02 -3.69649905E-04 -2.77297319E-05  2.74430322E-05 -7.16361159E-06
  2.40585553E-04 -4.01101606E-05 -1.38249277E-04  8.25130130E-06  2.62839021E-05
  5.10876635E-05 -1.21060529E-05  1.10131299E-04 -4.91970896E-06  9.62540954E-06
  9.94575369E-01  2.09925150E-02 -9.04877248E-04  8.45453485E-04 -2.29197746E-04
  4.18961213E-03  1.23046170E-04 -8.69201831E-05  2.83027624E-05 -3.83017002E-03
 -3.85022415E-03 -4.02855003E-03 -4.98626499E-05  4.23073631E-05 -3.04109074E-05
  3.68319078E-06  1.41819076E-05  1.27455399E-06  1.31500464E-06  1.59314234E-07
 -1.25571707E-04 -3.25392061E-05 -4.04198542E-05 -4.83584799E-06  5.46663986E-06
  4.24483117E-06  6.83314711E-06 -1.20353027E-06  9.39793625E-08 -2.85602801E-07
 -4.35520677E-07 -1.63901397E-06  1.48591538E-06 -4.87073892E-07 -1.39827516E-06
  2.84715480E-05  5.68032265E-06  1.04972995E-06 -7.64693975E-06 -4.77378873E-07
 -1.19406069E-06  1.91725515E-07 -8.75125635E-07 -4.23621616E-07 -1.00329830E-06
  3.64585650E-06  2.03869674E-05  1.66194178E-05 -8.29588042E-06  3.96350774E-06
 -1.95525287E-04 -1.89438353E-04  4.37482624E-05 -3.45218070E-05  2.84393624E-06
  1.32526710E-05  8.73938368E-06 -1.04049416E-05 -6.41450082E-08 -2.42273864E-06
 -3.46638242E-06  1.51303757E-05 -2.53192964E-05 -7.39380598E-07 -3.96628845E-06
  1.16822488E-04 -2.07291232E-04  8.56173539E-05 -4.12503897E-05 -8.45024149E-05
  7.66498799E-06 -2.36020363E-05  1.80612958E-05 -1.31341774E-05 -8.56087336E-07
 -6.12767992E-06  4.93509076E-04  9.96129811E-05 -1.19132090E-04  2.80490918E-05
 -3.36004800E-04 -3.16668774E-04  6.90099886E-07 -4.93969648E-05 -2.89557865E-04
 -3.10798917E-04 -7.21069764E-05  2.99421995E-04 -7.34754385E-05  7.74480862E-05
  2.54745152E-06 -6.51919650E-06  4.31899115E-06  8.96802560E-06 -6.26107055E-07
 -6.21639400E-06 -4.83413562E-07 -4.46811122E-06 -1.72415404E-06  1.48798939E-06
  1.40435973E-05 -1.44414563E-05  1.42201348E-05 -2.93237291E-05  9.94569126E-01
  2.09844648E-02 -1.21228478E-04 -1.25844831E-03  1.12964265E-04  4.28586454E-03
  2.15478205E-05  1.40621036E-04 -1.16179060E-05 -3.90753424E-03 -3.80784437E-03
 -4.04123417E-03  2.15837219E-05  2.26249036E-05 -2.55514003E-05  1.50165152E-02
  2.60857970E-04 -2.92520374E-05 -1.38831571E-05 -3.10823735E-06  3.66646044E-04
 -1.30621275E-04  7.73593676E-05 -2.84121923E-05  1.70052658E-05 -1.73838951E-04
 -1.33741143E-04 -2.78380064E-05  3.06722854E-05  4.19650284E-10  4.72672792E-06
  2.26085590E-05 -4.35072105E-06  1.11880362E-06 -9.44426956E-07 -2.05747112E-04
 -5.02917006E-05 -1.03742255E-04  7.11312827E-06  3.43677608E-06  4.23346873E-06
  6.28534941E-06 -8.45582841E-06  7.23042084E-07 -1.03339530E-06  8.46032674E-07
  2.74243122E-06  4.73643188E-06 -3.05929021E-07 -1.29561286E-06  1.78227037E-05
 -6.77545308E-06  1.49463500E-06 -2.44646918E-05  7.49286524E-07  9.37441086E-07
  4.08170435E-06 -6.35775903E-07 -1.28800966E-06 -1.55465732E-06  5.15703773E-07
  7.49432835E-06  5.85199349E-06  3.84309895E-06  3.11671026E-07 -1.25488224E-04
 -3.25996093E-04  1.68009825E-04 -6.73875047E-05 -1.24435461E-05 -1.45058489E-05
  4.28021507E-06  2.44611095E-05 -6.34358267E-06  6.40814470E-06 -2.10948241E-06
  2.03099314E-06 -2.62021529E-05 -2.56155186E-05 -1.23800302E-06  2.40282026E-04
 -2.57369479E-04  1.14157832E-04 -5.41246772E-05  1.14434203E-05 -4.51518953E-05
 -1.76405282E-05 -6.15729001E-05  1.23183508E-05 -6.68363021E-06 -7.18994782E-06
  5.14266899E-04 -6.17020550E-07  1.50736180E-04 -1.58993534E-05 -3.75649983E-04
 -2.17107496E-04 -2.82169424E-04 -3.59265119E-06 -6.50967938E-05 -5.87521832E-04
 -6.51127701E-05 -4.28541713E-06 -6.54053921E-07  6.33165823E-05  1.14973344E-06
 -2.87470370E-05  1.03925547E-05  2.04514022E-05 -2.68471351E-06  3.91373260E-06
 -5.41368788E-07 -1.33731567E-05  6.37558194E-07  1.41969881E-05  3.04607722E-05
 -1.78333375E-04  1.56912083E-05 -4.17540192E-06 -1.82650320E-04  5.79024990E-04
  5.43687850E-05 -1.96381344E-04  2.89141968E-05 -2.33833958E-03 -5.27430658E-04
  1.68397777E-03 -2.58365433E-04  2.40229550E-04 -2.64615551E-04  4.34953826E-04
  9.68882619E-06 -3.84132430E-05  8.79120034E-05 -1.89640961E-04  5.52094817E-04
 -8.55581185E-05  1.88877371E-04 -3.29325456E-05 -2.07240342E-03  7.04249402E-04
 -1.60087239E-03  2.76668057E-04 -1.44023915E-05 -7.15526467E-05  4.06734843E-04
  2.84115634E-04 -1.09517111E-04  1.05021128E-04 -3.34154898E-05 -1.68055368E-04
  1.08082303E-05 -1.23909425E-06 -2.52300580E-06  1.35329643E-03  5.86300454E-04
  3.43908288E-04  9.13971849E-05  5.64881541E-06 -4.19471435E-05 -5.79156819E-05
  2.29787661E-05  7.86849545E-06  5.30193974E-06 -2.20394327E-06  4.17871014E-06
 -2.10866392E-05 -8.42999301E-07  1.52532169E-05 -1.68752766E-04 -4.51517653E-05
  7.87748892E-06  1.13997038E-05 -6.44461857E-06  2.63889312E-06 -3.74634464E-06
  1.16247625E-05  5.41940432E-06  1.28838419E-05 -3.95991928E-05 -1.60405617E-04
 -1.01199572E-04 -8.52309033E-05 -1.04195116E-05  4.46725450E-04  1.49973434E-03
 -2.73234694E-05  2.31606484E-04  1.57788130E-05  7.87670719E-05 -8.86655600E-05
 -9.93277747E-05  3.48748673E-05 -3.59855053E-05  2.74611686E-03  1.73295819E-04
 -7.73697953E-05 -4.84280614E-05 -5.66914908E-06  3.45935844E-03  2.58617011E-03
  1.11729450E-04  3.89573918E-04 -5.92598285E-04 -2.66121053E-04 -1.99053643E-04
 -1.00385966E-04 -6.12247530E-05 -6.26116404E-06  9.95942762E-01  2.57412209E-02
  2.33646002E-04  8.32152556E-05  2.75333890E-05 -6.22410322E-03  3.94719020E-03
  1.81890999E-03  4.22644065E-04 -1.15702441E-03 -4.51449318E-04 -2.12631576E-03
 -3.40647311E-04  2.18934331E-04 -2.62412111E-04 -5.75694495E-05  1.27863226E-04
 -3.89465924E-05 -3.30669588E-05 -2.24624766E-06  3.09194474E-05 -1.54789612E-06
  5.45846753E-05  1.67885387E-05 -3.15599266E-06 -1.18150471E-04  1.88102765E-05
 -1.71041801E-04 -1.33223385E-04  1.04178150E-07 -1.12849424E-05  3.04939306E-06
  8.67800744E-06 -5.16194876E-06  1.71155032E-08  9.48137656E-05 -8.02923479E-05
  4.54182273E-05 -1.56568706E-05  2.65700002E-05 -1.96704577E-05  4.32087342E-08
  7.12034573E-07 -9.47264129E-06 -2.78156416E-05 -1.21101632E-04  1.46842555E-05
  1.06049649E-06  8.65981467E-07  5.89379827E-04 -1.81445790E-04  5.00895290E-05
 -2.05535716E-05 -4.03279880E-05 -9.06986817E-05 -9.65331859E-05  9.81006448E-07
  9.61280608E-06  2.51924462E-06  1.34927399E-01  4.21541741E-03 -5.26459400E-05
  1.62475022E-05 -1.34598366E-05 -6.75847862E-04  1.68606529E-03 -6.03571149E-04
 -3.62724220E-04 -6.62370234E-04 -3.95413972E-04 -2.75941497E-04 -2.24747427E-04
  9.77991602E-07 -8.81729838E-05  2.80758710E-03 -2.87693861E-04 -1.43977430E-04
 -2.52931422E-05 -8.03165469E-06  2.14589254E-03  1.26432264E-03  5.17806176E-05
 -5.98546197E-04 -6.48931421E-05 -1.61277832E-04 -1.06751801E-04 -3.19994165E-06
 -3.89746555E-05 -9.89292355E-06  9.85770820E-01  2.72576249E-02 -2.35268462E-04
 -1.00259962E-04  5.79876412E-05 -1.27688895E-02 -4.18817943E-04  1.37508915E-03
 -4.13549105E-04 -1.47107315E-03 -1.72696755E-03 -2.24495816E-03 -2.05307524E-04
  1.53995718E-04 -1.12763489E-04  3.73265702E-02  6.64261548E-04  2.12649683E-04
 -1.22557608E-04  2.53855296E-05  4.48079036E-03 -2.38938632E-03  6.56220080E-04
 -3.04643445E-04 -3.30376826E-04 -3.93097266E-04 -2.00523997E-04 -5.94746935E-07