
    -----------------------------------------------------------------------
          Psi4: An Open-Source Ab Initio Electronic Structure Package
                               Psi4 1.4a3.dev225 

                         Git: Rev {master} 7105e37 


    D. G. A. Smith, L. A. Burns, A. C. Simmonett, R. M. Parrish,
    M. C. Schieber, R. Galvelis, P. Kraus, H. Kruse, R. Di Remigio,
    A. Alenaizan, A. M. James, S. Lehtola, J. P. Misiewicz, M. Scheurer,
    R. A. Shaw, J. B. Schriber, Y. Xie, Z. L. Glick, D. A. Sirianni,
    J. S. O'Brien, J. M. Waldrop, A. Kumar, E. G. Hohenstein,
    B. P. Pritchard, B. R. Brooks, H. F. Schaefer III, A. Yu. Sokolov,
    K. Patkowski, A. E. DePrince III, U. Bozkaya, R. A. King,
    F. A. Evangelista, J. M. Turney, T. D. Crawford, C. D. Sherrill,
    J. Chem. Phys. 152(18) 184108 (2020). https://doi.org/10.1063/5.0006002

                            Additional Code Authors
    E. T. Seidl, C. L. Janssen, E. F. Valeev, M. L. Leininger,
    J. F. Gonthier, R. M. Richard, H. R. McAlexander, M. Saitow, X. Wang,
    P. Verma, and M. H. Lechner

             Previous Authors, Complete List of Code Contributors,
                       and Citations for Specific Modules
    https://github.com/psi4/psi4/blob/master/codemeta.json
    https://github.com/psi4/psi4/graphs/contributors
    http://psicode.org/psi4manual/master/introduction.html#citing-psifour

    -----------------------------------------------------------------------


    Psi4 started on: Wednesday, 31 March 2021 04:00PM

    Process ID: 93676
    Host:       c440-051.stampede2.tacc.utexas.edu
    PSIDATADIR: /home1/07844/xy3866/miniconda3/envs/p4env/share/psi4
    Memory:     500.0 MiB
    Threads:    8
    
  ==> Input File <==

--------------------------------------------------------------------------
#psi4
#
memory 32 gb

molecule  {
0 1
  O       -0.1791250    -0.4779340     0.0014420
  O        1.2676250     1.2989270     0.0090110
  N        2.0163350    -0.8804990    -0.0657410
  C       -1.2686920     0.4722670    -0.0022460
  C       -2.5451940    -0.3377090     0.0025190
  C        1.0558770     0.0965110    -0.0009640
  H       -1.1847720     1.1155630     0.8776850
  H       -1.1852960     1.1054120    -0.8894660
  H       -3.4102260     0.3314020    -0.0008760
  H       -2.5967230    -0.9775020    -0.8809700
  H       -2.5969010    -0.9678970     0.8929970
  H        1.7497370    -1.8166910     0.2040380
  H        2.9036708    -0.5959667     0.1652688
units angstrom
no_reorient  #important for SAPT in psi4, default
symmetry c1  #important for SAPT in psi4, default
}

set PROPERTIES_ORIGIN ["COM"]
properties('MP2/aug-cc-pvtz', properties = ['dipole'])
--------------------------------------------------------------------------

  Memory set to  29.802 GiB by Python driver.
    SCF Algorithm Type (re)set to DF.

*** tstart() called on c440-051.stampede2.tacc.utexas.edu
*** at Wed Mar 31 16:00:52 2021

   => Loading Basis Set <=

    Name: AUG-CC-PVTZ
    Role: ORBITAL
    Keyword: BASIS
    atoms 1-2  entry O          line   331 file /home1/07844/xy3866/miniconda3/envs/p4env/share/psi4/basis/aug-cc-pvtz.gbs 
    atoms 3    entry N          line   285 file /home1/07844/xy3866/miniconda3/envs/p4env/share/psi4/basis/aug-cc-pvtz.gbs 
    atoms 4-6  entry C          line   239 file /home1/07844/xy3866/miniconda3/envs/p4env/share/psi4/basis/aug-cc-pvtz.gbs 
    atoms 7-13 entry H          line    40 file /home1/07844/xy3866/miniconda3/envs/p4env/share/psi4/basis/aug-cc-pvtz.gbs 


         ---------------------------------------------------------
                                   SCF
               by Justin Turney, Rob Parrish, Andy Simmonett
                          and Daniel G. A. Smith
                              RHF Reference
                        8 Threads,  30517 MiB Core
         ---------------------------------------------------------

  ==> Geometry <==

    Molecular point group: c1
    Full point group: C1

    Geometry (in Angstrom), charge = 0, multiplicity = 1:

       Center              X                  Y                   Z               Mass       
    ------------   -----------------  -----------------  -----------------  -----------------
         O           -0.248517897112    -0.497642981848     0.005822928784    15.994914619570
         O            1.198232102888     1.279218018152     0.013391928784    15.994914619570
         N            1.946942102888    -0.900207981848    -0.061360071216    14.003074004430
         C           -1.338084897112     0.452558018152     0.002134928784    12.000000000000
         C           -2.614586897112    -0.357417981848     0.006899928784    12.000000000000
         C            0.986484102888     0.076802018152     0.003416928784    12.000000000000
         H           -1.254164897112     1.095854018152     0.882065928784     1.007825032230
         H           -1.254688897112     1.085703018152    -0.885085071216     1.007825032230
         H           -3.479618897112     0.311693018152     0.003504928784     1.007825032230
         H           -2.666115897112    -0.997210981848    -0.876589071216     1.007825032230
         H           -2.666293897112    -0.987605981848     0.897377928784     1.007825032230
         H            1.680344102888    -1.836399981848     0.208418928784     1.007825032230
         H            2.834277902888    -0.615675681848     0.169649728784     1.007825032230

  Running in c1 symmetry.

  Rotational constants: A =      0.29561  B =      0.07136  C =      0.05880 [cm^-1]
  Rotational constants: A =   8862.06893  B =   2139.41560  C =   1762.81787 [MHz]
  Nuclear repulsion =  246.382997055164651

  Charge       = 0
  Multiplicity = 1
  Electrons    = 48
  Nalpha       = 24
  Nbeta        = 24

  ==> Algorithm <==

  SCF Algorithm Type is DF.
  DIIS enabled.
  MOM disabled.
  Fractional occupation disabled.
  Guess Type is SAD.
  Energy threshold   = 1.00e-10
  Density threshold  = 1.00e-10
  Integral threshold = 1.00e-12

  ==> Primary Basis <==

  Basis Set: AUG-CC-PVTZ
    Blend: AUG-CC-PVTZ
    Number of shells: 147
    Number of basis functions: 437
    Number of Cartesian functions: 505
    Spherical Harmonics?: true
    Max angular momentum: 3

   => Loading Basis Set <=

    Name: (AUG-CC-PVTZ AUX)
    Role: JKFIT
    Keyword: DF_BASIS_SCF
    atoms 1-2  entry O          line   286 file /home1/07844/xy3866/miniconda3/envs/p4env/share/psi4/basis/aug-cc-pvtz-jkfit.gbs 
    atoms 3    entry N          line   224 file /home1/07844/xy3866/miniconda3/envs/p4env/share/psi4/basis/aug-cc-pvtz-jkfit.gbs 
    atoms 4-6  entry C          line   162 file /home1/07844/xy3866/miniconda3/envs/p4env/share/psi4/basis/aug-cc-pvtz-jkfit.gbs 
    atoms 7-13 entry H          line    70 file /home1/07844/xy3866/miniconda3/envs/p4env/share/psi4/basis/aug-cc-pvtz-jkfit.gbs 

  ==> Integral Setup <==

  DFHelper Memory: AOs need 1.323 GiB; user supplied 22.352 GiB. Using in-core AOs.

  ==> MemDFJK: Density-Fitted J/K Matrices <==

    J tasked:                   Yes
    K tasked:                   Yes
    wK tasked:                   No
    OpenMP threads:               8
    Memory [MiB]:             22888
    Algorithm:                 Core
    Schwarz Cutoff:           1E-12
    Mask sparsity (%):       5.9402
    Fitting Condition:        1E-10

   => Auxiliary Basis Set <=

  Basis Set: (AUG-CC-PVTZ AUX)
    Blend: AUG-CC-PVTZ-JKFIT
    Number of shells: 278
    Number of basis functions: 946
    Number of Cartesian functions: 1171
    Spherical Harmonics?: true
    Max angular momentum: 4

  Minimum eigenvalue in the overlap matrix is 1.3399598862E-05.
  Reciprocal condition number of the overlap matrix is 8.5763218898E-07.
    Using symmetric orthogonalization.

  ==> Pre-Iterations <==

  SCF Guess: Superposition of Atomic Densities via on-the-fly atomic UHF (no occupation information).

   -------------------------
    Irrep   Nso     Nmo    
   -------------------------
     A        437     437 
   -------------------------
    Total     437     437
   -------------------------

  ==> Iterations <==

                           Total Energy        Delta E     RMS |[F,P]|

   @DF-RHF iter SAD:  -321.01296291667364   -3.21013e+02   0.00000e+00 
   @DF-RHF iter   1:  -321.78294138613927   -7.69978e-01   1.61556e-03 DIIS
   @DF-RHF iter   2:  -321.95311763863481   -1.70176e-01   9.26095e-04 DIIS
   @DF-RHF iter   3:  -322.00852827015757   -5.54106e-02   1.63169e-04 DIIS
   @DF-RHF iter   4:  -322.01138966573842   -2.86140e-03   7.16420e-05 DIIS
   @DF-RHF iter   5:  -322.01193510457495   -5.45439e-04   1.50359e-05 DIIS
   @DF-RHF iter   6:  -322.01197384334444   -3.87388e-05   6.59413e-06 DIIS
   @DF-RHF iter   7:  -322.01198136716738   -7.52382e-06   2.23789e-06 DIIS
   @DF-RHF iter   8:  -322.01198256980751   -1.20264e-06   9.38134e-07 DIIS
   @DF-RHF iter   9:  -322.01198276249829   -1.92691e-07   3.17925e-07 DIIS
   @DF-RHF iter  10:  -322.01198279018092   -2.76826e-08   8.78400e-08 DIIS
   @DF-RHF iter  11:  -322.01198279211417   -1.93324e-09   2.26073e-08 DIIS
   @DF-RHF iter  12:  -322.01198279221762   -1.03455e-10   6.62110e-09 DIIS
   @DF-RHF iter  13:  -322.01198279222456   -6.93490e-12   1.73097e-09 DIIS
   @DF-RHF iter  14:  -322.01198279222558   -1.02318e-12   6.17515e-10 DIIS
   @DF-RHF iter  15:  -322.01198279222615   -5.68434e-13   2.20333e-10 DIIS
   @DF-RHF iter  16:  -322.01198279222552    6.25278e-13   8.87553e-11 DIIS
  Energy and wave function converged.


  ==> Post-Iterations <==

    Orbital Energies [Eh]
    ---------------------

    Doubly Occupied:                                                      

       1A    -20.601796     2A    -20.530794     3A    -15.584867  
       4A    -11.406044     5A    -11.288284     6A    -11.225004  
       7A     -1.457479     8A     -1.351438     9A     -1.224223  
      10A     -1.035981    11A     -0.877981    12A     -0.802491  
      13A     -0.746292    14A     -0.709584    15A     -0.683594  
      16A     -0.645623    17A     -0.598946    18A     -0.581225  
      19A     -0.546686    20A     -0.522206    21A     -0.514271  
      22A     -0.463231    23A     -0.458029    24A     -0.432310  

    Virtual:                                                              

      25A      0.025315    26A      0.033170    27A      0.042158  
      28A      0.043304    29A      0.054650    30A      0.058632  
      31A      0.067490    32A      0.096860    33A      0.098670  
      34A      0.104616    35A      0.118326    36A      0.118759  
      37A      0.134653    38A      0.137198    39A      0.139700  
      40A      0.144733    41A      0.147864    42A      0.151777  
      43A      0.154956    44A      0.170367    45A      0.188754  
      46A      0.197742    47A      0.204002    48A      0.206856  
      49A      0.209609    50A      0.234590    51A      0.236716  
      52A      0.243158    53A      0.246714    54A      0.273453  
      55A      0.279920    56A      0.281523    57A      0.284364  
      58A      0.292460    59A      0.309596    60A      0.312884  
      61A      0.318020    62A      0.325055    63A      0.327427  
      64A      0.346286    65A      0.348834    66A      0.351049  
      67A      0.357012    68A      0.359703    69A      0.365188  
      70A      0.378276    71A      0.382150    72A      0.395344  
      73A      0.401446    74A      0.403846    75A      0.406284  
      76A      0.413463    77A      0.426100    78A      0.432466  
      79A      0.436984    80A      0.441044    81A      0.452317  
      82A      0.463381    83A      0.465067    84A      0.471132  
      85A      0.474260    86A      0.483663    87A      0.492441  
      88A      0.498746    89A      0.513345    90A      0.522023  
      91A      0.526043    92A      0.530209    93A      0.540383  
      94A      0.550175    95A      0.555200    96A      0.565119  
      97A      0.577876    98A      0.588548    99A      0.594170  
     100A      0.625195   101A      0.627429   102A      0.635692  
     103A      0.645016   104A      0.650876   105A      0.667276  
     106A      0.682519   107A      0.688850   108A      0.708696  
     109A      0.721168   110A      0.740944   111A      0.765157  
     112A      0.776765   113A      0.784168   114A      0.799367  
     115A      0.803178   116A      0.824566   117A      0.827602  
     118A      0.840596   119A      0.848524   120A      0.853494  
     121A      0.857166   122A      0.870044   123A      0.876847  
     124A      0.887583   125A      0.902941   126A      0.909123  
     127A      0.910260   128A      0.916425   129A      0.919781  
     130A      0.928086   131A      0.936389   132A      0.945534  
     133A      0.950346   134A      0.975564   135A      0.983145  
     136A      0.987989   137A      0.996883   138A      1.003473  
     139A      1.007823   140A      1.015987   141A      1.027880  
     142A      1.039099   143A      1.050707   144A      1.056249  
     145A      1.066606   146A      1.077542   147A      1.087904  
     148A      1.098103   149A      1.105664   150A      1.107752  
     151A      1.116754   152A      1.118599   153A      1.144194  
     154A      1.152892   155A      1.163078   156A      1.169853  
     157A      1.175907   158A      1.178925   159A      1.186867  
     160A      1.198951   161A      1.209535   162A      1.229726  
     163A      1.236310   164A      1.258529   165A      1.266039  
     166A      1.275639   167A      1.279800   168A      1.292132  
     169A      1.299423   170A      1.305760   171A      1.320843  
     172A      1.329564   173A      1.347185   174A      1.351238  
     175A      1.370139   176A      1.387101   177A      1.418393  
     178A      1.425484   179A      1.434480   180A      1.443137  
     181A      1.461346   182A      1.481594   183A      1.498278  
     184A      1.501987   185A      1.512601   186A      1.531950  
     187A      1.539003   188A      1.573987   189A      1.576874  
     190A      1.601840   191A      1.612530   192A      1.628824  
     193A      1.637720   194A      1.652822   195A      1.657372  
     196A      1.666780   197A      1.674402   198A      1.686828  
     199A      1.693600   200A      1.705007   201A      1.714216  
     202A      1.723040   203A      1.737889   204A      1.749068  
     205A      1.754968   206A      1.778009   207A      1.789249  
     208A      1.795916   209A      1.819408   210A      1.824517  
     211A      1.843944   212A      1.858091   213A      1.883561  
     214A      1.894539   215A      1.904454   216A      1.946493  
     217A      1.974610   218A      1.976573   219A      2.002614  
     220A      2.019806   221A      2.024953   222A      2.044284  
     223A      2.063668   224A      2.087711   225A      2.098556  
     226A      2.114400   227A      2.143218   228A      2.163708  
     229A      2.174176   230A      2.194710   231A      2.209420  
     232A      2.232963   233A      2.236292   234A      2.252739  
     235A      2.285756   236A      2.294337   237A      2.313098  
     238A      2.337438   239A      2.356241   240A      2.376731  
     241A      2.388993   242A      2.398526   243A      2.427968  
     244A      2.444294   245A      2.463124   246A      2.479970  
     247A      2.491017   248A      2.504485   249A      2.519067  
     250A      2.563853   251A      2.588368   252A      2.597255  
     253A      2.615589   254A      2.644392   255A      2.652170  
     256A      2.664955   257A      2.690314   258A      2.697359  
     259A      2.718147   260A      2.751418   261A      2.802396  
     262A      2.826762   263A      2.838641   264A      2.856900  
     265A      2.917666   266A      2.974803   267A      2.985395  
     268A      3.006065   269A      3.030041   270A      3.039440  
     271A      3.049316   272A      3.081644   273A      3.128707  
     274A      3.219554   275A      3.262722   276A      3.299072  
     277A      3.309487   278A      3.345226   279A      3.385824  
     280A      3.412111   281A      3.416005   282A      3.451466  
     283A      3.463666   284A      3.522391   285A      3.557782  
     286A      3.599438   287A      3.612278   288A      3.622302  
     289A      3.644988   290A      3.677127   291A      3.690871  
     292A      3.696155   293A      3.724282   294A      3.744484  
     295A      3.760060   296A      3.774826   297A      3.795091  
     298A      3.806057   299A      3.825245   300A      3.842770  
     301A      3.851087   302A      3.875354   303A      3.918722  
     304A      3.942054   305A      3.957158   306A      3.965327  
     307A      3.984540   308A      4.013719   309A      4.020135  
     310A      4.031116   311A      4.047926   312A      4.100360  
     313A      4.120420   314A      4.134677   315A      4.158209  
     316A      4.175173   317A      4.186224   318A      4.208358  
     319A      4.232638   320A      4.240516   321A      4.278176  
     322A      4.292742   323A      4.304324   324A      4.317876  
     325A      4.327521   326A      4.364807   327A      4.377803  
     328A      4.387804   329A      4.415308   330A      4.438092  
     331A      4.454921   332A      4.492407   333A      4.501147  
     334A      4.515671   335A      4.535091   336A      4.560173  
     337A      4.592329   338A      4.618439   339A      4.638574  
     340A      4.665913   341A      4.696042   342A      4.701375  
     343A      4.746828   344A      4.798248   345A      4.831798  
     346A      4.836998   347A      4.849813   348A      4.852361  
     349A      4.872853   350A      4.895970   351A      4.934382  
     352A      4.964038   353A      4.973194   354A      4.989311  
     355A      5.005111   356A      5.052927   357A      5.066412  
     358A      5.115296   359A      5.137806   360A      5.140555  
     361A      5.150660   362A      5.169929   363A      5.187502  
     364A      5.206282   365A      5.261346   366A      5.284987  
     367A      5.310514   368A      5.357305   369A      5.387528  
     370A      5.394875   371A      5.421474   372A      5.439167  
     373A      5.461649   374A      5.492020   375A      5.518565  
     376A      5.555957   377A      5.596288   378A      5.630371  
     379A      5.643053   380A      5.688841   381A      5.743490  
     382A      5.765150   383A      5.786250   384A      5.800470  
     385A      5.851816   386A      5.995177   387A      6.007398  
     388A      6.011101   389A      6.055260   390A      6.112567  
     391A      6.137481   392A      6.156927   393A      6.219467  
     394A      6.255888   395A      6.270239   396A      6.323514  
     397A      6.359290   398A      6.396766   399A      6.555141  
     400A      6.695278   401A      6.718852   402A      6.755736  
     403A      6.785466   404A      6.823273   405A      6.825745  
     406A      6.862526   407A      6.902170   408A      6.925041  
     409A      6.958264   410A      7.013699   411A      7.063429  
     412A      7.126353   413A      7.187772   414A      7.263261  
     415A      7.298490   416A      7.342359   417A      7.381235  
     418A      7.390329   419A      7.474356   420A      7.585347  
     421A      7.601177   422A      7.661134   423A      7.680368  
     424A      7.760367   425A      7.792182   426A      7.901258  
     427A      7.934266   428A      8.008983   429A      8.146305  
     430A      8.331907   431A      8.541524   432A     14.750299  
     433A     16.017939   434A     17.459229   435A     17.824161  
     436A     18.566476   437A     19.794910  

    Final Occupation by Irrep:
              A 
    DOCC [    24 ]

  @DF-RHF Final Energy:  -322.01198279222552

   => Energetics <=

    Nuclear Repulsion Energy =            246.3829970551646511
    One-Electron Energy =                -928.2132038387568400
    Two-Electron Energy =                 359.8182239913666649
    Total Energy =                       -322.0119827922255240

Computation Completed

*** tstop() called on c440-051.stampede2.tacc.utexas.edu at Wed Mar 31 16:01:14 2021
Module time:
	user time   =     112.21 seconds =       1.87 minutes
	system time =       4.79 seconds =       0.08 minutes
	total time  =         22 seconds =       0.37 minutes
Total time:
	user time   =     112.21 seconds =       1.87 minutes
	system time =       4.79 seconds =       0.08 minutes
	total time  =         22 seconds =       0.37 minutes
   => Loading Basis Set <=

    Name: (AUG-CC-PVTZ AUX)
    Role: RIFIT
    Keyword: DF_BASIS_MP2
    atoms 1-2  entry O          line   264 file /home1/07844/xy3866/miniconda3/envs/p4env/share/psi4/basis/aug-cc-pvtz-ri.gbs 
    atoms 3    entry N          line   206 file /home1/07844/xy3866/miniconda3/envs/p4env/share/psi4/basis/aug-cc-pvtz-ri.gbs 
    atoms 4-6  entry C          line   148 file /home1/07844/xy3866/miniconda3/envs/p4env/share/psi4/basis/aug-cc-pvtz-ri.gbs 
    atoms 7-13 entry H          line    30 file /home1/07844/xy3866/miniconda3/envs/p4env/share/psi4/basis/aug-cc-pvtz-ri.gbs 


*** tstart() called on c440-051.stampede2.tacc.utexas.edu
*** at Wed Mar 31 16:01:15 2021


  //>>>>>>>>>>>>>>>>>>>>>>>>>>>>>>>>>>>//
  //               DFMP2               //
  //<<<<<<<<<<<<<<<<<<<<<<<<<<<<<<<<<<<//

	 --------------------------------------------------------
	                          DF-MP2                         
	      2nd-Order Density-Fitted Moller-Plesset Theory     
	              RMP2 Wavefunction,   8 Threads             
	                                                         
	        Rob Parrish, Justin Turney, Andy Simmonett,      
	           Ed Hohenstein, and C. David Sherrill          
	 --------------------------------------------------------

   => Auxiliary Basis Set <=

  Basis Set: (AUG-CC-PVTZ AUX)
    Blend: AUG-CC-PVTZ-RI
    Number of shells: 266
    Number of basis functions: 958
    Number of Cartesian functions: 1201
    Spherical Harmonics?: true
    Max angular momentum: 4

	 --------------------------------------------------------
	                 NBF =   437, NAUX =   958
	 --------------------------------------------------------
	   CLASS    FOCC     OCC    AOCC    AVIR     VIR    FVIR
	   PAIRS       0      24      24     413     413       0
	 --------------------------------------------------------

  DFHelper Memory: AOs need 1.352 GiB; user supplied 22.352 GiB. Using in-core AOs.


         ------------------------------------------------------------
                                     CPHF                           
                                  Rob Parrish                       
         ------------------------------------------------------------

  ==> Geometry <==

    Molecular point group: c1
    Full point group: C1

    Geometry (in Angstrom), charge = 0, multiplicity = 1:

       Center              X                  Y                   Z               Mass       
    ------------   -----------------  -----------------  -----------------  -----------------
         O           -0.248517897112    -0.497642981848     0.005822928784    15.994914619570
         O            1.198232102888     1.279218018152     0.013391928784    15.994914619570
         N            1.946942102888    -0.900207981848    -0.061360071216    14.003074004430
         C           -1.338084897112     0.452558018152     0.002134928784    12.000000000000
         C           -2.614586897112    -0.357417981848     0.006899928784    12.000000000000
         C            0.986484102888     0.076802018152     0.003416928784    12.000000000000
         H           -1.254164897112     1.095854018152     0.882065928784     1.007825032230
         H           -1.254688897112     1.085703018152    -0.885085071216     1.007825032230
         H           -3.479618897112     0.311693018152     0.003504928784     1.007825032230
         H           -2.666115897112    -0.997210981848    -0.876589071216     1.007825032230
         H           -2.666293897112    -0.987605981848     0.897377928784     1.007825032230
         H            1.680344102888    -1.836399981848     0.208418928784     1.007825032230
         H            2.834277902888    -0.615675681848     0.169649728784     1.007825032230

  Nuclear repulsion =  246.382997055164651
  Reference energy  = -322.011982792225524

  ==> Basis Set <==

  Basis Set: AUG-CC-PVTZ
    Blend: AUG-CC-PVTZ
    Number of shells: 147
    Number of basis functions: 437
    Number of Cartesian functions: 505
    Spherical Harmonics?: true
    Max angular momentum: 3

  ==> CGRSolver (by Rob Parrish) <==

   Number of roots    =         1
   Preconditioning    =    JACOBI
   Convergence cutoff =     1E-06
   Maximum iterations =       100

  ==> CPHFRHamiltonian (by Rob Parrish) <== 

  ==> MemDFJK: Density-Fitted J/K Matrices <==

    J tasked:                   Yes
    K tasked:                   Yes
    wK tasked:                   No
    OpenMP threads:               8
    Memory [MiB]:             22888
    Algorithm:                 Core
    Schwarz Cutoff:           1E-12
    Mask sparsity (%):       3.7430
    Fitting Condition:        1E-10

   => Auxiliary Basis Set <=

  Basis Set: (AUG-CC-PVTZ AUX)
    Blend: AUG-CC-PVTZ-JKFIT
    Number of shells: 278
    Number of basis functions: 946
    Number of Cartesian functions: 1171
    Spherical Harmonics?: true
    Max angular momentum: 4

  ==> CPHF Iterations <==

  => Iterations <=

             Iter  Converged  Remaining    Residual
  CGR           1          0          1   1.067E-01
  CGR           2          0          1   3.077E-02
  CGR           3          0          1   1.112E-02
  CGR           4          0          1   3.175E-03
  CGR           5          0          1   1.094E-03
  CGR           6          0          1   2.510E-04
  CGR           7          0          1   8.277E-05
  CGR           8          0          1   3.363E-05
  CGR           9          0          1   9.833E-06
  CGR          10          0          1   3.474E-06
  CGR          11          0          1   1.112E-06
  CGR          12          1          0   3.631E-07

    CGRSolver converged.

	-----------------------------------------------------------
	 ==================> DF-MP2 Energies <==================== 
	-----------------------------------------------------------
	 Reference Energy          =    -322.0119827922255240 [Eh]
	 Singles Energy            =      -0.0000000000000000 [Eh]
	 Same-Spin Energy          =      -0.3130588945398213 [Eh]
	 Opposite-Spin Energy      =      -0.9928320812453897 [Eh]
	 Correlation Energy        =      -1.3058909757852111 [Eh]
	 Total Energy              =    -323.3178737680107133 [Eh]
	-----------------------------------------------------------
	 ================> DF-SCS-MP2 Energies <================== 
	-----------------------------------------------------------
	 SCS Same-Spin Scale       =       0.3333333333333333 [-]
	 SCS Opposite-Spin Scale   =       1.2000000000000000 [-]
	 SCS Same-Spin Energy      =      -0.1043529648466071 [Eh]
	 SCS Opposite-Spin Energy  =      -1.1913984974944676 [Eh]
	 SCS Correlation Energy    =      -1.2957514623410746 [Eh]
	 SCS Total Energy          =    -323.3077342545665829 [Eh]
	-----------------------------------------------------------



Properties will be evaluated at  -0.000000,   0.000000,  -0.000000 [a0]

Properties computed using the MP2 density matrix

  Nuclear Dipole Moment: [e a0]
     X:    -6.3818      Y:    -1.8157      Z:     0.3746

  Electronic Dipole Moment: [e a0]
     X:     6.1207      Y:     0.9470      Z:    -0.0968

  Dipole Moment: [e a0]
     X:    -0.2611      Y:    -0.8687      Z:     0.2779     Total:     0.9487

  Dipole Moment: [D]
     X:    -0.6636      Y:    -2.2080      Z:     0.7063     Total:     2.4113


*** tstop() called on c440-051.stampede2.tacc.utexas.edu at Wed Mar 31 16:02:19 2021
Module time:
	user time   =     374.12 seconds =       6.24 minutes
	system time =       7.89 seconds =       0.13 minutes
	total time  =         64 seconds =       1.07 minutes
Total time:
	user time   =     486.96 seconds =       8.12 minutes
	system time =      12.69 seconds =       0.21 minutes
	total time  =         87 seconds =       1.45 minutes

    Psi4 stopped on: Wednesday, 31 March 2021 04:02PM
    Psi4 wall time for execution: 0:01:27.69

*** Psi4 exiting successfully. Buy a developer a beer!
