
    -----------------------------------------------------------------------
          Psi4: An Open-Source Ab Initio Electronic Structure Package
                               Psi4 1.4a3.dev225 

                         Git: Rev {master} 7105e37 


    D. G. A. Smith, L. A. Burns, A. C. Simmonett, R. M. Parrish,
    M. C. Schieber, R. Galvelis, P. Kraus, H. Kruse, R. Di Remigio,
    A. Alenaizan, A. M. James, S. Lehtola, J. P. Misiewicz, M. Scheurer,
    R. A. Shaw, J. B. Schriber, Y. Xie, Z. L. Glick, D. A. Sirianni,
    J. S. O'Brien, J. M. Waldrop, A. Kumar, E. G. Hohenstein,
    B. P. Pritchard, B. R. Brooks, H. F. Schaefer III, A. Yu. Sokolov,
    K. Patkowski, A. E. DePrince III, U. Bozkaya, R. A. King,
    F. A. Evangelista, J. M. Turney, T. D. Crawford, C. D. Sherrill,
    J. Chem. Phys. 152(18) 184108 (2020). https://doi.org/10.1063/5.0006002

                            Additional Code Authors
    E. T. Seidl, C. L. Janssen, E. F. Valeev, M. L. Leininger,
    J. F. Gonthier, R. M. Richard, H. R. McAlexander, M. Saitow, X. Wang,
    P. Verma, and M. H. Lechner

             Previous Authors, Complete List of Code Contributors,
                       and Citations for Specific Modules
    https://github.com/psi4/psi4/blob/master/codemeta.json
    https://github.com/psi4/psi4/graphs/contributors
    http://psicode.org/psi4manual/master/introduction.html#citing-psifour

    -----------------------------------------------------------------------


    Psi4 started on: Wednesday, 31 March 2021 04:23PM

    Process ID: 102616
    Host:       c440-051.stampede2.tacc.utexas.edu
    PSIDATADIR: /home1/07844/xy3866/miniconda3/envs/p4env/share/psi4
    Memory:     500.0 MiB
    Threads:    8
    
  ==> Input File <==

--------------------------------------------------------------------------
#psi4
#
memory 32 gb

molecule  {
0 1
  O       -0.1791250    -0.4779340     0.0014420
  O        1.2676250     1.2989270     0.0090110
  N        2.0163350    -0.8804990    -0.0657410
  C       -1.2686920     0.4722670    -0.0022460
  C       -2.5451940    -0.3377090     0.0025190
  C        1.0558770     0.0965110    -0.0009640
  H       -1.1847720     1.1155630     0.8776850
  H       -1.1852960     1.1054120    -0.8894660
  H       -3.4102260     0.3314020    -0.0008760
  H       -2.5967230    -0.9775020    -0.8809700
  H       -2.5992682    -0.9967482     0.9337647
  H        1.7497370    -1.8166910     0.2040380
  H        2.9498840    -0.5811480     0.1773000
units angstrom
no_reorient  #important for SAPT in psi4, default
symmetry c1  #important for SAPT in psi4, default
}

set PROPERTIES_ORIGIN ["COM"]
properties('MP2/aug-cc-pvtz', properties = ['dipole'])
--------------------------------------------------------------------------

  Memory set to  29.802 GiB by Python driver.
    SCF Algorithm Type (re)set to DF.

*** tstart() called on c440-051.stampede2.tacc.utexas.edu
*** at Wed Mar 31 16:23:47 2021

   => Loading Basis Set <=

    Name: AUG-CC-PVTZ
    Role: ORBITAL
    Keyword: BASIS
    atoms 1-2  entry O          line   331 file /home1/07844/xy3866/miniconda3/envs/p4env/share/psi4/basis/aug-cc-pvtz.gbs 
    atoms 3    entry N          line   285 file /home1/07844/xy3866/miniconda3/envs/p4env/share/psi4/basis/aug-cc-pvtz.gbs 
    atoms 4-6  entry C          line   239 file /home1/07844/xy3866/miniconda3/envs/p4env/share/psi4/basis/aug-cc-pvtz.gbs 
    atoms 7-13 entry H          line    40 file /home1/07844/xy3866/miniconda3/envs/p4env/share/psi4/basis/aug-cc-pvtz.gbs 


         ---------------------------------------------------------
                                   SCF
               by Justin Turney, Rob Parrish, Andy Simmonett
                          and Daniel G. A. Smith
                              RHF Reference
                        8 Threads,  30517 MiB Core
         ---------------------------------------------------------

  ==> Geometry <==

    Molecular point group: c1
    Full point group: C1

    Geometry (in Angstrom), charge = 0, multiplicity = 1:

       Center              X                  Y                   Z               Mass       
    ------------   -----------------  -----------------  -----------------  -----------------
         O           -0.249014137970    -0.497484164628     0.005225360672    15.994914619570
         O            1.197735862030     1.279376835372     0.012794360672    15.994914619570
         N            1.946445862030    -0.900049164628    -0.061957639328    14.003074004430
         C           -1.338581137970     0.452716835372     0.001537360672    12.000000000000
         C           -2.615083137970    -0.357259164628     0.006302360672    12.000000000000
         C            0.985987862030     0.076960835372     0.002819360672    12.000000000000
         H           -1.254661137970     1.096012835372     0.881468360672     1.007825032230
         H           -1.255185137970     1.085861835372    -0.885682639328     1.007825032230
         H           -3.480115137970     0.311851835372     0.002907360672     1.007825032230
         H           -2.666612137970    -0.997052164628    -0.877186639328     1.007825032230
         H           -2.669157337970    -1.016298364628     0.937548060672     1.007825032230
         H            1.679847862030    -1.836241164628     0.207821360672     1.007825032230
         H            2.879994862030    -0.600698164628     0.181083360672     1.007825032230

  Running in c1 symmetry.

  Rotational constants: A =      0.29501  B =      0.07125  C =      0.05874 [cm^-1]
  Rotational constants: A =   8844.13513  B =   2136.12949  C =   1760.86346 [MHz]
  Nuclear repulsion =  245.908332030084608

  Charge       = 0
  Multiplicity = 1
  Electrons    = 48
  Nalpha       = 24
  Nbeta        = 24

  ==> Algorithm <==

  SCF Algorithm Type is DF.
  DIIS enabled.
  MOM disabled.
  Fractional occupation disabled.
  Guess Type is SAD.
  Energy threshold   = 1.00e-10
  Density threshold  = 1.00e-10
  Integral threshold = 1.00e-12

  ==> Primary Basis <==

  Basis Set: AUG-CC-PVTZ
    Blend: AUG-CC-PVTZ
    Number of shells: 147
    Number of basis functions: 437
    Number of Cartesian functions: 505
    Spherical Harmonics?: true
    Max angular momentum: 3

   => Loading Basis Set <=

    Name: (AUG-CC-PVTZ AUX)
    Role: JKFIT
    Keyword: DF_BASIS_SCF
    atoms 1-2  entry O          line   286 file /home1/07844/xy3866/miniconda3/envs/p4env/share/psi4/basis/aug-cc-pvtz-jkfit.gbs 
    atoms 3    entry N          line   224 file /home1/07844/xy3866/miniconda3/envs/p4env/share/psi4/basis/aug-cc-pvtz-jkfit.gbs 
    atoms 4-6  entry C          line   162 file /home1/07844/xy3866/miniconda3/envs/p4env/share/psi4/basis/aug-cc-pvtz-jkfit.gbs 
    atoms 7-13 entry H          line    70 file /home1/07844/xy3866/miniconda3/envs/p4env/share/psi4/basis/aug-cc-pvtz-jkfit.gbs 

  ==> Integral Setup <==

  DFHelper Memory: AOs need 1.322 GiB; user supplied 22.352 GiB. Using in-core AOs.

  ==> MemDFJK: Density-Fitted J/K Matrices <==

    J tasked:                   Yes
    K tasked:                   Yes
    wK tasked:                   No
    OpenMP threads:               8
    Memory [MiB]:             22888
    Algorithm:                 Core
    Schwarz Cutoff:           1E-12
    Mask sparsity (%):       6.0041
    Fitting Condition:        1E-10

   => Auxiliary Basis Set <=

  Basis Set: (AUG-CC-PVTZ AUX)
    Blend: AUG-CC-PVTZ-JKFIT
    Number of shells: 278
    Number of basis functions: 946
    Number of Cartesian functions: 1171
    Spherical Harmonics?: true
    Max angular momentum: 4

  Minimum eigenvalue in the overlap matrix is 1.3728365017E-05.
  Reciprocal condition number of the overlap matrix is 8.8110497689E-07.
    Using symmetric orthogonalization.

  ==> Pre-Iterations <==

  SCF Guess: Superposition of Atomic Densities via on-the-fly atomic UHF (no occupation information).

   -------------------------
    Irrep   Nso     Nmo    
   -------------------------
     A        437     437 
   -------------------------
    Total     437     437
   -------------------------

  ==> Iterations <==

                           Total Energy        Delta E     RMS |[F,P]|

   @DF-RHF iter SAD:  -320.96557711404927   -3.20966e+02   0.00000e+00 
   @DF-RHF iter   1:  -321.78300985779219   -8.17433e-01   1.60186e-03 DIIS
   @DF-RHF iter   2:  -321.95189649735596   -1.68887e-01   9.24285e-04 DIIS
   @DF-RHF iter   3:  -322.00721221149576   -5.53157e-02   1.61441e-04 DIIS
   @DF-RHF iter   4:  -322.01007224792863   -2.86004e-03   7.16537e-05 DIIS
   @DF-RHF iter   5:  -322.01061952732880   -5.47279e-04   1.50994e-05 DIIS
   @DF-RHF iter   6:  -322.01065932564910   -3.97983e-05   6.64050e-06 DIIS
   @DF-RHF iter   7:  -322.01066701093180   -7.68528e-06   2.26430e-06 DIIS
   @DF-RHF iter   8:  -322.01066825616715   -1.24524e-06   9.39908e-07 DIIS
   @DF-RHF iter   9:  -322.01066844951032   -1.93343e-07   3.25649e-07 DIIS
   @DF-RHF iter  10:  -322.01066847785103   -2.83407e-08   9.05488e-08 DIIS
   @DF-RHF iter  11:  -322.01066847987909   -2.02806e-09   2.35816e-08 DIIS
   @DF-RHF iter  12:  -322.01066847998959   -1.10504e-10   7.00732e-09 DIIS
   @DF-RHF iter  13:  -322.01066847999800   -8.41283e-12   1.75748e-09 DIIS
   @DF-RHF iter  14:  -322.01066847999834   -3.41061e-13   6.20597e-10 DIIS
   @DF-RHF iter  15:  -322.01066847999931   -9.66338e-13   2.11599e-10 DIIS
   @DF-RHF iter  16:  -322.01066847999908    2.27374e-13   8.29885e-11 DIIS
  Energy and wave function converged.


  ==> Post-Iterations <==

    Orbital Energies [Eh]
    ---------------------

    Doubly Occupied:                                                      

       1A    -20.601749     2A    -20.530285     3A    -15.589419  
       4A    -11.405743     5A    -11.288763     6A    -11.230922  
       7A     -1.457119     8A     -1.350961     9A     -1.216976  
      10A     -1.033522    11A     -0.872779    12A     -0.799573  
      13A     -0.744753    14A     -0.700772    15A     -0.682991  
      16A     -0.642620    17A     -0.595702    18A     -0.580507  
      19A     -0.546074    20A     -0.518166    21A     -0.512860  
      22A     -0.462775    23A     -0.457634    24A     -0.431120  

    Virtual:                                                              

      25A      0.025339    26A      0.033144    27A      0.042175  
      28A      0.043433    29A      0.054559    30A      0.058676  
      31A      0.067522    32A      0.096882    33A      0.098486  
      34A      0.104520    35A      0.118371    36A      0.118754  
      37A      0.134715    38A      0.137300    39A      0.139590  
      40A      0.144626    41A      0.147807    42A      0.151696  
      43A      0.155299    44A      0.170391    45A      0.187959  
      46A      0.197644    47A      0.203853    48A      0.206511  
      49A      0.208127    50A      0.233891    51A      0.235558  
      52A      0.243026    53A      0.245665    54A      0.273189  
      55A      0.279722    56A      0.281325    57A      0.283388  
      58A      0.292198    59A      0.309156    60A      0.311888  
      61A      0.317023    62A      0.324788    63A      0.327169  
      64A      0.345466    65A      0.349612    66A      0.350770  
      67A      0.356666    68A      0.359461    69A      0.364566  
      70A      0.377498    71A      0.380895    72A      0.394927  
      73A      0.399341    74A      0.403187    75A      0.407077  
      76A      0.411714    77A      0.425481    78A      0.431349  
      79A      0.432934    80A      0.438223    81A      0.448057  
      82A      0.462266    83A      0.464553    84A      0.470887  
      85A      0.474099    86A      0.482827    87A      0.491916  
      88A      0.497662    89A      0.513507    90A      0.522596  
      91A      0.525015    92A      0.529639    93A      0.538787  
      94A      0.549982    95A      0.554127    96A      0.563562  
      97A      0.576421    98A      0.587490    99A      0.593734  
     100A      0.625890   101A      0.627367   102A      0.634631  
     103A      0.644627   104A      0.650965   105A      0.667379  
     106A      0.680552   107A      0.687965   108A      0.708540  
     109A      0.720326   110A      0.740393   111A      0.764380  
     112A      0.775738   113A      0.783423   114A      0.800357  
     115A      0.800488   116A      0.822457   117A      0.827242  
     118A      0.839231   119A      0.847680   120A      0.852695  
     121A      0.857234   122A      0.869109   123A      0.874984  
     124A      0.886043   125A      0.899267   126A      0.907825  
     127A      0.909478   128A      0.913486   129A      0.918645  
     130A      0.926681   131A      0.934303   132A      0.945785  
     133A      0.949318   134A      0.971442   135A      0.981726  
     136A      0.986428   137A      0.997152   138A      1.001513  
     139A      1.006511   140A      1.014765   141A      1.023694  
     142A      1.038779   143A      1.045658   144A      1.052854  
     145A      1.063965   146A      1.075254   147A      1.086521  
     148A      1.098390   149A      1.103223   150A      1.107151  
     151A      1.113105   152A      1.117207   153A      1.141014  
     154A      1.150585   155A      1.162052   156A      1.167800  
     157A      1.172782   158A      1.176241   159A      1.184629  
     160A      1.195801   161A      1.208229   162A      1.226201  
     163A      1.234126   164A      1.257817   165A      1.261552  
     166A      1.274518   167A      1.276766   168A      1.288535  
     169A      1.300194   170A      1.304023   171A      1.319797  
     172A      1.326176   173A      1.343129   174A      1.351259  
     175A      1.367358   176A      1.387768   177A      1.413555  
     178A      1.423149   179A      1.432175   180A      1.440591  
     181A      1.459137   182A      1.481018   183A      1.492124  
     184A      1.503279   185A      1.511479   186A      1.528617  
     187A      1.537341   188A      1.572233   189A      1.574023  
     190A      1.594421   191A      1.611534   192A      1.623688  
     193A      1.635679   194A      1.649906   195A      1.656252  
     196A      1.663894   197A      1.667512   198A      1.684368  
     199A      1.691718   200A      1.706376   201A      1.711306  
     202A      1.717947   203A      1.736199   204A      1.745624  
     205A      1.750870   206A      1.776865   207A      1.783623  
     208A      1.788035   209A      1.814452   210A      1.822614  
     211A      1.839084   212A      1.855635   213A      1.881920  
     214A      1.891072   215A      1.901634   216A      1.936000  
     217A      1.965248   218A      1.971943   219A      1.999980  
     220A      2.017521   221A      2.024353   222A      2.036938  
     223A      2.063917   224A      2.084674   225A      2.089127  
     226A      2.110373   227A      2.137238   228A      2.151364  
     229A      2.168381   230A      2.188935   231A      2.202615  
     232A      2.219104   233A      2.237353   234A      2.250201  
     235A      2.281289   236A      2.284854   237A      2.305938  
     238A      2.338505   239A      2.349565   240A      2.371915  
     241A      2.382038   242A      2.390887   243A      2.424913  
     244A      2.436904   245A      2.465850   246A      2.476601  
     247A      2.488040   248A      2.493095   249A      2.515310  
     250A      2.562854   251A      2.583751   252A      2.595386  
     253A      2.611198   254A      2.644472   255A      2.648178  
     256A      2.664939   257A      2.689192   258A      2.698560  
     259A      2.716285   260A      2.755586   261A      2.806456  
     262A      2.825155   263A      2.836894   264A      2.855457  
     265A      2.915262   266A      2.971360   267A      2.982076  
     268A      3.007681   269A      3.030774   270A      3.038341  
     271A      3.053099   272A      3.082780   273A      3.127253  
     274A      3.222178   275A      3.260836   276A      3.302608  
     277A      3.310432   278A      3.345897   279A      3.387798  
     280A      3.410761   281A      3.416305   282A      3.452715  
     283A      3.463317   284A      3.524463   285A      3.552936  
     286A      3.595167   287A      3.606817   288A      3.618671  
     289A      3.634804   290A      3.673993   291A      3.690612  
     292A      3.696920   293A      3.722703   294A      3.740367  
     295A      3.752905   296A      3.770794   297A      3.792834  
     298A      3.802578   299A      3.813706   300A      3.841105  
     301A      3.851801   302A      3.876305   303A      3.901060  
     304A      3.923764   305A      3.942265   306A      3.962022  
     307A      3.978476   308A      4.005206   309A      4.011326  
     310A      4.024374   311A      4.045479   312A      4.091612  
     313A      4.110425   314A      4.127416   315A      4.152029  
     316A      4.162775   317A      4.181968   318A      4.192471  
     319A      4.225805   320A      4.235297   321A      4.265200  
     322A      4.287924   323A      4.299563   324A      4.310905  
     325A      4.315491   326A      4.355101   327A      4.370022  
     328A      4.376954   329A      4.399627   330A      4.428986  
     331A      4.445645   332A      4.476286   333A      4.490025  
     334A      4.502857   335A      4.529449   336A      4.551867  
     337A      4.567924   338A      4.596005   339A      4.614523  
     340A      4.651725   341A      4.671073   342A      4.693780  
     343A      4.734899   344A      4.785166   345A      4.812655  
     346A      4.818629   347A      4.828529   348A      4.841048  
     349A      4.867641   350A      4.879352   351A      4.898792  
     352A      4.943470   353A      4.966892   354A      4.979304  
     355A      4.983009   356A      5.031080   357A      5.038518  
     358A      5.066017   359A      5.112145   360A      5.121818  
     361A      5.136385   362A      5.148350   363A      5.166993  
     364A      5.195904   365A      5.257538   366A      5.265339  
     367A      5.303050   368A      5.340133   369A      5.359228  
     370A      5.379309   371A      5.403035   372A      5.409891  
     373A      5.442558   374A      5.483466   375A      5.513805  
     376A      5.528737   377A      5.563394   378A      5.613316  
     379A      5.632035   380A      5.678638   381A      5.710687  
     382A      5.729763   383A      5.769217   384A      5.776212  
     385A      5.837611   386A      5.939229   387A      5.960342  
     388A      5.998448   389A      6.014856   390A      6.096990  
     391A      6.101848   392A      6.121837   393A      6.172528  
     394A      6.209764   395A      6.220687   396A      6.254193  
     397A      6.323248   398A      6.388909   399A      6.540601  
     400A      6.680923   401A      6.689649   402A      6.748731  
     403A      6.765847   404A      6.784893   405A      6.814176  
     406A      6.826697   407A      6.827056   408A      6.921600  
     409A      6.937271   410A      7.012819   411A      7.050166  
     412A      7.126332   413A      7.166513   414A      7.250976  
     415A      7.287262   416A      7.336498   417A      7.377648  
     418A      7.389103   419A      7.471121   420A      7.578269  
     421A      7.600080   422A      7.650964   423A      7.678107  
     424A      7.716769   425A      7.789001   426A      7.899814  
     427A      7.928546   428A      8.001619   429A      8.136519  
     430A      8.330310   431A      8.539443   432A     14.739329  
     433A     15.918152   434A     17.097458   435A     17.654531  
     436A     18.390936   437A     19.616156  

    Final Occupation by Irrep:
              A 
    DOCC [    24 ]

  @DF-RHF Final Energy:  -322.01066847999908

   => Energetics <=

    Nuclear Repulsion Energy =            245.9083320300846083
    One-Electron Energy =                -927.3304344084435797
    Two-Electron Energy =                 359.4114338983599168
    Total Energy =                       -322.0106684799990830

Computation Completed

*** tstop() called on c440-051.stampede2.tacc.utexas.edu at Wed Mar 31 16:24:09 2021
Module time:
	user time   =     113.45 seconds =       1.89 minutes
	system time =       4.62 seconds =       0.08 minutes
	total time  =         22 seconds =       0.37 minutes
Total time:
	user time   =     113.45 seconds =       1.89 minutes
	system time =       4.62 seconds =       0.08 minutes
	total time  =         22 seconds =       0.37 minutes
   => Loading Basis Set <=

    Name: (AUG-CC-PVTZ AUX)
    Role: RIFIT
    Keyword: DF_BASIS_MP2
    atoms 1-2  entry O          line   264 file /home1/07844/xy3866/miniconda3/envs/p4env/share/psi4/basis/aug-cc-pvtz-ri.gbs 
    atoms 3    entry N          line   206 file /home1/07844/xy3866/miniconda3/envs/p4env/share/psi4/basis/aug-cc-pvtz-ri.gbs 
    atoms 4-6  entry C          line   148 file /home1/07844/xy3866/miniconda3/envs/p4env/share/psi4/basis/aug-cc-pvtz-ri.gbs 
    atoms 7-13 entry H          line    30 file /home1/07844/xy3866/miniconda3/envs/p4env/share/psi4/basis/aug-cc-pvtz-ri.gbs 


*** tstart() called on c440-051.stampede2.tacc.utexas.edu
*** at Wed Mar 31 16:24:10 2021


  //>>>>>>>>>>>>>>>>>>>>>>>>>>>>>>>>>>>//
  //               DFMP2               //
  //<<<<<<<<<<<<<<<<<<<<<<<<<<<<<<<<<<<//

	 --------------------------------------------------------
	                          DF-MP2                         
	      2nd-Order Density-Fitted Moller-Plesset Theory     
	              RMP2 Wavefunction,   8 Threads             
	                                                         
	        Rob Parrish, Justin Turney, Andy Simmonett,      
	           Ed Hohenstein, and C. David Sherrill          
	 --------------------------------------------------------

   => Auxiliary Basis Set <=

  Basis Set: (AUG-CC-PVTZ AUX)
    Blend: AUG-CC-PVTZ-RI
    Number of shells: 266
    Number of basis functions: 958
    Number of Cartesian functions: 1201
    Spherical Harmonics?: true
    Max angular momentum: 4

	 --------------------------------------------------------
	                 NBF =   437, NAUX =   958
	 --------------------------------------------------------
	   CLASS    FOCC     OCC    AOCC    AVIR     VIR    FVIR
	   PAIRS       0      24      24     413     413       0
	 --------------------------------------------------------

  DFHelper Memory: AOs need 1.351 GiB; user supplied 22.352 GiB. Using in-core AOs.


         ------------------------------------------------------------
                                     CPHF                           
                                  Rob Parrish                       
         ------------------------------------------------------------

  ==> Geometry <==

    Molecular point group: c1
    Full point group: C1

    Geometry (in Angstrom), charge = 0, multiplicity = 1:

       Center              X                  Y                   Z               Mass       
    ------------   -----------------  -----------------  -----------------  -----------------
         O           -0.249014137970    -0.497484164628     0.005225360672    15.994914619570
         O            1.197735862030     1.279376835372     0.012794360672    15.994914619570
         N            1.946445862030    -0.900049164628    -0.061957639328    14.003074004430
         C           -1.338581137970     0.452716835372     0.001537360672    12.000000000000
         C           -2.615083137970    -0.357259164628     0.006302360672    12.000000000000
         C            0.985987862030     0.076960835372     0.002819360672    12.000000000000
         H           -1.254661137970     1.096012835372     0.881468360672     1.007825032230
         H           -1.255185137970     1.085861835372    -0.885682639328     1.007825032230
         H           -3.480115137970     0.311851835372     0.002907360672     1.007825032230
         H           -2.666612137970    -0.997052164628    -0.877186639328     1.007825032230
         H           -2.669157337970    -1.016298364628     0.937548060672     1.007825032230
         H            1.679847862030    -1.836241164628     0.207821360672     1.007825032230
         H            2.879994862030    -0.600698164628     0.181083360672     1.007825032230

  Nuclear repulsion =  245.908332030084608
  Reference energy  = -322.010668479999083

  ==> Basis Set <==

  Basis Set: AUG-CC-PVTZ
    Blend: AUG-CC-PVTZ
    Number of shells: 147
    Number of basis functions: 437
    Number of Cartesian functions: 505
    Spherical Harmonics?: true
    Max angular momentum: 3

  ==> CGRSolver (by Rob Parrish) <==

   Number of roots    =         1
   Preconditioning    =    JACOBI
   Convergence cutoff =     1E-06
   Maximum iterations =       100

  ==> CPHFRHamiltonian (by Rob Parrish) <== 

  ==> MemDFJK: Density-Fitted J/K Matrices <==

    J tasked:                   Yes
    K tasked:                   Yes
    wK tasked:                   No
    OpenMP threads:               8
    Memory [MiB]:             22888
    Algorithm:                 Core
    Schwarz Cutoff:           1E-12
    Mask sparsity (%):       3.7880
    Fitting Condition:        1E-10

   => Auxiliary Basis Set <=

  Basis Set: (AUG-CC-PVTZ AUX)
    Blend: AUG-CC-PVTZ-JKFIT
    Number of shells: 278
    Number of basis functions: 946
    Number of Cartesian functions: 1171
    Spherical Harmonics?: true
    Max angular momentum: 4

  ==> CPHF Iterations <==

  => Iterations <=

             Iter  Converged  Remaining    Residual
  CGR           1          0          1   1.068E-01
  CGR           2          0          1   3.089E-02
  CGR           3          0          1   1.118E-02
  CGR           4          0          1   3.176E-03
  CGR           5          0          1   1.098E-03
  CGR           6          0          1   2.498E-04
  CGR           7          0          1   8.171E-05
  CGR           8          0          1   3.401E-05
  CGR           9          0          1   1.017E-05
  CGR          10          0          1   3.596E-06
  CGR          11          0          1   1.147E-06
  CGR          12          1          0   3.734E-07

    CGRSolver converged.

	-----------------------------------------------------------
	 ==================> DF-MP2 Energies <==================== 
	-----------------------------------------------------------
	 Reference Energy          =    -322.0106684799990830 [Eh]
	 Singles Energy            =      -0.0000000000000000 [Eh]
	 Same-Spin Energy          =      -0.3132849209580275 [Eh]
	 Opposite-Spin Energy      =      -0.9938205974552354 [Eh]
	 Correlation Energy        =      -1.3071055184132629 [Eh]
	 Total Energy              =    -323.3177739984123491 [Eh]
	-----------------------------------------------------------
	 ================> DF-SCS-MP2 Energies <================== 
	-----------------------------------------------------------
	 SCS Same-Spin Scale       =       0.3333333333333333 [-]
	 SCS Opposite-Spin Scale   =       1.2000000000000000 [-]
	 SCS Same-Spin Energy      =      -0.1044283069860091 [Eh]
	 SCS Opposite-Spin Energy  =      -1.1925847169462824 [Eh]
	 SCS Correlation Energy    =      -1.2970130239322917 [Eh]
	 SCS Total Energy          =    -323.3076815039313487 [Eh]
	-----------------------------------------------------------



Properties will be evaluated at   0.000000,  -0.000000,  -0.000000 [a0]

Properties computed using the MP2 density matrix

  Nuclear Dipole Moment: [e a0]
     X:    -6.3439      Y:    -1.8278      Z:     0.4202

  Electronic Dipole Moment: [e a0]
     X:     6.1068      Y:     0.9699      Z:    -0.1469

  Dipole Moment: [e a0]
     X:    -0.2371      Y:    -0.8580      Z:     0.2733     Total:     0.9312

  Dipole Moment: [D]
     X:    -0.6026      Y:    -2.1808      Z:     0.6948     Total:     2.3668


*** tstop() called on c440-051.stampede2.tacc.utexas.edu at Wed Mar 31 16:25:14 2021
Module time:
	user time   =     374.84 seconds =       6.25 minutes
	system time =       8.02 seconds =       0.13 minutes
	total time  =         64 seconds =       1.07 minutes
Total time:
	user time   =     488.92 seconds =       8.15 minutes
	system time =      12.65 seconds =       0.21 minutes
	total time  =         87 seconds =       1.45 minutes

    Psi4 stopped on: Wednesday, 31 March 2021 04:25PM
    Psi4 wall time for execution: 0:01:27.42

*** Psi4 exiting successfully. Buy a developer a beer!
