
    -----------------------------------------------------------------------
          Psi4: An Open-Source Ab Initio Electronic Structure Package
                               Psi4 1.4a3.dev225 

                         Git: Rev {master} 7105e37 


    D. G. A. Smith, L. A. Burns, A. C. Simmonett, R. M. Parrish,
    M. C. Schieber, R. Galvelis, P. Kraus, H. Kruse, R. Di Remigio,
    A. Alenaizan, A. M. James, S. Lehtola, J. P. Misiewicz, M. Scheurer,
    R. A. Shaw, J. B. Schriber, Y. Xie, Z. L. Glick, D. A. Sirianni,
    J. S. O'Brien, J. M. Waldrop, A. Kumar, E. G. Hohenstein,
    B. P. Pritchard, B. R. Brooks, H. F. Schaefer III, A. Yu. Sokolov,
    K. Patkowski, A. E. DePrince III, U. Bozkaya, R. A. King,
    F. A. Evangelista, J. M. Turney, T. D. Crawford, C. D. Sherrill,
    J. Chem. Phys. 152(18) 184108 (2020). https://doi.org/10.1063/5.0006002

                            Additional Code Authors
    E. T. Seidl, C. L. Janssen, E. F. Valeev, M. L. Leininger,
    J. F. Gonthier, R. M. Richard, H. R. McAlexander, M. Saitow, X. Wang,
    P. Verma, and M. H. Lechner

             Previous Authors, Complete List of Code Contributors,
                       and Citations for Specific Modules
    https://github.com/psi4/psi4/blob/master/codemeta.json
    https://github.com/psi4/psi4/graphs/contributors
    http://psicode.org/psi4manual/master/introduction.html#citing-psifour

    -----------------------------------------------------------------------


    Psi4 started on: Saturday, 06 March 2021 08:45PM

    Process ID: 210876
    Host:       c420-011.stampede2.tacc.utexas.edu
    PSIDATADIR: /home1/07844/xy3866/miniconda3/envs/p4env/share/psi4
    Memory:     500.0 MiB
    Threads:    32
    
  ==> Input File <==

--------------------------------------------------------------------------
#psi4
#
memory 32 gb

molecule  {
0 1
  O       -0.1791250    -0.4779340     0.0014420
  O        1.2676250     1.2989270     0.0090110
  N        2.0163350    -0.8804990    -0.0657410
  C       -1.3603518     0.6012588    -0.0029217
  C       -2.5451940    -0.3377090     0.0025190
  C        1.0558770     0.0965110    -0.0009640
  H       -1.1847720     1.1155630     0.8776850
  H       -1.1852960     1.1054120    -0.8894660
  H       -3.4102260     0.3314020    -0.0008760
  H       -2.5967230    -0.9775020    -0.8809700
  H       -2.5969010    -0.9678970     0.8929970
  H        1.7497370    -1.8166910     0.2040380
  H        2.9498840    -0.5811480     0.1773000
units angstrom
no_reorient  #important for SAPT in psi4, default
symmetry c1  #important for SAPT in psi4, default
}

set PROPERTIES_ORIGIN ["COM"]
properties('MP2/aug-cc-pvtz', properties = ['dipole'])
--------------------------------------------------------------------------

  Memory set to  29.802 GiB by Python driver.
    SCF Algorithm Type (re)set to DF.

*** tstart() called on c420-011.stampede2.tacc.utexas.edu
*** at Sat Mar  6 20:45:54 2021

   => Loading Basis Set <=

    Name: AUG-CC-PVTZ
    Role: ORBITAL
    Keyword: BASIS
    atoms 1-2  entry O          line   331 file /home1/07844/xy3866/miniconda3/envs/p4env/share/psi4/basis/aug-cc-pvtz.gbs 
    atoms 3    entry N          line   285 file /home1/07844/xy3866/miniconda3/envs/p4env/share/psi4/basis/aug-cc-pvtz.gbs 
    atoms 4-6  entry C          line   239 file /home1/07844/xy3866/miniconda3/envs/p4env/share/psi4/basis/aug-cc-pvtz.gbs 
    atoms 7-13 entry H          line    40 file /home1/07844/xy3866/miniconda3/envs/p4env/share/psi4/basis/aug-cc-pvtz.gbs 


         ---------------------------------------------------------
                                   SCF
               by Justin Turney, Rob Parrish, Andy Simmonett
                          and Daniel G. A. Smith
                              RHF Reference
                       32 Threads,  30517 MiB Core
         ---------------------------------------------------------

  ==> Geometry <==

    Molecular point group: c1
    Full point group: C1

    Geometry (in Angstrom), charge = 0, multiplicity = 1:

       Center              X                  Y                   Z               Mass       
    ------------   -----------------  -----------------  -----------------  -----------------
         O           -0.236688921912    -0.515193537727     0.005777818742    15.994914619570
         O            1.210061078088     1.261667462273     0.013346818742    15.994914619570
         N            1.958771078088    -0.917758537727    -0.061405181258    14.003074004430
         C           -1.417915721912     0.563999262273     0.001414118742    12.000000000000
         C           -2.602757921912    -0.374968537727     0.006854818742    12.000000000000
         C            0.998313078088     0.059251462273     0.003371818742    12.000000000000
         H           -1.242335921912     1.078303462273     0.882020818742     1.007825032230
         H           -1.242859921912     1.068152462273    -0.885130181258     1.007825032230
         H           -3.467789921912     0.294142462273     0.003459818742     1.007825032230
         H           -2.654286921912    -1.014761537727    -0.876634181258     1.007825032230
         H           -2.654464921912    -1.005156537727     0.897332818742     1.007825032230
         H            1.692173078088    -1.853950537727     0.208373818742     1.007825032230
         H            2.892320078088    -0.618407537727     0.181635818742     1.007825032230

  Running in c1 symmetry.

  Rotational constants: A =      0.28743  B =      0.07040  C =      0.05782 [cm^-1]
  Rotational constants: A =   8616.97521  B =   2110.46416  C =   1733.47819 [MHz]
  Nuclear repulsion =  243.912648752530686

  Charge       = 0
  Multiplicity = 1
  Electrons    = 48
  Nalpha       = 24
  Nbeta        = 24

  ==> Algorithm <==

  SCF Algorithm Type is DF.
  DIIS enabled.
  MOM disabled.
  Fractional occupation disabled.
  Guess Type is SAD.
  Energy threshold   = 1.00e-10
  Density threshold  = 1.00e-10
  Integral threshold = 1.00e-12

  ==> Primary Basis <==

  Basis Set: AUG-CC-PVTZ
    Blend: AUG-CC-PVTZ
    Number of shells: 147
    Number of basis functions: 437
    Number of Cartesian functions: 505
    Spherical Harmonics?: true
    Max angular momentum: 3

   => Loading Basis Set <=

    Name: (AUG-CC-PVTZ AUX)
    Role: JKFIT
    Keyword: DF_BASIS_SCF
    atoms 1-2  entry O          line   286 file /home1/07844/xy3866/miniconda3/envs/p4env/share/psi4/basis/aug-cc-pvtz-jkfit.gbs 
    atoms 3    entry N          line   224 file /home1/07844/xy3866/miniconda3/envs/p4env/share/psi4/basis/aug-cc-pvtz-jkfit.gbs 
    atoms 4-6  entry C          line   162 file /home1/07844/xy3866/miniconda3/envs/p4env/share/psi4/basis/aug-cc-pvtz-jkfit.gbs 
    atoms 7-13 entry H          line    70 file /home1/07844/xy3866/miniconda3/envs/p4env/share/psi4/basis/aug-cc-pvtz-jkfit.gbs 

  ==> Integral Setup <==

  DFHelper Memory: AOs need 1.355 GiB; user supplied 22.352 GiB. Using in-core AOs.

  ==> MemDFJK: Density-Fitted J/K Matrices <==

    J tasked:                   Yes
    K tasked:                   Yes
    wK tasked:                   No
    OpenMP threads:              32
    Memory [MiB]:             22888
    Algorithm:                 Core
    Schwarz Cutoff:           1E-12
    Mask sparsity (%):       6.0471
    Fitting Condition:        1E-10

   => Auxiliary Basis Set <=

  Basis Set: (AUG-CC-PVTZ AUX)
    Blend: AUG-CC-PVTZ-JKFIT
    Number of shells: 278
    Number of basis functions: 946
    Number of Cartesian functions: 1171
    Spherical Harmonics?: true
    Max angular momentum: 4

  Minimum eigenvalue in the overlap matrix is 1.3778974860E-05.
  Reciprocal condition number of the overlap matrix is 8.8459060559E-07.
    Using symmetric orthogonalization.

  ==> Pre-Iterations <==

  SCF Guess: Superposition of Atomic Densities via on-the-fly atomic UHF (no occupation information).

   -------------------------
    Irrep   Nso     Nmo    
   -------------------------
     A        437     437 
   -------------------------
    Total     437     437
   -------------------------

  ==> Iterations <==

                           Total Energy        Delta E     RMS |[F,P]|

   @DF-RHF iter SAD:  -320.80625557760112   -3.20806e+02   0.00000e+00 
   @DF-RHF iter   1:  -321.76626034967416   -9.60005e-01   1.60115e-03 DIIS
   @DF-RHF iter   2:  -321.93528256246071   -1.69022e-01   9.17519e-04 DIIS
   @DF-RHF iter   3:  -321.98934133159025   -5.40588e-02   1.58160e-04 DIIS
   @DF-RHF iter   4:  -321.99215193739639   -2.81061e-03   6.91030e-05 DIIS
   @DF-RHF iter   5:  -321.99266397098410   -5.12034e-04   1.56363e-05 DIIS
   @DF-RHF iter   6:  -321.99270328936007   -3.93184e-05   7.20461e-06 DIIS
   @DF-RHF iter   7:  -321.99271112302279   -7.83366e-06   2.29470e-06 DIIS
   @DF-RHF iter   8:  -321.99271225324816   -1.13023e-06   9.91915e-07 DIIS
   @DF-RHF iter   9:  -321.99271245390861   -2.00660e-07   3.02775e-07 DIIS
   @DF-RHF iter  10:  -321.99271247981125   -2.59026e-08   8.98477e-08 DIIS
   @DF-RHF iter  11:  -321.99271248201916   -2.20791e-09   2.60393e-08 DIIS
   @DF-RHF iter  12:  -321.99271248217474   -1.55580e-10   7.93315e-09 DIIS
   @DF-RHF iter  13:  -321.99271248218753   -1.27898e-11   2.22749e-09 DIIS
   @DF-RHF iter  14:  -321.99271248218918   -1.64846e-12   8.73648e-10 DIIS
   @DF-RHF iter  15:  -321.99271248218895    2.27374e-13   2.85656e-10 DIIS
   @DF-RHF iter  16:  -321.99271248218855    3.97904e-13   9.13315e-11 DIIS
  Energy and wave function converged.


  ==> Post-Iterations <==

    Orbital Energies [Eh]
    ---------------------

    Doubly Occupied:                                                      

       1A    -20.582325     2A    -20.520547     3A    -15.580701  
       4A    -11.393517     5A    -11.295993     6A    -11.232466  
       7A     -1.429311     8A     -1.326707     9A     -1.205231  
      10A     -1.044007    11A     -0.873579    12A     -0.796845  
      13A     -0.728304    14A     -0.687962    15A     -0.684070  
      16A     -0.628819    17A     -0.603360    18A     -0.578257  
      19A     -0.534922    20A     -0.533335    21A     -0.511693  
      22A     -0.465752    23A     -0.447281    24A     -0.424314  

    Virtual:                                                              

      25A      0.026633    26A      0.032319    27A      0.041852  
      28A      0.042698    29A      0.054808    30A      0.058760  
      31A      0.065145    32A      0.096461    33A      0.098528  
      34A      0.105086    35A      0.116576    36A      0.120356  
      37A      0.134118    38A      0.135397    39A      0.137791  
      40A      0.148782    41A      0.149793    42A      0.151808  
      43A      0.157309    44A      0.173182    45A      0.185552  
      46A      0.194387    47A      0.201469    48A      0.202223  
      49A      0.210229    50A      0.224246    51A      0.239497  
      52A      0.243193    53A      0.250516    54A      0.258438  
      55A      0.280100    56A      0.283430    57A      0.285624  
      58A      0.293077    59A      0.308921    60A      0.313417  
      61A      0.317244    62A      0.318556    63A      0.324865  
      64A      0.342386    65A      0.345687    66A      0.350242  
      67A      0.355183    68A      0.359249    69A      0.366375  
      70A      0.375504    71A      0.383050    72A      0.386122  
      73A      0.397429    74A      0.400120    75A      0.410301  
      76A      0.413048    77A      0.423721    78A      0.430370  
      79A      0.431231    80A      0.435481    81A      0.446473  
      82A      0.454887    83A      0.461717    84A      0.468230  
      85A      0.475474    86A      0.478944    87A      0.496326  
      88A      0.498855    89A      0.512756    90A      0.520173  
      91A      0.523305    92A      0.529355    93A      0.541096  
      94A      0.554029    95A      0.560144    96A      0.568998  
      97A      0.578865    98A      0.593303    99A      0.598074  
     100A      0.611576   101A      0.628690   102A      0.630780  
     103A      0.644161   104A      0.650216   105A      0.655960  
     106A      0.677753   107A      0.696916   108A      0.712419  
     109A      0.724434   110A      0.738942   111A      0.766210  
     112A      0.774562   113A      0.784531   114A      0.801766  
     115A      0.807416   116A      0.815609   117A      0.820427  
     118A      0.842395   119A      0.851175   120A      0.852691  
     121A      0.857008   122A      0.868302   123A      0.882430  
     124A      0.889485   125A      0.901421   126A      0.903457  
     127A      0.907271   128A      0.911857   129A      0.919083  
     130A      0.926478   131A      0.937174   132A      0.942157  
     133A      0.945975   134A      0.966486   135A      0.978966  
     136A      0.989855   137A      0.994065   138A      1.000655  
     139A      1.009059   140A      1.014184   141A      1.024805  
     142A      1.029654   143A      1.041697   144A      1.052664  
     145A      1.067930   146A      1.080262   147A      1.085576  
     148A      1.097077   149A      1.102114   150A      1.108355  
     151A      1.113383   152A      1.118318   153A      1.139271  
     154A      1.147813   155A      1.164338   156A      1.168915  
     157A      1.177389   158A      1.181715   159A      1.192211  
     160A      1.199161   161A      1.211095   162A      1.230606  
     163A      1.240434   164A      1.252983   165A      1.265967  
     166A      1.271824   167A      1.275326   168A      1.286871  
     169A      1.296097   170A      1.309763   171A      1.317309  
     172A      1.327244   173A      1.341352   174A      1.344863  
     175A      1.368430   176A      1.390294   177A      1.420270  
     178A      1.423694   179A      1.437678   180A      1.448458  
     181A      1.464307   182A      1.479322   183A      1.495443  
     184A      1.501914   185A      1.516612   186A      1.531311  
     187A      1.544586   188A      1.563891   189A      1.576365  
     190A      1.590364   191A      1.612461   192A      1.620857  
     193A      1.626943   194A      1.634252   195A      1.653602  
     196A      1.659640   197A      1.667105   198A      1.672029  
     199A      1.691802   200A      1.704768   201A      1.715276  
     202A      1.718632   203A      1.738070   204A      1.741772  
     205A      1.744535   206A      1.763440   207A      1.786878  
     208A      1.791074   209A      1.810870   210A      1.823215  
     211A      1.839352   212A      1.856625   213A      1.881189  
     214A      1.894837   215A      1.907123   216A      1.942161  
     217A      1.964892   218A      1.979934   219A      1.983680  
     220A      2.005006   221A      2.024404   222A      2.047616  
     223A      2.068945   224A      2.087622   225A      2.096284  
     226A      2.109572   227A      2.141097   228A      2.153223  
     229A      2.182775   230A      2.190789   231A      2.210515  
     232A      2.222992   233A      2.238054   234A      2.249456  
     235A      2.280677   236A      2.306032   237A      2.307796  
     238A      2.329960   239A      2.354913   240A      2.357561  
     241A      2.379582   242A      2.396647   243A      2.423859  
     244A      2.443462   245A      2.457411   246A      2.462095  
     247A      2.490058   248A      2.505322   249A      2.507857  
     250A      2.561710   251A      2.570641   252A      2.579020  
     253A      2.616536   254A      2.626121   255A      2.640710  
     256A      2.657586   257A      2.683830   258A      2.698949  
     259A      2.712493   260A      2.765708   261A      2.803416  
     262A      2.827578   263A      2.839008   264A      2.863973  
     265A      2.908505   266A      2.928868   267A      2.956816  
     268A      2.974080   269A      3.008264   270A      3.029519  
     271A      3.042208   272A      3.055661   273A      3.128534  
     274A      3.159857   275A      3.227981   276A      3.251912  
     277A      3.309362   278A      3.314233   279A      3.342892  
     280A      3.392598   281A      3.405400   282A      3.448280  
     283A      3.465057   284A      3.515138   285A      3.554012  
     286A      3.574049   287A      3.597123   288A      3.623664  
     289A      3.638134   290A      3.664039   291A      3.681013  
     292A      3.685968   293A      3.706842   294A      3.729258  
     295A      3.750849   296A      3.768666   297A      3.772624  
     298A      3.780118   299A      3.802987   300A      3.816173  
     301A      3.835204   302A      3.864814   303A      3.899032  
     304A      3.936753   305A      3.947515   306A      3.964830  
     307A      3.971306   308A      3.994645   309A      4.017064  
     310A      4.046827   311A      4.052853   312A      4.089120  
     313A      4.095577   314A      4.127056   315A      4.146644  
     316A      4.175231   317A      4.183943   318A      4.187745  
     319A      4.220489   320A      4.262744   321A      4.275985  
     322A      4.289274   323A      4.297192   324A      4.308918  
     325A      4.322512   326A      4.327534   327A      4.352128  
     328A      4.376128   329A      4.407367   330A      4.423493  
     331A      4.466522   332A      4.491165   333A      4.498543  
     334A      4.517372   335A      4.533716   336A      4.556349  
     337A      4.562192   338A      4.618107   339A      4.648271  
     340A      4.661851   341A      4.681891   342A      4.696466  
     343A      4.760069   344A      4.803062   345A      4.808692  
     346A      4.817949   347A      4.832036   348A      4.847304  
     349A      4.890977   350A      4.899463   351A      4.907113  
     352A      4.938333   353A      4.948559   354A      4.983526  
     355A      4.999940   356A      5.054921   357A      5.057133  
     358A      5.124869   359A      5.130915   360A      5.151113  
     361A      5.159471   362A      5.172881   363A      5.194934  
     364A      5.226846   365A      5.263159   366A      5.274052  
     367A      5.291813   368A      5.320302   369A      5.352633  
     370A      5.393906   371A      5.413767   372A      5.451676  
     373A      5.478643   374A      5.529483   375A      5.530816  
     376A      5.563780   377A      5.580086   378A      5.635927  
     379A      5.652042   380A      5.686209   381A      5.739859  
     382A      5.761182   383A      5.794035   384A      5.842881  
     385A      5.965251   386A      5.980234   387A      5.998952  
     388A      6.014651   389A      6.021380   390A      6.097055  
     391A      6.128406   392A      6.203956   393A      6.219156  
     394A      6.242799   395A      6.278409   396A      6.295807  
     397A      6.367849   398A      6.412916   399A      6.590550  
     400A      6.682580   401A      6.695644   402A      6.756696  
     403A      6.771539   404A      6.781527   405A      6.793421  
     406A      6.815637   407A      6.835585   408A      6.924202  
     409A      6.943035   410A      7.013877   411A      7.041531  
     412A      7.079078   413A      7.169960   414A      7.233425  
     415A      7.279750   416A      7.321685   417A      7.383770  
     418A      7.394646   419A      7.450555   420A      7.518506  
     421A      7.582586   422A      7.612148   423A      7.682451  
     424A      7.714826   425A      7.751655   426A      7.867644  
     427A      7.935422   428A      7.993431   429A      8.134533  
     430A      8.253522   431A      8.504025   432A     14.421957  
     433A     15.841466   434A     17.067217   435A     17.704631  
     436A     18.842718   437A     19.781447  

    Final Occupation by Irrep:
              A 
    DOCC [    24 ]

  @DF-RHF Final Energy:  -321.99271248218855

   => Energetics <=

    Nuclear Repulsion Energy =            243.9126487525306857
    One-Electron Energy =                -923.5921263604217302
    Two-Electron Energy =                 357.6867651257024932
    Total Energy =                       -321.9927124821885513

Computation Completed

*** tstop() called on c420-011.stampede2.tacc.utexas.edu at Sat Mar  6 20:46:10 2021
Module time:
	user time   =     232.35 seconds =       3.87 minutes
	system time =      19.07 seconds =       0.32 minutes
	total time  =         16 seconds =       0.27 minutes
Total time:
	user time   =     232.35 seconds =       3.87 minutes
	system time =      19.07 seconds =       0.32 minutes
	total time  =         16 seconds =       0.27 minutes
   => Loading Basis Set <=

    Name: (AUG-CC-PVTZ AUX)
    Role: RIFIT
    Keyword: DF_BASIS_MP2
    atoms 1-2  entry O          line   264 file /home1/07844/xy3866/miniconda3/envs/p4env/share/psi4/basis/aug-cc-pvtz-ri.gbs 
    atoms 3    entry N          line   206 file /home1/07844/xy3866/miniconda3/envs/p4env/share/psi4/basis/aug-cc-pvtz-ri.gbs 
    atoms 4-6  entry C          line   148 file /home1/07844/xy3866/miniconda3/envs/p4env/share/psi4/basis/aug-cc-pvtz-ri.gbs 
    atoms 7-13 entry H          line    30 file /home1/07844/xy3866/miniconda3/envs/p4env/share/psi4/basis/aug-cc-pvtz-ri.gbs 


*** tstart() called on c420-011.stampede2.tacc.utexas.edu
*** at Sat Mar  6 20:46:10 2021


  //>>>>>>>>>>>>>>>>>>>>>>>>>>>>>>>>>>>//
  //               DFMP2               //
  //<<<<<<<<<<<<<<<<<<<<<<<<<<<<<<<<<<<//

	 --------------------------------------------------------
	                          DF-MP2                         
	      2nd-Order Density-Fitted Moller-Plesset Theory     
	              RMP2 Wavefunction,  32 Threads             
	                                                         
	        Rob Parrish, Justin Turney, Andy Simmonett,      
	           Ed Hohenstein, and C. David Sherrill          
	 --------------------------------------------------------

   => Auxiliary Basis Set <=

  Basis Set: (AUG-CC-PVTZ AUX)
    Blend: AUG-CC-PVTZ-RI
    Number of shells: 266
    Number of basis functions: 958
    Number of Cartesian functions: 1201
    Spherical Harmonics?: true
    Max angular momentum: 4

	 --------------------------------------------------------
	                 NBF =   437, NAUX =   958
	 --------------------------------------------------------
	   CLASS    FOCC     OCC    AOCC    AVIR     VIR    FVIR
	   PAIRS       0      24      24     413     413       0
	 --------------------------------------------------------

  DFHelper Memory: AOs need 1.385 GiB; user supplied 22.352 GiB. Using in-core AOs.


         ------------------------------------------------------------
                                     CPHF                           
                                  Rob Parrish                       
         ------------------------------------------------------------

  ==> Geometry <==

    Molecular point group: c1
    Full point group: C1

    Geometry (in Angstrom), charge = 0, multiplicity = 1:

       Center              X                  Y                   Z               Mass       
    ------------   -----------------  -----------------  -----------------  -----------------
         O           -0.236688921912    -0.515193537727     0.005777818742    15.994914619570
         O            1.210061078088     1.261667462273     0.013346818742    15.994914619570
         N            1.958771078088    -0.917758537727    -0.061405181258    14.003074004430
         C           -1.417915721912     0.563999262273     0.001414118742    12.000000000000
         C           -2.602757921912    -0.374968537727     0.006854818742    12.000000000000
         C            0.998313078088     0.059251462273     0.003371818742    12.000000000000
         H           -1.242335921912     1.078303462273     0.882020818742     1.007825032230
         H           -1.242859921912     1.068152462273    -0.885130181258     1.007825032230
         H           -3.467789921912     0.294142462273     0.003459818742     1.007825032230
         H           -2.654286921912    -1.014761537727    -0.876634181258     1.007825032230
         H           -2.654464921912    -1.005156537727     0.897332818742     1.007825032230
         H            1.692173078088    -1.853950537727     0.208373818742     1.007825032230
         H            2.892320078088    -0.618407537727     0.181635818742     1.007825032230

  Nuclear repulsion =  243.912648752530686
  Reference energy  = -321.992712482188551

  ==> Basis Set <==

  Basis Set: AUG-CC-PVTZ
    Blend: AUG-CC-PVTZ
    Number of shells: 147
    Number of basis functions: 437
    Number of Cartesian functions: 505
    Spherical Harmonics?: true
    Max angular momentum: 3

  ==> CGRSolver (by Rob Parrish) <==

   Number of roots    =         1
   Preconditioning    =    JACOBI
   Convergence cutoff =     1E-06
   Maximum iterations =       100

  ==> CPHFRHamiltonian (by Rob Parrish) <== 

  ==> MemDFJK: Density-Fitted J/K Matrices <==

    J tasked:                   Yes
    K tasked:                   Yes
    wK tasked:                   No
    OpenMP threads:              32
    Memory [MiB]:             22888
    Algorithm:                 Core
    Schwarz Cutoff:           1E-12
    Mask sparsity (%):       3.8373
    Fitting Condition:        1E-10

   => Auxiliary Basis Set <=

  Basis Set: (AUG-CC-PVTZ AUX)
    Blend: AUG-CC-PVTZ-JKFIT
    Number of shells: 278
    Number of basis functions: 946
    Number of Cartesian functions: 1171
    Spherical Harmonics?: true
    Max angular momentum: 4

  ==> CPHF Iterations <==

  => Iterations <=

             Iter  Converged  Remaining    Residual
  CGR           1          0          1   1.107E-01
  CGR           2          0          1   3.040E-02
  CGR           3          0          1   1.118E-02
  CGR           4          0          1   3.053E-03
  CGR           5          0          1   1.244E-03
  CGR           6          0          1   3.562E-04
  CGR           7          0          1   1.171E-04
  CGR           8          0          1   4.481E-05
  CGR           9          0          1   1.274E-05
  CGR          10          0          1   4.369E-06
  CGR          11          0          1   1.304E-06
  CGR          12          1          0   4.379E-07

    CGRSolver converged.

	-----------------------------------------------------------
	 ==================> DF-MP2 Energies <==================== 
	-----------------------------------------------------------
	 Reference Energy          =    -321.9927124821885513 [Eh]
	 Singles Energy            =      -0.0000000000000000 [Eh]
	 Same-Spin Energy          =      -0.3137608581980080 [Eh]
	 Opposite-Spin Energy      =      -0.9957302047411443 [Eh]
	 Correlation Energy        =      -1.3094910629391523 [Eh]
	 Total Energy              =    -323.3022035451277247 [Eh]
	-----------------------------------------------------------
	 ================> DF-SCS-MP2 Energies <================== 
	-----------------------------------------------------------
	 SCS Same-Spin Scale       =       0.3333333333333333 [-]
	 SCS Opposite-Spin Scale   =       1.2000000000000000 [-]
	 SCS Same-Spin Energy      =      -0.1045869527326693 [Eh]
	 SCS Opposite-Spin Energy  =      -1.1948762456893731 [Eh]
	 SCS Correlation Energy    =      -1.2994631984220424 [Eh]
	 SCS Total Energy          =    -323.2921756806105691 [Eh]
	-----------------------------------------------------------



Properties will be evaluated at  -0.000000,  -0.000000,   0.000000 [a0]

Properties computed using the MP2 density matrix

  Nuclear Dipole Moment: [e a0]
     X:    -6.2607      Y:    -1.9171      Z:     0.3856

  Electronic Dipole Moment: [e a0]
     X:     5.7924      Y:     1.1436      Z:    -0.1048

  Dipole Moment: [e a0]
     X:    -0.4683      Y:    -0.7735      Z:     0.2808     Total:     0.9469

  Dipole Moment: [D]
     X:    -1.1904      Y:    -1.9662      Z:     0.7137     Total:     2.4067


*** tstop() called on c420-011.stampede2.tacc.utexas.edu at Sat Mar  6 20:47:27 2021
Module time:
	user time   =     552.12 seconds =       9.20 minutes
	system time =      19.79 seconds =       0.33 minutes
	total time  =         77 seconds =       1.28 minutes
Total time:
	user time   =     785.44 seconds =      13.09 minutes
	system time =      38.91 seconds =       0.65 minutes
	total time  =         93 seconds =       1.55 minutes

    Psi4 stopped on: Saturday, 06 March 2021 08:47PM
    Psi4 wall time for execution: 0:01:33.90

*** Psi4 exiting successfully. Buy a developer a beer!
