206243                                                                  
Freq      RMP2-FC                                                     6-31G(d)            
Number of atoms                            I               14
Info1-9                                    I   N=           9
          26          24        1002           0           0         100
           6           2           1
Charge                                     I                0
Multiplicity                               I                1
Number of electrons                        I               56
Number of alpha electrons                  I               28
Number of beta electrons                   I               28
Number of basis functions                  I              110
Number of independent functions            I              110
Number of point charges in /Mol/           I                0
Number of translation vectors              I                0
Atomic numbers                             I   N=          14
          16           8           6           6           6           6
           1           1           1           1           1           1
           1           1
Nuclear charges                            R   N=          14
  1.60000000E+01  8.00000000E+00  6.00000000E+00  6.00000000E+00  6.00000000E+00
  6.00000000E+00  1.00000000E+00  1.00000000E+00  1.00000000E+00  1.00000000E+00
  1.00000000E+00  1.00000000E+00  1.00000000E+00  1.00000000E+00
Current cartesian coordinates              R   N=          42
  3.59331659E+00  2.78582143E-03 -9.66593609E-01  5.60611896E-01 -9.05892573E-03
  3.04321377E+00 -1.67013848E+00  2.63894902E-03 -9.27653969E-01 -3.19712612E+00
  2.39417661E+00 -3.71791510E-01 -3.19768791E+00 -2.39161809E+00 -3.85244147E-01
  6.61979946E-01 -2.28840835E-03  7.40043119E-01 -1.07875886E+00  8.15953183E-03
 -2.91349587E+00 -4.91253245E+00  2.42621306E+00 -1.52430246E+00 -2.10332434E+00
  4.09816370E+00 -7.87836321E-01 -3.73269255E+00  2.43068510E+00  1.62230967E+00
 -4.91310971E+00 -2.41676404E+00 -1.53790279E+00 -2.10429200E+00 -4.09349542E+00
 -8.10879720E-01 -3.73324312E+00 -2.43922528E+00  1.60862425E+00  5.01782783E+00
 -3.29277534E-03  1.13114989E+00
Force Field                                I                0
Int Atom Types                             I   N=          14
           0           0           0           0           0           0
           0           0           0           0           0           0
           0           0
MM charges                                 R   N=          14
  0.00000000E+00  0.00000000E+00  0.00000000E+00  0.00000000E+00  0.00000000E+00
  0.00000000E+00  0.00000000E+00  0.00000000E+00  0.00000000E+00  0.00000000E+00
  0.00000000E+00  0.00000000E+00  0.00000000E+00  0.00000000E+00
Integer atomic weights                     I   N=          14
          32          16          12          12          12          12
           1           1           1           1           1           1
           1           1
Real atomic weights                        R   N=          14
  3.19720718E+01  1.59949146E+01  1.20000000E+01  1.20000000E+01  1.20000000E+01
  1.20000000E+01  1.00782504E+00  1.00782504E+00  1.00782504E+00  1.00782504E+00
  1.00782504E+00  1.00782504E+00  1.00782504E+00  1.00782504E+00
Atom fragment info                         I   N=          14
           0           0           0           0           0           0
           0           0           0           0           0           0
           0           0
Atom residue num                           I   N=          14
           0           0           0           0           0           0
           0           0           0           0           0           0
           0           0
Nuclear spins                              I   N=          14
           0           0           0           0           0           0
           1           1           1           1           1           1
           1           1
Nuclear ZEff                               R   N=          14
 -1.36000000E+01 -5.60000000E+00 -3.60000000E+00 -3.60000000E+00 -3.60000000E+00
 -3.60000000E+00 -1.00000000E+00 -1.00000000E+00 -1.00000000E+00 -1.00000000E+00
 -1.00000000E+00 -1.00000000E+00 -1.00000000E+00 -1.00000000E+00
Nuclear QMom                               R   N=          14
  0.00000000E+00  0.00000000E+00  0.00000000E+00  0.00000000E+00  0.00000000E+00
  0.00000000E+00  0.00000000E+00  0.00000000E+00  0.00000000E+00  0.00000000E+00
  0.00000000E+00  0.00000000E+00  0.00000000E+00  0.00000000E+00
Nuclear GFac                               R   N=          14
  0.00000000E+00  0.00000000E+00  0.00000000E+00  0.00000000E+00  0.00000000E+00
  0.00000000E+00  2.79284600E+00  2.79284600E+00  2.79284600E+00  2.79284600E+00
  2.79284600E+00  2.79284600E+00  2.79284600E+00  2.79284600E+00
MicOpt                                     I   N=          14
          -1          -1          -1          -1          -1          -1
          -1          -1          -1          -1          -1          -1
          -1          -1
Number of contracted shells                I               41
Number of primitive shells                 I              104
Pure/Cartesian d shells                    I                1
Pure/Cartesian f shells                    I                0
Highest angular momentum                   I                2
Largest degree of contraction              I                6
Shell types                                I   N=          41
           0          -1          -1          -1           2           0
          -1          -1           2           0          -1          -1
           2           0          -1          -1           2           0
          -1          -1           2           0          -1          -1
           2           0           0           0           0           0
           0           0           0           0           0           0
           0           0           0           0           0
Number of primitives per shell             I   N=          41
           6           6           3           1           1           6
           3           1           1           6           3           1
           1           6           3           1           1           6
           3           1           1           6           3           1
           1           3           1           3           1           3
           1           3           1           3           1           3
           1           3           1           3           1
Shell to atom map                          I   N=          41
           1           1           1           1           1           2
           2           2           2           3           3           3
           3           4           4           4           4           5
           5           5           5           6           6           6
           6           7           7           8           8           9
           9          10          10          11          11          12
          12          13          13          14          14
Primitive exponents                        R   N=         104
  2.19171000E+04  3.30149000E+03  7.54146000E+02  2.12711000E+02  6.79896000E+01
  2.30515000E+01  4.23735000E+02  1.00710000E+02  3.21599000E+01  1.18079000E+01
  4.63110000E+00  1.87025000E+00  2.61584000E+00  9.22167000E-01  3.41287000E-01
  1.17167000E-01  6.50000000E-01  5.48467166E+03  8.25234946E+02  1.88046958E+02
  5.29645000E+01  1.68975704E+01  5.79963534E+00  1.55396162E+01  3.59993359E+00
  1.01376175E+00  2.70005823E-01  8.00000000E-01  3.04752488E+03  4.57369518E+02
  1.03948685E+02  2.92101553E+01  9.28666296E+00  3.16392696E+00  7.86827235E+00
  1.88128854E+00  5.44249258E-01  1.68714478E-01  8.00000000E-01  3.04752488E+03
  4.57369518E+02  1.03948685E+02  2.92101553E+01  9.28666296E+00  3.16392696E+00
  7.86827235E+00  1.88128854E+00  5.44249258E-01  1.68714478E-01  8.00000000E-01
  3.04752488E+03  4.57369518E+02  1.03948685E+02  2.92101553E+01  9.28666296E+00
  3.16392696E+00  7.86827235E+00  1.88128854E+00  5.44249258E-01  1.68714478E-01
  8.00000000E-01  3.04752488E+03  4.57369518E+02  1.03948685E+02  2.92101553E+01
  9.28666296E+00  3.16392696E+00  7.86827235E+00  1.88128854E+00  5.44249258E-01
  1.68714478E-01  8.00000000E-01  1.87311370E+01  2.82539436E+00  6.40121692E-01
  1.61277759E-01  1.87311370E+01  2.82539436E+00  6.40121692E-01  1.61277759E-01
  1.87311370E+01  2.82539436E+00  6.40121692E-01  1.61277759E-01  1.87311370E+01
  2.82539436E+00  6.40121692E-01  1.61277759E-01  1.87311370E+01  2.82539436E+00
  6.40121692E-01  1.61277759E-01  1.87311370E+01  2.82539436E+00  6.40121692E-01
  1.61277759E-01  1.87311370E+01  2.82539436E+00  6.40121692E-01  1.61277759E-01
  1.87311370E+01  2.82539436E+00  6.40121692E-01  1.61277759E-01
Contraction coefficients                   R   N=         104
  1.86924085E-03  1.42303065E-02  6.96962317E-02  2.38487108E-01  4.83307220E-01
  3.38074154E-01 -2.37677050E-03 -3.16930067E-02 -1.13317024E-01  5.60900118E-02
  5.92255124E-01  4.55006095E-01 -2.50373114E-01  6.69567631E-02  1.05450627E+00
  1.00000000E+00  1.00000000E+00  1.83107443E-03  1.39501722E-02  6.84450781E-02
  2.32714336E-01  4.70192898E-01  3.58520853E-01 -1.10777550E-01 -1.48026263E-01
  1.13076702E+00  1.00000000E+00  1.00000000E+00  1.83473713E-03  1.40373228E-02
  6.88426223E-02  2.32184443E-01  4.67941348E-01  3.62311985E-01 -1.19332420E-01
 -1.60854152E-01  1.14345644E+00  1.00000000E+00  1.00000000E+00  1.83473713E-03
  1.40373228E-02  6.88426223E-02  2.32184443E-01  4.67941348E-01  3.62311985E-01
 -1.19332420E-01 -1.60854152E-01  1.14345644E+00  1.00000000E+00  1.00000000E+00
  1.83473713E-03  1.40373228E-02  6.88426223E-02  2.32184443E-01  4.67941348E-01
  3.62311985E-01 -1.19332420E-01 -1.60854152E-01  1.14345644E+00  1.00000000E+00
  1.00000000E+00  1.83473713E-03  1.40373228E-02  6.88426223E-02  2.32184443E-01
  4.67941348E-01  3.62311985E-01 -1.19332420E-01 -1.60854152E-01  1.14345644E+00
  1.00000000E+00  1.00000000E+00  3.34946043E-02  2.34726953E-01  8.13757326E-01
  1.00000000E+00  3.34946043E-02  2.34726953E-01  8.13757326E-01  1.00000000E+00
  3.34946043E-02  2.34726953E-01  8.13757326E-01  1.00000000E+00  3.34946043E-02
  2.34726953E-01  8.13757326E-01  1.00000000E+00  3.34946043E-02  2.34726953E-01
  8.13757326E-01  1.00000000E+00  3.34946043E-02  2.34726953E-01  8.13757326E-01
  1.00000000E+00  3.34946043E-02  2.34726953E-01  8.13757326E-01  1.00000000E+00
  3.34946043E-02  2.34726953E-01  8.13757326E-01  1.00000000E+00
P(S=P) Contraction coefficients            R   N=         104
  0.00000000E+00  0.00000000E+00  0.00000000E+00  0.00000000E+00  0.00000000E+00
  0.00000000E+00  4.06100998E-03  3.06812999E-02  1.30451999E-01  3.27204999E-01
  4.52850998E-01  2.56041999E-01 -1.45104895E-02  3.10262776E-01  7.54482456E-01
  1.00000000E+00  0.00000000E+00  0.00000000E+00  0.00000000E+00  0.00000000E+00
  0.00000000E+00  0.00000000E+00  0.00000000E+00  7.08742682E-02  3.39752839E-01
  7.27158577E-01  1.00000000E+00  0.00000000E+00  0.00000000E+00  0.00000000E+00
  0.00000000E+00  0.00000000E+00  0.00000000E+00  0.00000000E+00  6.89990666E-02
  3.16423961E-01  7.44308291E-01  1.00000000E+00  0.00000000E+00  0.00000000E+00
  0.00000000E+00  0.00000000E+00  0.00000000E+00  0.00000000E+00  0.00000000E+00
  6.89990666E-02  3.16423961E-01  7.44308291E-01  1.00000000E+00  0.00000000E+00
  0.00000000E+00  0.00000000E+00  0.00000000E+00  0.00000000E+00  0.00000000E+00
  0.00000000E+00  6.89990666E-02  3.16423961E-01  7.44308291E-01  1.00000000E+00
  0.00000000E+00  0.00000000E+00  0.00000000E+00  0.00000000E+00  0.00000000E+00
  0.00000000E+00  0.00000000E+00  6.89990666E-02  3.16423961E-01  7.44308291E-01
  1.00000000E+00  0.00000000E+00  0.00000000E+00  0.00000000E+00  0.00000000E+00
  0.00000000E+00  0.00000000E+00  0.00000000E+00  0.00000000E+00  0.00000000E+00
  0.00000000E+00  0.00000000E+00  0.00000000E+00  0.00000000E+00  0.00000000E+00
  0.00000000E+00  0.00000000E+00  0.00000000E+00  0.00000000E+00  0.00000000E+00
  0.00000000E+00  0.00000000E+00  0.00000000E+00  0.00000000E+00  0.00000000E+00
  0.00000000E+00  0.00000000E+00  0.00000000E+00  0.00000000E+00  0.00000000E+00
  0.00000000E+00  0.00000000E+00  0.00000000E+00  0.00000000E+00
Coordinates of each shell                  R   N=         123
  3.59331659E+00  2.78582143E-03 -9.66593609E-01  3.59331659E+00  2.78582143E-03
 -9.66593609E-01  3.59331659E+00  2.78582143E-03 -9.66593609E-01  3.59331659E+00
  2.78582143E-03 -9.66593609E-01  3.59331659E+00  2.78582143E-03 -9.66593609E-01
  5.60611896E-01 -9.05892573E-03  3.04321377E+00  5.60611896E-01 -9.05892573E-03
  3.04321377E+00  5.60611896E-01 -9.05892573E-03  3.04321377E+00  5.60611896E-01
 -9.05892573E-03  3.04321377E+00 -1.67013848E+00  2.63894902E-03 -9.27653969E-01
 -1.67013848E+00  2.63894902E-03 -9.27653969E-01 -1.67013848E+00  2.63894902E-03
 -9.27653969E-01 -1.67013848E+00  2.63894902E-03 -9.27653969E-01 -3.19712612E+00
  2.39417661E+00 -3.71791510E-01 -3.19712612E+00  2.39417661E+00 -3.71791510E-01
 -3.19712612E+00  2.39417661E+00 -3.71791510E-01 -3.19712612E+00  2.39417661E+00
 -3.71791510E-01 -3.19768791E+00 -2.39161809E+00 -3.85244147E-01 -3.19768791E+00
 -2.39161809E+00 -3.85244147E-01 -3.19768791E+00 -2.39161809E+00 -3.85244147E-01
 -3.19768791E+00 -2.39161809E+00 -3.85244147E-01  6.61979946E-01 -2.28840835E-03
  7.40043119E-01  6.61979946E-01 -2.28840835E-03  7.40043119E-01  6.61979946E-01
 -2.28840835E-03  7.40043119E-01  6.61979946E-01 -2.28840835E-03  7.40043119E-01
 -1.07875886E+00  8.15953183E-03 -2.91349587E+00 -1.07875886E+00  8.15953183E-03
 -2.91349587E+00 -4.91253245E+00  2.42621306E+00 -1.52430246E+00 -4.91253245E+00
  2.42621306E+00 -1.52430246E+00 -2.10332434E+00  4.09816370E+00 -7.87836321E-01
 -2.10332434E+00  4.09816370E+00 -7.87836321E-01 -3.73269255E+00  2.43068510E+00
  1.62230967E+00 -3.73269255E+00  2.43068510E+00  1.62230967E+00 -4.91310971E+00
 -2.41676404E+00 -1.53790279E+00 -4.91310971E+00 -2.41676404E+00 -1.53790279E+00
 -2.10429200E+00 -4.09349542E+00 -8.10879720E-01 -2.10429200E+00 -4.09349542E+00
 -8.10879720E-01 -3.73324312E+00 -2.43922528E+00  1.60862425E+00 -3.73324312E+00
 -2.43922528E+00  1.60862425E+00  5.01782783E+00 -3.29277534E-03  1.13114989E+00
  5.01782783E+00 -3.29277534E-03  1.13114989E+00
Constraint Structure                       R   N=          42
  3.59331659E+00  2.78582143E-03 -9.66593609E-01  5.60611896E-01 -9.05892573E-03
  3.04321377E+00 -1.67013848E+00  2.63894902E-03 -9.27653969E-01 -3.19712612E+00
  2.39417661E+00 -3.71791510E-01 -3.19768791E+00 -2.39161809E+00 -3.85244147E-01
  6.61979946E-01 -2.28840835E-03  7.40043119E-01 -1.07875886E+00  8.15953183E-03
 -2.91349587E+00 -4.91253245E+00  2.42621306E+00 -1.52430246E+00 -2.10332434E+00
  4.09816370E+00 -7.87836321E-01 -3.73269255E+00  2.43068510E+00  1.62230967E+00
 -4.91310971E+00 -2.41676404E+00 -1.53790279E+00 -2.10429200E+00 -4.09349542E+00
 -8.10879720E-01 -3.73324312E+00 -2.43922528E+00  1.60862425E+00  5.01782783E+00
 -3.29277534E-03  1.13114989E+00
Num ILSW                                   I              100
ILSW                                       I   N=         100
           0           1           0           0           2           0
           0           0           0           0           0          -1
           0           0           0           0           0           0
           0           0           0           0           1           0
           1           0           0           0           0           0
           0           0      100000           0          -1           0
           0           0           0           0           0           0
           0           0           0           1           1           0
           0           0           1           0           0           0
           0           0           4          40           0           0
           0           0           0           0           0           0
           0           0           0           0           0           0
           0           0           0           0           0           0
           0           0           0           0           0           0
           0           0           0           0           0           0
           0           0           0           0           0           0
           0           0           0           0
Num RLSW                                   I               40
RLSW                                       R   N=          40
  1.00000000E+00  1.00000000E+00  1.00000000E+00  1.00000000E+00  1.00000000E+00
  0.00000000E+00  0.00000000E+00  1.00000000E+00  0.00000000E+00  0.00000000E+00
  0.00000000E+00  0.00000000E+00  1.00000000E+00  0.00000000E+00  0.00000000E+00
  0.00000000E+00  0.00000000E+00  1.00000000E+00  0.00000000E+00  0.00000000E+00
  0.00000000E+00  0.00000000E+00  1.00000000E+00  0.00000000E+00  0.00000000E+00
  0.00000000E+00  0.00000000E+00  1.00000000E+00  0.00000000E+00  0.00000000E+00
  0.00000000E+00  0.00000000E+00  0.00000000E+00  0.00000000E+00  0.00000000E+00
  0.00000000E+00  0.00000000E+00  0.00000000E+00  1.00000000E+00  1.00000000E+00
MxBond                                     I                4
NBond                                      I   N=          14
           2           1           4           4           4           3
           1           1           1           1           1           1
           1           1
IBond                                      I   N=          56
           6          14           0           0           6           0
           0           0           4           5           6           7
           3           8           9          10           3          11
          12          13           1           2           3           0
           3           0           0           0           4           0
           0           0           4           0           0           0
           4           0           0           0           5           0
           0           0           5           0           0           0
           5           0           0           0           1           0
           0           0
RBond                                      R   N=          56
  1.00000000E+00  1.00000000E+00  0.00000000E+00  0.00000000E+00  2.00000000E+00
  0.00000000E+00  0.00000000E+00  0.00000000E+00  1.00000000E+00  1.00000000E+00
  1.00000000E+00  1.00000000E+00  1.00000000E+00  1.00000000E+00  1.00000000E+00
  1.00000000E+00  1.00000000E+00  1.00000000E+00  1.00000000E+00  1.00000000E+00
  1.00000000E+00  2.00000000E+00  1.00000000E+00  0.00000000E+00  1.00000000E+00
  0.00000000E+00  0.00000000E+00  0.00000000E+00  1.00000000E+00  0.00000000E+00
  0.00000000E+00  0.00000000E+00  1.00000000E+00  0.00000000E+00  0.00000000E+00
  0.00000000E+00  1.00000000E+00  0.00000000E+00  0.00000000E+00  0.00000000E+00
  1.00000000E+00  0.00000000E+00  0.00000000E+00  0.00000000E+00  1.00000000E+00
  0.00000000E+00  0.00000000E+00  0.00000000E+00  1.00000000E+00  0.00000000E+00
  0.00000000E+00  0.00000000E+00  1.00000000E+00  0.00000000E+00  0.00000000E+00
  0.00000000E+00
Virial Ratio                               R      2.000981874855337E+00
SCF Energy                                 R     -6.285059589226370E+02
MP2 Energy                                 R     -6.293297045589916E+02
Total Energy                               R     -6.293297045589916E+02
Post-SCF wavefunction norm                 R      1.602319890021013E+00
RMS Force                                  R      1.939198773771557E-08
RMS Density                                R      8.279304515865614E-10
External E-field                           R   N=          35
  0.00000000E+00  0.00000000E+00  0.00000000E+00  0.00000000E+00  0.00000000E+00
  0.00000000E+00  0.00000000E+00  0.00000000E+00  0.00000000E+00  0.00000000E+00
  0.00000000E+00  0.00000000E+00  0.00000000E+00  0.00000000E+00  0.00000000E+00
  0.00000000E+00  0.00000000E+00  0.00000000E+00  0.00000000E+00  0.00000000E+00
  0.00000000E+00  0.00000000E+00  0.00000000E+00  0.00000000E+00  0.00000000E+00
  0.00000000E+00  0.00000000E+00  0.00000000E+00  0.00000000E+00  0.00000000E+00
  0.00000000E+00  0.00000000E+00  0.00000000E+00  0.00000000E+00  0.00000000E+00
IOpCl                                      I                0
IROHF                                      I                0
Alpha Orbital Energies                     R   N=         110
 -9.19655073E+01 -2.05703637E+01 -1.13721180E+01 -1.12581905E+01 -1.12315189E+01
 -1.12314997E+01 -8.97919374E+00 -6.66203694E+00 -6.66037856E+00 -6.65847666E+00
 -1.39856466E+00 -1.10407054E+00 -1.02090304E+00 -9.47120582E-01 -8.66976547E-01
 -7.33238114E-01 -6.70109704E-01 -6.44371841E-01 -6.01058843E-01 -5.97855728E-01
 -5.57946351E-01 -5.55670202E-01 -5.28334406E-01 -5.16138080E-01 -4.92467998E-01
 -4.89941480E-01 -4.07069445E-01 -3.91022102E-01  1.42096342E-01  1.53904314E-01
  2.28026392E-01  2.31716138E-01  2.87218527E-01  2.93515005E-01  2.95268187E-01
  3.15573146E-01  3.38902348E-01  3.46859975E-01  3.61462813E-01  4.07456648E-01
  4.11942516E-01  4.25830939E-01  4.98518982E-01  5.32480318E-01  5.56058604E-01
  5.95100773E-01  6.98769582E-01  7.24651378E-01  7.35928881E-01  7.66467744E-01
  8.34516988E-01  8.49940355E-01  8.98334339E-01  9.33645908E-01  9.40359466E-01
  9.54857374E-01  9.71453011E-01  9.87687481E-01  1.02891443E+00  1.03933137E+00
  1.09295175E+00  1.13346075E+00  1.14689695E+00  1.15618152E+00  1.16694915E+00
  1.17660487E+00  1.17879738E+00  1.20731168E+00  1.22554458E+00  1.24301528E+00
  1.25763769E+00  1.33990249E+00  1.34923502E+00  1.40646780E+00  1.42868703E+00
  1.54128670E+00  1.60523136E+00  1.64416832E+00  1.68383805E+00  1.83476765E+00
  1.85969542E+00  1.97124656E+00  2.05615042E+00  2.05821215E+00  2.11643864E+00
  2.17927477E+00  2.18829991E+00  2.24135061E+00  2.27903827E+00  2.31919788E+00
  2.38723040E+00  2.48921208E+00  2.49689128E+00  2.56828978E+00  2.57754524E+00
  2.62384358E+00  2.66611642E+00  2.76527982E+00  2.86820166E+00  2.89087583E+00
  2.99803416E+00  3.06269850E+00  3.19256146E+00  3.34208605E+00  4.29655897E+00
  4.41851451E+00  4.56756346E+00  4.68919680E+00  4.70192564E+00  5.02521409E+00
Alpha MO coefficients                      R   N=       12100
  9.96254017E-01  1.42573668E-02 -2.99425072E-05 -2.23014875E-07  7.64440043E-05
 -1.99797212E-02  1.20397343E-04  2.92624649E-07 -1.00384666E-04  2.61790166E-03
 -9.46860727E-06 -5.76186038E-07  1.97935636E-04  6.87536854E-03  6.89109572E-03
  6.90459789E-03 -5.92876750E-09  2.35942189E-06 -4.63685913E-08 -2.50511894E-05
 -1.09559546E-04  4.41041614E-06 -6.80119246E-08  2.32232045E-05  7.21781955E-04
 -1.29221716E-04  6.57135740E-07 -2.25825133E-04 -8.68621606E-05 -8.59909045E-05
 -4.37313822E-05 -1.31486364E-07  4.46550629E-05 -1.40999484E-07 -1.08444863E-05
 -2.14107255E-05  8.78426751E-06  2.13948366E-08 -8.52877479E-06  2.97582453E-04
 -3.37168462E-04 -5.95980879E-07  2.28389793E-04 -6.55122407E-05 -1.62115137E-05
 -3.00815863E-06 -1.03418370E-08  2.86311364E-06 -4.47770500E-08 -1.95590664E-06
 -6.85965889E-06 -1.94380077E-06  4.11695578E-06 -5.77497209E-07 -1.07531549E-04
  3.58611615E-05  1.53523207E-04  1.38198181E-06  6.50666281E-06 -2.13870058E-05
  2.62596774E-06 -1.78353410E-06  8.35973525E-07 -3.93764869E-07 -1.96160269E-06
 -6.88244728E-06 -1.95760025E-06 -4.12077318E-06 -6.06856879E-07 -1.07464194E-04
  3.58991572E-05 -1.53479789E-04  5.63431938E-07  6.50473425E-06 -2.13959852E-05
  2.61200400E-06  1.77513892E-06  8.40031155E-07  2.37130680E-07  7.34870859E-06
  7.50957494E-05  4.82977401E-05  1.24287362E-07 -4.42259764E-05 -5.03373846E-04
  2.81278418E-04  1.63138960E-06 -5.49162915E-04  3.03608511E-06  1.96823971E-06
 -7.05612858E-06 -1.68774841E-07  5.73120694E-05  3.40296396E-08  2.16931824E-05
 -1.52371253E-05  2.22400024E-06  2.42456506E-05  1.90991698E-05 -1.24982863E-04
 -2.55495884E-06  2.50282020E-05  2.22889501E-06  2.42822611E-05  1.90698907E-05
 -1.24909128E-04 -2.55632722E-06  2.49854182E-05  1.46173028E-04 -3.12091859E-04
  6.09527274E-07  1.68127096E-06 -6.73689864E-06 -1.82836357E-08  6.25533142E-06
  5.43612540E-05  4.35455901E-05  5.12297003E-08 -1.75380166E-05 -1.99977842E-04
  1.25865609E-04  1.22763341E-07 -4.12665463E-05 -3.06650577E-05 -7.98619885E-06
 -2.81181526E-05 -5.70220729E-08  1.94871373E-05  6.79029515E-08  9.94700714E-01
  2.09530165E-02  8.40371856E-05  4.58026719E-06 -1.55697555E-03  4.47096694E-03
  2.39975864E-06 -1.51700317E-07  4.91797090E-05 -3.89252729E-03 -4.14375822E-03
 -3.59069499E-03  3.51148147E-08 -1.00942680E-05 -1.87619724E-06 -2.31381485E-06
  1.06793085E-06 -8.85385761E-06  8.78112319E-08 -3.01484286E-05 -6.95848404E-05
 -1.90541528E-04  1.24972004E-08  3.98531745E-06  2.30633295E-05 -1.22516702E-05
 -5.37691642E-05  5.81317786E-08 -1.96384406E-05  1.40551092E-07  5.42812452E-06
  1.36477793E-05  2.05875183E-05 -1.04170304E-06  3.58808649E-06 -8.37497423E-05
 -8.44999882E-05  4.89099827E-05  4.08131576E-06  1.50787820E-05  7.84307075E-07
  1.34461083E-05  1.04090821E-06  2.13538904E-06 -2.60534565E-06  5.42511315E-06
  1.36402502E-05  2.05875818E-05  1.01358700E-06  3.59228547E-06 -8.36781891E-05
 -8.45038610E-05 -4.89057098E-05  3.82548137E-06  1.50756991E-05  7.50778247E-07
  1.34615571E-05 -1.05722507E-06  2.12768301E-06  2.52307758E-06 -1.37116630E-05
  4.31716274E-04  1.19889645E-05  1.62756125E-07 -5.62878244E-05  8.09588438E-06
 -2.05465309E-05  1.87322536E-06 -6.32952260E-04 -6.78024057E-05 -6.03290067E-05
 -7.91233833E-04 -1.13515492E-07  3.83054712E-05  2.48141530E-06  2.71195937E-06
  2.65248046E-05 -3.94777332E-06 -3.59208290E-05  9.94606072E-06  2.01458618E-05
  2.30654428E-05 -5.32939365E-05 -3.94962342E-06 -3.59214088E-05  9.94429310E-06
  2.01411152E-05  2.30680908E-05 -5.33429564E-05  2.15562556E-05 -1.26521714E-05
 -3.75198563E-06 -3.56873610E-05  4.27099795E-05 -2.22023169E-08  6.77899241E-06
  2.78930061E-04 -4.55359790E-04 -2.28621077E-07  7.99339810E-05  3.47284920E-03
 -1.51757858E-03 -3.52895600E-06  1.19429635E-03 -1.16483562E-04 -1.89848610E-04
 -2.61352907E-04 -2.95334795E-07  9.87339137E-05  2.53771544E-07 -3.35019523E-04
  3.68291286E-04 -2.74104237E-06  6.85089723E-07 -2.35814383E-04 -1.64398895E-03
 -1.29806956E-04 -3.31880572E-06  1.14838230E-03  3.69048058E-05  2.29524893E-04
 -8.87300109E-05 -2.69468811E-07  8.96328884E-05  1.06506202E-06  2.66503266E-03
  4.06331396E-04 -3.49985893E-05 -2.97061303E-07  1.10657200E-04  1.44355602E-03
  2.28365424E-03  2.43369835E-06 -1.00200091E-03 -2.66457517E-04 -1.56735932E-04
 -1.92384170E-04  6.16398031E-07 -2.11388808E-04  1.38040521E-07 -6.53002366E-05
 -2.82790891E-04 -9.26622242E-05 -1.15674865E-05 -5.12817629E-05  1.29356588E-03
  6.07419679E-04 -6.24950826E-04  5.31006655E-04 -3.35873114E-05  2.34933407E-05
 -7.69035028E-05 -5.81672463E-05  4.27190586E-05 -3.45600284E-05 -6.52732321E-05
 -2.82679380E-04 -9.26266765E-05  1.18734709E-05 -5.11912760E-05  1.29302120E-03
  6.07181969E-04  6.21757631E-04  5.34366647E-04 -3.35564002E-05  2.31617976E-05
 -7.65177886E-05  5.79250157E-05  4.30626628E-05  3.51909735E-05  9.95950352E-01
  2.65373441E-02  3.91461047E-04 -8.93668752E-07  3.21392337E-04 -1.00066687E-02
 -7.07639469E-04 -1.02078373E-05  3.42975453E-03 -1.61806984E-03 -2.03869758E-03
 -5.91226848E-04 -2.93264815E-07  9.85832142E-05 -4.93011610E-06 -1.80483569E-04
 -9.13494444E-04  8.01516114E-06  3.63762268E-04 -1.20102661E-04  7.70918489E-05
 -1.16787390E-04 -2.81678018E-04  8.00954456E-06  3.63609105E-04 -1.20067770E-04
  7.72502886E-05 -1.16737730E-04 -2.81617786E-04 -7.74868832E-05 -6.11536210E-04
 -9.17002790E-07 -4.06440363E-05 -2.41448545E-05  9.02542994E-09 -3.50302601E-06
 -5.51583305E-05  1.95305209E-04 -3.63363827E-08  1.36571185E-05  2.53478936E-04
 -1.32101713E-04 -9.29754966E-07  3.24407682E-04 -1.48074910E-04 -1.32683301E-04
  1.00010181E-05  6.93309722E-08 -2.83769609E-05 -4.89673625E-07 -1.02488864E-04
 -5.18833762E-04  5.80233168E-05 -2.40953643E-07  7.74242243E-05  2.40598540E-03
  1.76993721E-04  2.42908463E-06 -8.07406551E-04 -2.49551366E-04 -4.73666463E-04
 -1.22634016E-04  2.75952327E-08 -1.47507818E-05 -1.20411088E-06  9.95864552E-01
  2.89572197E-02  2.22347304E-04 -8.59580652E-07  3.10398004E-04 -2.09661129E-02
 -3.35093106E-04  4.49960079E-06 -1.62835093E-03 -1.39385471E-03 -1.37796048E-03
 -1.29594340E-03  4.83306229E-08 -1.47484581E-05 -2.66441753E-07  1.09430815E-02
  3.12910272E-04  8.60222233E-05 -1.46248938E-04  4.20748330E-06  4.72914072E-03
  1.16520507E-03 -1.72816158E-03 -2.36928091E-04 -2.41560063E-04 -3.55878497E-04
 -1.30844545E-04  1.64353067E-04  5.76967441E-05 -1.24301343E-04  1.09415702E-02
  3.12869802E-04  8.60541786E-05  1.46198303E-04  5.03175411E-06  4.72902866E-03
  1.16559685E-03  1.72918169E-03 -2.27183556E-04 -2.41613248E-04 -3.56999315E-04
 -1.29634731E-04 -1.64703027E-04  5.68022434E-05  1.22819349E-04 -2.91702984E-03
  3.66054353E-05 -1.04713488E-04  5.59572340E-07 -1.85523486E-04  3.69167612E-03
 -2.30113896E-03  7.38541223E-06 -2.52106982E-03 -3.13947531E-04 -1.18632309E-04
 -3.60512587E-04  6.88053219E-07 -2.35241459E-04  8.17965267E-07  3.26641486E-04
  2.67719612E-03 -1.49678754E-04 -9.48803926E-05 -1.65380727E-04 -1.30343840E-04
 -1.83151736E-04 -3.39238610E-05 -1.49671508E-04 -9.48681605E-05 -1.65381077E-04
 -1.30303444E-04 -1.83145798E-04 -3.39285830E-05 -2.67968438E-05  6.51641041E-05
  1.96168476E-07  2.94669155E-06  1.57714960E-06 -3.89748396E-06 -1.02976339E-06
  7.73769266E-06 -1.32778415E-05  3.28822757E-05  7.14028441E-06  2.38501097E-05
 -4.10542540E-06 -1.87311995E-04  1.03696664E-05  5.02405841E-06  5.45780943E-06
  7.53378009E-06  4.71285031E-05 -2.25345888E-06 -8.23327040E-06  5.79350916E-06