6341                                                                    
Freq      RMP2-FC                                                     6-31G(d)            
Number of atoms                            I               10
Info1-9                                    I   N=           9
          22          20        1002           0           0         100
           6           2           1
Charge                                     I                0
Multiplicity                               I                1
Number of electrons                        I               26
Number of alpha electrons                  I               13
Number of beta electrons                   I               13
Number of basis functions                  I               59
Number of independent functions            I               59
Number of point charges in /Mol/           I                0
Number of translation vectors              I                0
Atomic numbers                             I   N=          10
           7           6           6           1           1           1
           1           1           1           1
Nuclear charges                            R   N=          10
  7.00000000E+00  6.00000000E+00  6.00000000E+00  1.00000000E+00  1.00000000E+00
  1.00000000E+00  1.00000000E+00  1.00000000E+00  1.00000000E+00  1.00000000E+00
Current cartesian coordinates              R   N=          30
  2.45136487E+00 -3.46658225E-01 -2.06764193E-05  8.03263425E-02  1.08650758E+00
 -3.19029633E-05 -2.33222743E+00 -4.98815426E-01  4.40265063E-05  1.06248281E-01
  2.32561967E+00  1.65700119E+00  1.06206964E-01  2.32552367E+00 -1.65713735E+00
 -2.40736909E+00 -1.71357740E+00 -1.67313711E+00 -2.40732704E+00 -1.71348061E+00
  1.67329727E+00 -4.02320973E+00  6.93619049E-01  3.07662829E-05  2.48863497E+00
 -1.50866410E+00 -1.53641914E+00  2.48866811E+00 -1.50858560E+00  1.53643637E+00
Force Field                                I                0
Int Atom Types                             I   N=          10
           0           0           0           0           0           0
           0           0           0           0
MM charges                                 R   N=          10
  0.00000000E+00  0.00000000E+00  0.00000000E+00  0.00000000E+00  0.00000000E+00
  0.00000000E+00  0.00000000E+00  0.00000000E+00  0.00000000E+00  0.00000000E+00
Integer atomic weights                     I   N=          10
          14          12          12           1           1           1
           1           1           1           1
Real atomic weights                        R   N=          10
  1.40030740E+01  1.20000000E+01  1.20000000E+01  1.00782504E+00  1.00782504E+00
  1.00782504E+00  1.00782504E+00  1.00782504E+00  1.00782504E+00  1.00782504E+00
Atom fragment info                         I   N=          10
           0           0           0           0           0           0
           0           0           0           0
Atom residue num                           I   N=          10
           0           0           0           0           0           0
           0           0           0           0
Nuclear spins                              I   N=          10
           2           0           0           1           1           1
           1           1           1           1
Nuclear ZEff                               R   N=          10
 -4.55000000E+00 -3.60000000E+00 -3.60000000E+00 -1.00000000E+00 -1.00000000E+00
 -1.00000000E+00 -1.00000000E+00 -1.00000000E+00 -1.00000000E+00 -1.00000000E+00
Nuclear QMom                               R   N=          10
  2.04400000E+00  0.00000000E+00  0.00000000E+00  0.00000000E+00  0.00000000E+00
  0.00000000E+00  0.00000000E+00  0.00000000E+00  0.00000000E+00  0.00000000E+00
Nuclear GFac                               R   N=          10
  4.03761000E-01  0.00000000E+00  0.00000000E+00  2.79284600E+00  2.79284600E+00
  2.79284600E+00  2.79284600E+00  2.79284600E+00  2.79284600E+00  2.79284600E+00
MicOpt                                     I   N=          10
          -1          -1          -1          -1          -1          -1
          -1          -1          -1          -1
Number of contracted shells                I               26
Number of primitive shells                 I               61
Pure/Cartesian d shells                    I                1
Pure/Cartesian f shells                    I                0
Highest angular momentum                   I                2
Largest degree of contraction              I                6
Shell types                                I   N=          26
           0          -1          -1           2           0          -1
          -1           2           0          -1          -1           2
           0           0           0           0           0           0
           0           0           0           0           0           0
           0           0
Number of primitives per shell             I   N=          26
           6           3           1           1           6           3
           1           1           6           3           1           1
           3           1           3           1           3           1
           3           1           3           1           3           1
           3           1
Shell to atom map                          I   N=          26
           1           1           1           1           2           2
           2           2           3           3           3           3
           4           4           5           5           6           6
           7           7           8           8           9           9
          10          10
Primitive exponents                        R   N=          61
  4.17351146E+03  6.27457911E+02  1.42902093E+02  4.02343293E+01  1.28202129E+01
  4.39043701E+00  1.16263619E+01  2.71627981E+00  7.72218397E-01  2.12031498E-01
  8.00000000E-01  3.04752488E+03  4.57369518E+02  1.03948685E+02  2.92101553E+01
  9.28666296E+00  3.16392696E+00  7.86827235E+00  1.88128854E+00  5.44249258E-01
  1.68714478E-01  8.00000000E-01  3.04752488E+03  4.57369518E+02  1.03948685E+02
  2.92101553E+01  9.28666296E+00  3.16392696E+00  7.86827235E+00  1.88128854E+00
  5.44249258E-01  1.68714478E-01  8.00000000E-01  1.87311370E+01  2.82539436E+00
  6.40121692E-01  1.61277759E-01  1.87311370E+01  2.82539436E+00  6.40121692E-01
  1.61277759E-01  1.87311370E+01  2.82539436E+00  6.40121692E-01  1.61277759E-01
  1.87311370E+01  2.82539436E+00  6.40121692E-01  1.61277759E-01  1.87311370E+01
  2.82539436E+00  6.40121692E-01  1.61277759E-01  1.87311370E+01  2.82539436E+00
  6.40121692E-01  1.61277759E-01  1.87311370E+01  2.82539436E+00  6.40121692E-01
  1.61277759E-01
Contraction coefficients                   R   N=          61
  1.83477216E-03  1.39946270E-02  6.85865518E-02  2.32240873E-01  4.69069948E-01
  3.60455199E-01 -1.14961182E-01 -1.69117479E-01  1.14585195E+00  1.00000000E+00
  1.00000000E+00  1.83473713E-03  1.40373228E-02  6.88426223E-02  2.32184443E-01
  4.67941348E-01  3.62311985E-01 -1.19332420E-01 -1.60854152E-01  1.14345644E+00
  1.00000000E+00  1.00000000E+00  1.83473713E-03  1.40373228E-02  6.88426223E-02
  2.32184443E-01  4.67941348E-01  3.62311985E-01 -1.19332420E-01 -1.60854152E-01
  1.14345644E+00  1.00000000E+00  1.00000000E+00  3.34946043E-02  2.34726953E-01
  8.13757326E-01  1.00000000E+00  3.34946043E-02  2.34726953E-01  8.13757326E-01
  1.00000000E+00  3.34946043E-02  2.34726953E-01  8.13757326E-01  1.00000000E+00
  3.34946043E-02  2.34726953E-01  8.13757326E-01  1.00000000E+00  3.34946043E-02
  2.34726953E-01  8.13757326E-01  1.00000000E+00  3.34946043E-02  2.34726953E-01
  8.13757326E-01  1.00000000E+00  3.34946043E-02  2.34726953E-01  8.13757326E-01
  1.00000000E+00
P(S=P) Contraction coefficients            R   N=          61
  0.00000000E+00  0.00000000E+00  0.00000000E+00  0.00000000E+00  0.00000000E+00
  0.00000000E+00  6.75797439E-02  3.23907296E-01  7.40895140E-01  1.00000000E+00
  0.00000000E+00  0.00000000E+00  0.00000000E+00  0.00000000E+00  0.00000000E+00
  0.00000000E+00  0.00000000E+00  6.89990666E-02  3.16423961E-01  7.44308291E-01
  1.00000000E+00  0.00000000E+00  0.00000000E+00  0.00000000E+00  0.00000000E+00
  0.00000000E+00  0.00000000E+00  0.00000000E+00  6.89990666E-02  3.16423961E-01
  7.44308291E-01  1.00000000E+00  0.00000000E+00  0.00000000E+00  0.00000000E+00
  0.00000000E+00  0.00000000E+00  0.00000000E+00  0.00000000E+00  0.00000000E+00
  0.00000000E+00  0.00000000E+00  0.00000000E+00  0.00000000E+00  0.00000000E+00
  0.00000000E+00  0.00000000E+00  0.00000000E+00  0.00000000E+00  0.00000000E+00
  0.00000000E+00  0.00000000E+00  0.00000000E+00  0.00000000E+00  0.00000000E+00
  0.00000000E+00  0.00000000E+00  0.00000000E+00  0.00000000E+00  0.00000000E+00
  0.00000000E+00
Coordinates of each shell                  R   N=          78
  2.45136487E+00 -3.46658225E-01 -2.06764193E-05  2.45136487E+00 -3.46658225E-01
 -2.06764193E-05  2.45136487E+00 -3.46658225E-01 -2.06764193E-05  2.45136487E+00
 -3.46658225E-01 -2.06764193E-05  8.03263425E-02  1.08650758E+00 -3.19029633E-05
  8.03263425E-02  1.08650758E+00 -3.19029633E-05  8.03263425E-02  1.08650758E+00
 -3.19029633E-05  8.03263425E-02  1.08650758E+00 -3.19029633E-05 -2.33222743E+00
 -4.98815426E-01  4.40265063E-05 -2.33222743E+00 -4.98815426E-01  4.40265063E-05
 -2.33222743E+00 -4.98815426E-01  4.40265063E-05 -2.33222743E+00 -4.98815426E-01
  4.40265063E-05  1.06248281E-01  2.32561967E+00  1.65700119E+00  1.06248281E-01
  2.32561967E+00  1.65700119E+00  1.06206964E-01  2.32552367E+00 -1.65713735E+00
  1.06206964E-01  2.32552367E+00 -1.65713735E+00 -2.40736909E+00 -1.71357740E+00
 -1.67313711E+00 -2.40736909E+00 -1.71357740E+00 -1.67313711E+00 -2.40732704E+00
 -1.71348061E+00  1.67329727E+00 -2.40732704E+00 -1.71348061E+00  1.67329727E+00
 -4.02320973E+00  6.93619049E-01  3.07662829E-05 -4.02320973E+00  6.93619049E-01
  3.07662829E-05  2.48863497E+00 -1.50866410E+00 -1.53641914E+00  2.48863497E+00
 -1.50866410E+00 -1.53641914E+00  2.48866811E+00 -1.50858560E+00  1.53643637E+00
  2.48866811E+00 -1.50858560E+00  1.53643637E+00
Constraint Structure                       R   N=          30
  2.45136487E+00 -3.46658225E-01 -2.06764193E-05  8.03263425E-02  1.08650758E+00
 -3.19029633E-05 -2.33222743E+00 -4.98815426E-01  4.40265063E-05  1.06248281E-01
  2.32561967E+00  1.65700119E+00  1.06206964E-01  2.32552367E+00 -1.65713735E+00
 -2.40736909E+00 -1.71357740E+00 -1.67313711E+00 -2.40732704E+00 -1.71348061E+00
  1.67329727E+00 -4.02320973E+00  6.93619049E-01  3.07662829E-05  2.48863497E+00
 -1.50866410E+00 -1.53641914E+00  2.48866811E+00 -1.50858560E+00  1.53643637E+00
Num ILSW                                   I              100
ILSW                                       I   N=         100
           0           1           0           0           2           0
           0           0           0           0           0          -1
           0           0           0           0           0           0
           0           0           0           0           1           0
           1           0           0           0           0           0
           0           0      100000           0          -1           0
           0           0           0           0           0           0
           0           0           0           1           1           0
           0           0           1           0           0           0
           0           0           4          40           0           0
           0           0           0           0           0           0
           0           0           0           0           0           0
           0           0           0           0           0           0
           0           0           0           0           0           0
           0           0           0           0           0           0
           0           0           0           0           0           0
           0           0           0           0
Num RLSW                                   I               40
RLSW                                       R   N=          40
  1.00000000E+00  1.00000000E+00  1.00000000E+00  1.00000000E+00  1.00000000E+00
  0.00000000E+00  0.00000000E+00  1.00000000E+00  0.00000000E+00  0.00000000E+00
  0.00000000E+00  0.00000000E+00  1.00000000E+00  0.00000000E+00  0.00000000E+00
  0.00000000E+00  0.00000000E+00  1.00000000E+00  0.00000000E+00  0.00000000E+00
  0.00000000E+00  0.00000000E+00  1.00000000E+00  0.00000000E+00  0.00000000E+00
  0.00000000E+00  0.00000000E+00  1.00000000E+00  0.00000000E+00  0.00000000E+00
  0.00000000E+00  0.00000000E+00  0.00000000E+00  0.00000000E+00  0.00000000E+00
  0.00000000E+00  0.00000000E+00  0.00000000E+00  1.00000000E+00  1.00000000E+00
MxBond                                     I                4
NBond                                      I   N=          10
           3           4           4           1           1           1
           1           1           1           1
IBond                                      I   N=          40
           2           9          10           0           1           3
           4           5           2           6           7           8
           2           0           0           0           2           0
           0           0           3           0           0           0
           3           0           0           0           3           0
           0           0           1           0           0           0
           1           0           0           0
RBond                                      R   N=          40
  1.00000000E+00  1.00000000E+00  1.00000000E+00  0.00000000E+00  1.00000000E+00
  1.00000000E+00  1.00000000E+00  1.00000000E+00  1.00000000E+00  1.00000000E+00
  1.00000000E+00  1.00000000E+00  1.00000000E+00  0.00000000E+00  0.00000000E+00
  0.00000000E+00  1.00000000E+00  0.00000000E+00  0.00000000E+00  0.00000000E+00
  1.00000000E+00  0.00000000E+00  0.00000000E+00  0.00000000E+00  1.00000000E+00
  0.00000000E+00  0.00000000E+00  0.00000000E+00  1.00000000E+00  0.00000000E+00
  0.00000000E+00  0.00000000E+00  1.00000000E+00  0.00000000E+00  0.00000000E+00
  0.00000000E+00  1.00000000E+00  0.00000000E+00  0.00000000E+00  0.00000000E+00
Virial Ratio                               R      2.001857092885744E+00
SCF Energy                                 R     -1.342467100910509E+02
MP2 Energy                                 R     -1.346755318767855E+02
Total Energy                               R     -1.346755318767855E+02
Post-SCF wavefunction norm                 R      1.508072700466740E+00
RMS Force                                  R      3.533600136752116E-06
RMS Density                                R      8.885839271941338E-10
External E-field                           R   N=          35
  0.00000000E+00  0.00000000E+00  0.00000000E+00  0.00000000E+00  0.00000000E+00
  0.00000000E+00  0.00000000E+00  0.00000000E+00  0.00000000E+00  0.00000000E+00
  0.00000000E+00  0.00000000E+00  0.00000000E+00  0.00000000E+00  0.00000000E+00
  0.00000000E+00  0.00000000E+00  0.00000000E+00  0.00000000E+00  0.00000000E+00
  0.00000000E+00  0.00000000E+00  0.00000000E+00  0.00000000E+00  0.00000000E+00
  0.00000000E+00  0.00000000E+00  0.00000000E+00  0.00000000E+00  0.00000000E+00
  0.00000000E+00  0.00000000E+00  0.00000000E+00  0.00000000E+00  0.00000000E+00
IOpCl                                      I                0
IROHF                                      I                0
Alpha Orbital Energies                     R   N=          59
 -1.55398008E+01 -1.12464142E+01 -1.12160691E+01 -1.17261707E+00 -9.86302558E-01
 -8.28253773E-01 -6.68514426E-01 -5.94650592E-01 -5.68337716E-01 -5.64013382E-01
 -5.04481775E-01 -4.81815529E-01 -3.85730765E-01  2.19927075E-01  2.78893792E-01
  2.84090890E-01  3.00713706E-01  3.19832830E-01  3.38019645E-01  3.46271389E-01
  4.05130069E-01  4.54693764E-01  7.40435117E-01  7.55144342E-01  7.74650397E-01
  8.01896210E-01  8.57717811E-01  9.34131418E-01  1.00475575E+00  1.04190541E+00
  1.10826098E+00  1.14954807E+00  1.16967087E+00  1.18986133E+00  1.22247659E+00
  1.22532067E+00  1.23249076E+00  1.23989820E+00  1.25636090E+00  1.65210771E+00
  1.72388122E+00  1.73708872E+00  1.79325528E+00  2.01851874E+00  2.21560068E+00
  2.26240102E+00  2.33030945E+00  2.37617843E+00  2.42168208E+00  2.51695616E+00
  2.62032954E+00  2.67721672E+00  2.75964859E+00  2.83373990E+00  2.97022361E+00
  3.05872459E+00  4.19611867E+00  4.61546302E+00  4.83505708E+00
Alpha MO coefficients                      R   N=        3481
  9.95042686E-01  2.48237611E-02 -1.20102404E-03 -9.36405616E-04  3.69833983E-08
 -2.46770649E-03  1.09302052E-03  5.57770929E-04 -2.59453160E-08 -3.29607109E-03
 -3.27397397E-03 -3.37204326E-03  1.43948187E-04 -4.66440493E-09 -4.42696426E-09
 -1.67997415E-05  1.99446497E-04  2.32966603E-04 -1.31106579E-04  9.93673449E-10
  1.40665308E-03  2.35544448E-04 -3.82787863E-04  5.98767922E-09 -1.69693204E-04
 -9.77443794E-05 -1.02907839E-04  5.75006793E-05 -7.16889713E-10 -8.94205691E-10
 -2.36331112E-05 -6.74251103E-05 -1.21125073E-04  2.43919218E-05  7.81020564E-10
  7.26102382E-05  1.41378388E-04 -2.83918233E-04  7.29869524E-09 -7.39621717E-05
 -5.10341469E-05 -6.36282688E-05 -2.13533732E-06  2.70989441E-10 -3.26841874E-10
 -7.08271402E-05 -1.13300365E-04 -7.08273989E-05 -1.13302159E-04 -2.53262309E-05
 -1.68749974E-04 -2.53260675E-05 -1.68751394E-04  1.52764820E-05  2.06893076E-04
  3.01690534E-04  5.96843304E-04  3.01690511E-04  5.96843283E-04 -2.19367125E-04
  3.06277500E-05 -1.72848095E-05 -3.38358877E-05  8.55854661E-10  3.06724041E-03
 -1.10545031E-03  6.23465073E-04 -2.34231054E-09 -4.63138955E-04 -3.00212644E-04
 -8.59033856E-05  2.85414975E-04 -2.71005118E-09  3.35516331E-09  9.95823481E-01
  2.80084393E-02  2.24249237E-04 -2.64825465E-04  4.21348511E-09 -1.61500558E-02
  3.03073131E-04  7.26592212E-04 -2.35587189E-08 -1.59106991E-03 -1.62015431E-03
 -1.52144676E-03 -3.05134248E-05  1.68968779E-09  3.69975919E-09  9.64599146E-03
  2.71134953E-04  4.83299748E-05  2.47438780E-05 -1.30559509E-09  4.12408331E-03
  1.76992559E-03  9.74734912E-04 -5.07217527E-08 -3.72240915E-04 -2.81503412E-04
 -1.31550007E-04 -1.84572320E-04  8.75623569E-09  7.29258397E-09  2.24150462E-04
  2.68582086E-03  2.24150596E-04  2.68582176E-03 -1.81234900E-04  5.16808662E-05
 -1.81234889E-04  5.16813444E-05 -1.25503940E-04  1.12441203E-05 -7.59787095E-05
  2.35368591E-04 -7.59789467E-05  2.35366422E-04 -4.94994716E-05 -2.26254547E-04
  9.51360009E-05  1.85770553E-05 -1.40571162E-09  8.38619576E-04 -2.12936667E-04
 -4.30757851E-05  2.20450172E-09 -7.55983014E-05 -8.90165883E-05 -1.75507042E-04
  5.43152609E-06 -1.72961313E-09 -2.97834984E-09 -9.95099637E-03 -1.67113882E-04
 -6.05246645E-05  1.09489579E-05  5.12096343E-10  3.37652162E-03 -1.57222806E-03
 -8.30393676E-04  4.38420344E-08 -3.68045809E-04 -2.32206178E-04 -8.97394672E-05
 -1.58929756E-04  8.71454179E-09  6.70350085E-09  9.95687416E-01  2.84192627E-02
 -2.09279330E-05 -4.41897445E-05  1.65588911E-09 -1.49003409E-02 -5.08580395E-04
 -2.41864636E-04  1.30716797E-08 -1.84929456E-03 -1.85736928E-03 -1.84445506E-03
 -2.44083742E-05  7.82401450E-10  7.38481725E-10 -1.30031717E-04  2.97271193E-05
 -1.30031705E-04  2.97272625E-05  1.22796021E-04  2.60150598E-03  1.22796084E-04
  2.60150607E-03  1.13774600E-04  2.50085565E-03 -8.44494415E-05 -1.25491354E-04
 -8.44497206E-05 -1.25488579E-04 -1.74825258E-01  3.61808181E-01 -7.66236652E-02
 -2.97380116E-02  1.58440004E-06  3.72326944E-01 -3.82875447E-02 -2.21357464E-02
  9.75975825E-07  3.44736678E-03  6.54262579E-03  1.18610750E-02 -6.32352457E-03
  2.65904347E-07  2.25165730E-07 -1.01571008E-01  1.89006867E-01  6.58702037E-02
 -5.52375967E-02  7.16958936E-07  1.16182107E-01 -5.21604325E-04 -5.64751277E-03
  1.56893432E-07  1.28570847E-02  4.80358609E-03 -1.90918126E-03 -1.20286568E-02
  1.21402484E-07 -7.24390248E-08 -3.92415876E-02  7.45676693E-02  3.52249903E-02
  1.33860382E-02 -8.29788887E-07  4.40996458E-02  2.27981362E-03  2.49319825E-03
 -9.51668648E-08  5.79127023E-03  1.88713606E-03  5.58353437E-04  3.76493918E-03
 -1.83164722E-07 -9.24538677E-08  4.54536410E-02  6.58426801E-03  4.54536756E-02
  6.58428944E-03  1.99609314E-02  5.54731411E-03  1.99609268E-02  5.54732626E-03
  1.57625052E-02 -2.30179994E-04  1.11158208E-01  3.28532549E-03  1.11158207E-01
  3.28532546E-03  8.09166714E-02 -1.67882240E-01 -3.29700549E-02  6.24883323E-02
 -1.18725142E-06 -2.12550684E-01 -6.23449310E-03  3.26756766E-02 -7.52749702E-07
  9.96438725E-03 -5.28844546E-03 -9.69459593E-03 -1.73708825E-03 -2.04913190E-07
 -1.14208352E-07 -9.17259181E-02  1.74340999E-01 -1.21920138E-01 -2.99160357E-03
  1.63591089E-06  1.63610333E-01 -2.89194345E-02 -1.03497192E-03  3.84146517E-07
  1.85678539E-03  2.57029577E-03  4.62282911E-03  1.60413359E-02 -4.18931270E-07
 -1.35248268E-07 -1.59700511E-01  2.96075278E-01  2.41662131E-02  2.51032081E-02
 -1.01499303E-06  2.78775118E-01  5.80225999E-05  1.19760395E-03 -2.99206663E-08
  7.90776523E-03  7.49031288E-03  6.23646899E-03  1.36211169E-03 -6.08271815E-08
 -5.96020048E-08  5.95492463E-02  1.24005768E-02  5.95492355E-02  1.24005710E-02
  9.91231863E-02  2.22308695E-02  9.91232004E-02  2.22308689E-02  1.03737596E-01
  2.49216188E-02 -7.15757071E-02 -1.06105971E-02 -7.15756578E-02 -1.06105789E-02
  4.00541807E-02 -8.20205794E-02 -8.66050049E-02  1.55973798E-01 -3.26804486E-06
 -1.27953797E-01 -3.36399076E-02  7.71816153E-02 -1.71652391E-06  1.51139220E-02
 -6.41884312E-03 -1.05050685E-02 -9.86455642E-03 -5.03627509E-08  9.83637441E-10
 -1.32042657E-01  2.53181452E-01  5.26243249E-02  1.19007019E-01 -4.12077862E-06
  2.97582490E-01 -5.60639491E-03  3.37752167E-02 -9.56238691E-07 -8.23002134E-03
  1.96130832E-03  1.59051380E-02 -4.00870428E-03  4.60105106E-07  5.10064401E-07
  9.93207073E-02 -1.81987826E-01  9.65439048E-02  8.61967827E-02 -3.71304990E-06
 -2.41936047E-01  2.00619635E-02  2.22371331E-02 -8.76667506E-07  3.92332498E-03
 -3.51735297E-03 -1.15625546E-02  1.19096808E-02 -5.68610437E-07 -4.16722448E-07
  1.34154969E-01  5.21636267E-02  1.34155000E-01  5.21636323E-02 -1.01927251E-01
 -4.32434839E-02 -1.01927263E-01 -4.32435099E-02 -8.89079262E-02 -3.69762079E-02
 -8.00160732E-02 -2.71670474E-02 -8.00162668E-02 -2.71671286E-02 -2.01492867E-08
  4.78672105E-08  3.74196403E-06  9.49721338E-06  3.56432047E-01  1.13763547E-07
  2.06389697E-06  5.26350352E-06  1.97941548E-01 -2.46606377E-07 -1.30866121E-06
  1.54996137E-06 -7.03068273E-07 -1.42475842E-02 -2.93532962E-02 -7.25317016E-08
  1.72240444E-07  3.11937201E-06  6.77624631E-06  2.50620214E-01  8.02027689E-08
  1.54379621E-06  3.53430063E-06  1.25288953E-01  1.35918144E-07  5.58858689E-07
 -6.95930377E-07  2.94677393E-07  6.27238407E-03  1.04257199E-02  6.28645667E-08
 -1.37739629E-07  2.11063892E-06  3.75139320E-06  1.32419316E-01 -8.18300894E-08
  9.82875549E-07  1.50735284E-06  5.49018996E-02  8.03594352E-08 -3.75444261E-07
  2.68317723E-07  5.20679973E-08  3.80296258E-03 -7.13442779E-03  1.13212147E-01
  6.23469357E-02 -1.13212359E-01 -6.23471764E-02 -6.39599276E-02 -4.67419684E-02
  6.39598496E-02  4.67419067E-02 -2.97828581E-07 -1.49694550E-07 -1.72766039E-01
 -9.35556097E-02  1.72765803E-01  9.35554716E-02 -7.82997222E-03  1.52954921E-02
  2.33178703E-01 -1.70483637E-01  1.58695552E-06  2.98125713E-02  1.41340350E-01
 -1.05564412E-01  1.00573628E-06 -2.40147010E-02  1.29808650E-02  1.34763780E-02
  3.70819279E-03  3.78750360E-07  6.22735208E-09  8.12076645E-03 -1.97253856E-02
 -1.59573096E-01  2.33474741E-01 -3.93837192E-06  3.83992254E-03 -5.00600695E-02
  1.09404895E-01 -2.07612181E-06 -1.11164684E-02 -2.11107568E-03  1.62715261E-02
  8.63147007E-03  1.27923216E-07  5.59309521E-07  1.17617517E-03 -3.49239372E-03
 -1.72744998E-01  2.44141584E-01 -4.00449132E-06  1.86535612E-03 -8.62698826E-02
  1.28563259E-01 -2.20423056E-06  1.19205844E-02  4.30970819E-03 -1.59136430E-02
 -1.23430950E-02 -3.95942876E-08 -5.78871451E-07  7.87043551E-02  5.77846159E-02
  7.87035623E-02  5.77840921E-02 -8.73950343E-02 -6.42133310E-02 -8.73941290E-02
 -6.42126514E-02  1.77322860E-01  1.33082370E-01  7.63463347E-02  4.98070731E-02
  7.63460492E-02  4.98068898E-02 -1.02014816E-06  2.43503238E-06 -2.95496523E-06
  1.62215102E-06 -2.71938756E-01  3.43709307E-06 -1.32112707E-06  1.02581728E-06
 -1.75193399E-01  2.48699962E-07  1.04868255E-06 -1.45150476E-06 -4.55613779E-08
  4.04576879E-03  2.84931299E-02  7.26674936E-07 -1.46348306E-06  1.07319188E-05
  7.69801296E-06  1.54984899E-01 -1.83582830E-06  4.48914521E-06  3.35037121E-06
  7.41777129E-02 -4.17605842E-08  4.25565375E-07 -3.09089773E-07 -7.03933032E-07
 -1.27405121E-02  1.28379756E-02 -1.37565805E-07  1.49803184E-07 -4.24451770E-06
  5.87294442E-06  3.29500633E-01  4.63789354E-07 -2.15944265E-06  3.43149347E-06
  1.76688908E-01 -1.47256446E-07 -1.15156993E-06  1.48509841E-06 -8.60916396E-07
  9.24537441E-04 -2.44598099E-02  8.09334316E-02  6.54921286E-02 -8.09325115E-02
 -6.54909944E-02 -1.73327799E-01 -1.33993827E-01  1.73331179E-01  1.33996325E-01
  3.21548276E-06  2.49801486E-06  1.42634623E-01  9.39183161E-02 -1.42639058E-01
 -9.39211959E-02  3.67622978E-02 -8.69346505E-02 -9.50192907E-03 -2.94885011E-01
  1.21479467E-07 -1.26685986E-01 -2.60111440E-02 -1.90180677E-01  2.98169389E-07
 -5.12658620E-03  7.31232600E-03  3.49663214E-03  1.58753922E-02 -1.97353326E-07
  5.05394090E-07 -2.58067909E-02  5.19896026E-02 -3.04584395E-01 -1.30200367E-01
  1.12587153E-05  6.57062299E-02 -1.25447984E-01 -5.31547955E-02  4.83650178E-06
 -7.09409114E-03  7.17912511E-03 -3.00445727E-03  1.81211440E-02 -8.43231242E-07
 -2.47171279E-07  3.08189683E-03 -1.27757684E-03  3.20787995E-01  1.00666431E-01
  2.56897032E-06 -1.37049902E-02  1.66482364E-01  4.44969455E-02  1.75600429E-06
  4.15757510E-03 -2.76098109E-03 -7.64274700E-03  2.23764424E-02 -8.03325335E-07
 -1.16394731E-06 -2.28397778E-02 -2.46890600E-02 -2.28436760E-02 -2.46922878E-02
 -4.78207350E-02 -3.54754175E-02 -4.78106751E-02 -3.54675742E-02 -1.36474087E-01
 -1.08190822E-01  7.52257140E-02  4.95835884E-02  7.52178009E-02  4.95783077E-02
 -1.03211387E-02  1.66420034E-02 -2.15441656E-01  1.10850210E-01 -6.51737623E-07
  6.50990909E-02 -1.52003491E-01  7.40747448E-02 -3.43645351E-07  1.81156898E-02
 -1.38824383E-02 -1.10971180E-02 -1.22998324E-03 -3.40574316E-07  1.15782608E-07
 -4.76652809E-03  1.71232915E-02  2.84333176E-02 -2.91728308E-01  7.71209962E-06
 -2.66314719E-02  4.02039488E-05 -1.52025868E-01  4.12167637E-06  2.77657504E-02
 -8.06811788E-03 -2.38499357E-02 -9.86082653E-03 -4.77379318E-07 -4.35092906E-07
 -8.24479597E-03  1.90212090E-02 -5.05639316E-02  3.20058765E-01 -8.09810763E-06
  2.80737622E-02 -3.89159524E-02  1.82900156E-01 -4.47780642E-06  2.73348804E-02
 -5.53747432E-03 -2.35545814E-02 -1.15664486E-02 -4.11669399E-07 -5.06944462E-07
 -1.18066352E-01 -1.05928435E-01 -1.18065973E-01 -1.05928171E-01 -1.25966641E-01
 -1.19936699E-01 -1.25966045E-01 -1.19936162E-01  1.72957938E-01  1.52465825E-01
 -4.93284125E-02 -5.27762626E-02 -4.93286178E-02 -5.27764188E-02 -5.34691546E-08
  1.18966951E-07 -1.28475060E-06 -3.47299772E-06 -1.42707021E-01  2.65775435E-07
 -9.10973720E-07 -2.55429665E-06 -1.02687497E-01 -4.89668676E-08  9.73861739E-07
 -9.35378447E-07  1.77786375E-07 -2.01618434E-03  2.16873574E-02 -3.60561308E-08
  9.68091302E-08  3.56408669E-06  8.88528261E-06  3.34689693E-01  1.04839197E-07
  2.20846437E-06  5.35656869E-06  1.99552905E-01  1.05462916E-07  1.89504560E-06
 -2.00858550E-06  5.69187763E-07  1.44850826E-03  3.83782085E-02 -7.56975856E-08
  1.60251674E-07 -2.29851640E-06 -6.60923906E-06 -2.47615233E-01  2.65017414E-07
 -1.42917247E-06 -3.90542499E-06 -1.46539349E-01  1.88463581E-07  1.45103421E-06
 -1.64829900E-06  6.14531919E-07  7.02400864E-03  2.92163954E-02  1.96832734E-01
  1.86565253E-01 -1.96833385E-01 -1.86565914E-01  1.52745826E-01  1.55372230E-01
 -1.52746195E-01 -1.55372644E-01 -1.64033256E-07 -1.92962460E-07  8.84325976E-02
  8.45836361E-02 -8.84326629E-02 -8.45837556E-02 -5.27418752E-02  1.29373256E-01
  4.04065336E-01  3.14916145E-01 -1.24062919E-05  2.03742975E-01  3.86333798E-01
  2.71472936E-01 -1.11404866E-05 -8.84786965E-03 -8.54386504E-03  7.44556834E-03
 -1.58373647E-02  6.05423132E-07  6.26952971E-07  6.53928477E-03 -1.38702021E-02
 -1.65954021E-01 -8.97775036E-02  3.94210697E-06  2.12057771E-02 -3.19035951E-02
 -6.70489721E-02  1.98877653E-06  2.35795398E-02 -1.42876529E-02 -1.02529311E-02
  2.02619503E-02 -1.01483172E-06 -2.41236260E-07 -3.03304092E-02  5.85219916E-02
  2.04682470E-01  7.64814800E-02 -4.61805993E-06  1.50139099E-01  1.07068628E-01
  7.11425907E-02 -3.39282895E-06 -7.91520362E-06  3.77169375E-04 -1.99575796E-03
  1.29975739E-02 -4.15969236E-07 -2.78574290E-07 -6.09004842E-02 -6.44104083E-02
 -6.08994275E-02 -6.44091034E-02 -9.09517551E-03 -3.45318038E-02 -9.09490708E-03
 -3.45313021E-02 -6.88375125E-02 -1.04719711E-01 -6.31186462E-02 -5.31324438E-02
 -6.31186073E-02 -5.31322840E-02 -7.95564637E-02  6.86627038E-02 -1.99160234E-02
 -1.54885269E-01  4.07195688E-06  1.24107119E+00 -5.23144105E-02 -5.33867076E-01
  1.39881944E-05 -2.95656770E-02 -1.57089880E-02 -2.39219246E-02  3.91203458E-04
  7.55693399E-08 -2.71053689E-07 -4.35010690E-02  3.04561074E-02 -4.48423733E-02
  9.86520366E-02 -2.65150816E-06  8.05210611E-01 -8.11409803E-02  4.78825067E-01
 -1.40197256E-05 -2.92825469E-03  2.29138607E-03 -1.03200300E-02 -3.80667541E-03
 -8.14000716E-09 -3.50388613E-07 -6.88289431E-02  4.47613634E-02 -6.43503553E-02
 -7.66010761E-02  3.02745694E-06  1.21605083E+00 -2.97957676E-01 -3.66291375E-01
  1.46521601E-05 -8.27662945E-03 -1.51147050E-03 -6.98284842E-03  8.02880638E-03
 -2.39056489E-07 -2.86716833E-07  1.25363572E-02 -5.27663177E-01  1.25362209E-02
 -5.27665901E-01  1.44434601E-02 -6.38502411E-01  1.44434624E-02 -6.38502359E-01