67699                                                                   
Freq      RMP2-FC                                                     6-31G(d)            
Number of atoms                            I               11
Info1-9                                    I   N=           9
          23          21        1002           0           0         100
           6           2           1
Charge                                     I                0
Multiplicity                               I                1
Number of electrons                        I               68
Number of alpha electrons                  I               34
Number of beta electrons                   I               34
Number of basis functions                  I              102
Number of independent functions            I              102
Number of point charges in /Mol/           I                0
Number of translation vectors              I                0
Atomic numbers                             I   N=          11
          35           9           6           6           6           1
           1           1           1           1           1
Nuclear charges                            R   N=          11
  3.50000000E+01  9.00000000E+00  6.00000000E+00  6.00000000E+00  6.00000000E+00
  1.00000000E+00  1.00000000E+00  1.00000000E+00  1.00000000E+00  1.00000000E+00
  1.00000000E+00
Current cartesian coordinates              R   N=          33
 -3.14332823E+00 -5.16485560E-02 -9.37707599E-02  5.56323705E+00 -1.45515655E+00
 -5.08953770E-01  2.09279632E+00  1.38616430E+00 -3.29613606E-01  4.05312298E-01
 -6.36946402E-01  8.03157625E-01  4.83307762E+00  9.34946700E-01  3.66454841E-01
  1.89780230E+00  1.38151016E+00 -2.38752125E+00  1.51677886E+00  3.25628873E+00
  3.46257136E-01  8.83255448E-01 -2.50550331E+00  8.90553845E-02  4.75222384E-01
 -6.41676307E-01  2.86366889E+00  6.07200229E+00  2.34201200E+00 -5.05542696E-01
  5.11517589E+00  9.66489610E-01  2.41664990E+00
Force Field                                I                0
Int Atom Types                             I   N=          11
           0           0           0           0           0           0
           0           0           0           0           0
MM charges                                 R   N=          11
  0.00000000E+00  0.00000000E+00  0.00000000E+00  0.00000000E+00  0.00000000E+00
  0.00000000E+00  0.00000000E+00  0.00000000E+00  0.00000000E+00  0.00000000E+00
  0.00000000E+00
Integer atomic weights                     I   N=          11
          79          19          12          12          12           1
           1           1           1           1           1
Real atomic weights                        R   N=          11
  7.89183361E+01  1.89984032E+01  1.20000000E+01  1.20000000E+01  1.20000000E+01
  1.00782504E+00  1.00782504E+00  1.00782504E+00  1.00782504E+00  1.00782504E+00
  1.00782504E+00
Atom fragment info                         I   N=          11
           0           0           0           0           0           0
           0           0           0           0           0
Atom residue num                           I   N=          11
           0           0           0           0           0           0
           0           0           0           0           0
Nuclear spins                              I   N=          11
           3           1           0           0           0           1
           1           1           1           1           1
Nuclear ZEff                               R   N=          11
 -2.45000000E+01 -6.75000000E+00 -3.60000000E+00 -3.60000000E+00 -3.60000000E+00
 -1.00000000E+00 -1.00000000E+00 -1.00000000E+00 -1.00000000E+00 -1.00000000E+00
 -1.00000000E+00
Nuclear QMom                               R   N=          11
  3.13000000E+01  0.00000000E+00  0.00000000E+00  0.00000000E+00  0.00000000E+00
  0.00000000E+00  0.00000000E+00  0.00000000E+00  0.00000000E+00  0.00000000E+00
  0.00000000E+00
Nuclear GFac                               R   N=          11
  2.10639900E+00  2.62886700E+00  0.00000000E+00  0.00000000E+00  0.00000000E+00
  2.79284600E+00  2.79284600E+00  2.79284600E+00  2.79284600E+00  2.79284600E+00
  2.79284600E+00
MicOpt                                     I   N=          11
          -1          -1          -1          -1          -1          -1
          -1          -1          -1          -1          -1
Number of contracted shells                I               40
Number of primitive shells                 I               99
Pure/Cartesian d shells                    I                1
Pure/Cartesian f shells                    I                0
Highest angular momentum                   I                2
Largest degree of contraction              I                8
Shell types                                I   N=          40
           0           0           0           0           0           0
           1           1           1           1           2           2
           0          -1          -1           2           0          -1
          -1           2           0          -1          -1           2
           0          -1          -1           2           0           0
           0           0           0           0           0           0
           0           0           0           0
Number of primitives per shell             I   N=          40
           8           2           1           1           1           1
           6           3           1           1           5           1
           6           3           1           1           6           3
           1           1           6           3           1           1
           6           3           1           1           3           1
           3           1           3           1           3           1
           3           1           3           1
Shell to atom map                          I   N=          40
           1           1           1           1           1           1
           1           1           1           1           1           1
           2           2           2           2           3           3
           3           3           4           4           4           4
           5           5           5           5           6           6
           7           7           8           8           9           9
          10          10          11          11
Primitive exponents                        R   N=          99
  5.74300000E+05  8.90700000E+04  2.02100000E+04  5.73600000E+03  1.89900000E+03
  6.98700000E+02  2.77800000E+02  1.15200000E+02  3.59700000E+01  1.55000000E+01
  4.77100000E+00  2.07700000E+00  4.21100000E-01  1.61000000E-01  4.40600000E+03
  1.04200000E+03  3.32100000E+02  1.21900000E+02  4.92400000E+01  2.11600000E+01
  8.83600000E+00  3.82900000E+00  1.64300000E+00  4.65000000E-01  1.42700000E-01
  1.08400000E+02  3.07100000E+01  1.06600000E+01  3.85100000E+00  1.31700000E+00
  3.38000000E-01  7.00171309E+03  1.05136609E+03  2.39285690E+02  6.73974453E+01
  2.15199573E+01  7.40310130E+00  2.08479528E+01  4.80830834E+00  1.34406986E+00
  3.58151393E-01  8.00000000E-01  3.04752488E+03  4.57369518E+02  1.03948685E+02
  2.92101553E+01  9.28666296E+00  3.16392696E+00  7.86827235E+00  1.88128854E+00
  5.44249258E-01  1.68714478E-01  8.00000000E-01  3.04752488E+03  4.57369518E+02
  1.03948685E+02  2.92101553E+01  9.28666296E+00  3.16392696E+00  7.86827235E+00
  1.88128854E+00  5.44249258E-01  1.68714478E-01  8.00000000E-01  3.04752488E+03
  4.57369518E+02  1.03948685E+02  2.92101553E+01  9.28666296E+00  3.16392696E+00
  7.86827235E+00  1.88128854E+00  5.44249258E-01  1.68714478E-01  8.00000000E-01
  1.87311370E+01  2.82539436E+00  6.40121692E-01  1.61277759E-01  1.87311370E+01
  2.82539436E+00  6.40121692E-01  1.61277759E-01  1.87311370E+01  2.82539436E+00
  6.40121692E-01  1.61277759E-01  1.87311370E+01  2.82539436E+00  6.40121692E-01
  1.61277759E-01  1.87311370E+01  2.82539436E+00  6.40121692E-01  1.61277759E-01
  1.87311370E+01  2.82539436E+00  6.40121692E-01  1.61277759E-01
Contraction coefficients                   R   N=          99
  2.10682753E-04  1.61271721E-03  8.36010959E-03  3.40275588E-02  1.08515001E-01
  2.67396944E-01  4.29567221E-01  2.86993117E-01  2.77772914E-01  7.47057636E-01
  1.00000000E+00  1.00000000E+00  1.00000000E+00  1.00000000E+00  1.39552623E-03
  1.23748283E-02  6.10175241E-02  2.26775547E-01  4.05975875E-01  4.50692322E-01
  2.92018585E-01  5.30220862E-01  2.75287404E-01  1.00000000E+00  1.00000000E+00
  2.15879371E-02  1.34176036E-01  3.67870647E-01  4.91895206E-01  2.68321979E-01
  1.00000000E+00  1.81961690E-03  1.39160796E-02  6.84053245E-02  2.33185760E-01
  4.71267439E-01  3.56618546E-01 -1.08506975E-01 -1.46451658E-01  1.12868858E+00
  1.00000000E+00  1.00000000E+00  1.83473713E-03  1.40373228E-02  6.88426223E-02
  2.32184443E-01  4.67941348E-01  3.62311985E-01 -1.19332420E-01 -1.60854152E-01
  1.14345644E+00  1.00000000E+00  1.00000000E+00  1.83473713E-03  1.40373228E-02
  6.88426223E-02  2.32184443E-01  4.67941348E-01  3.62311985E-01 -1.19332420E-01
 -1.60854152E-01  1.14345644E+00  1.00000000E+00  1.00000000E+00  1.83473713E-03
  1.40373228E-02  6.88426223E-02  2.32184443E-01  4.67941348E-01  3.62311985E-01
 -1.19332420E-01 -1.60854152E-01  1.14345644E+00  1.00000000E+00  1.00000000E+00
  3.34946043E-02  2.34726953E-01  8.13757326E-01  1.00000000E+00  3.34946043E-02
  2.34726953E-01  8.13757326E-01  1.00000000E+00  3.34946043E-02  2.34726953E-01
  8.13757326E-01  1.00000000E+00  3.34946043E-02  2.34726953E-01  8.13757326E-01
  1.00000000E+00  3.34946043E-02  2.34726953E-01  8.13757326E-01  1.00000000E+00
  3.34946043E-02  2.34726953E-01  8.13757326E-01  1.00000000E+00
P(S=P) Contraction coefficients            R   N=          99
  0.00000000E+00  0.00000000E+00  0.00000000E+00  0.00000000E+00  0.00000000E+00
  0.00000000E+00  0.00000000E+00  0.00000000E+00  0.00000000E+00  0.00000000E+00
  0.00000000E+00  0.00000000E+00  0.00000000E+00  0.00000000E+00  0.00000000E+00
  0.00000000E+00  0.00000000E+00  0.00000000E+00  0.00000000E+00  0.00000000E+00
  0.00000000E+00  0.00000000E+00  0.00000000E+00  0.00000000E+00  0.00000000E+00
  0.00000000E+00  0.00000000E+00  0.00000000E+00  0.00000000E+00  0.00000000E+00
  0.00000000E+00  0.00000000E+00  0.00000000E+00  0.00000000E+00  0.00000000E+00
  0.00000000E+00  0.00000000E+00  7.16287242E-02  3.45912103E-01  7.22469956E-01
  1.00000000E+00  0.00000000E+00  0.00000000E+00  0.00000000E+00  0.00000000E+00
  0.00000000E+00  0.00000000E+00  0.00000000E+00  6.89990666E-02  3.16423961E-01
  7.44308291E-01  1.00000000E+00  0.00000000E+00  0.00000000E+00  0.00000000E+00
  0.00000000E+00  0.00000000E+00  0.00000000E+00  0.00000000E+00  6.89990666E-02
  3.16423961E-01  7.44308291E-01  1.00000000E+00  0.00000000E+00  0.00000000E+00
  0.00000000E+00  0.00000000E+00  0.00000000E+00  0.00000000E+00  0.00000000E+00
  6.89990666E-02  3.16423961E-01  7.44308291E-01  1.00000000E+00  0.00000000E+00
  0.00000000E+00  0.00000000E+00  0.00000000E+00  0.00000000E+00  0.00000000E+00
  0.00000000E+00  0.00000000E+00  0.00000000E+00  0.00000000E+00  0.00000000E+00
  0.00000000E+00  0.00000000E+00  0.00000000E+00  0.00000000E+00  0.00000000E+00
  0.00000000E+00  0.00000000E+00  0.00000000E+00  0.00000000E+00  0.00000000E+00
  0.00000000E+00  0.00000000E+00  0.00000000E+00  0.00000000E+00
Coordinates of each shell                  R   N=         120
 -3.14332823E+00 -5.16485560E-02 -9.37707599E-02 -3.14332823E+00 -5.16485560E-02
 -9.37707599E-02 -3.14332823E+00 -5.16485560E-02 -9.37707599E-02 -3.14332823E+00
 -5.16485560E-02 -9.37707599E-02 -3.14332823E+00 -5.16485560E-02 -9.37707599E-02
 -3.14332823E+00 -5.16485560E-02 -9.37707599E-02 -3.14332823E+00 -5.16485560E-02
 -9.37707599E-02 -3.14332823E+00 -5.16485560E-02 -9.37707599E-02 -3.14332823E+00
 -5.16485560E-02 -9.37707599E-02 -3.14332823E+00 -5.16485560E-02 -9.37707599E-02
 -3.14332823E+00 -5.16485560E-02 -9.37707599E-02 -3.14332823E+00 -5.16485560E-02
 -9.37707599E-02  5.56323705E+00 -1.45515655E+00 -5.08953770E-01  5.56323705E+00
 -1.45515655E+00 -5.08953770E-01  5.56323705E+00 -1.45515655E+00 -5.08953770E-01
  5.56323705E+00 -1.45515655E+00 -5.08953770E-01  2.09279632E+00  1.38616430E+00
 -3.29613606E-01  2.09279632E+00  1.38616430E+00 -3.29613606E-01  2.09279632E+00
  1.38616430E+00 -3.29613606E-01  2.09279632E+00  1.38616430E+00 -3.29613606E-01
  4.05312298E-01 -6.36946402E-01  8.03157625E-01  4.05312298E-01 -6.36946402E-01
  8.03157625E-01  4.05312298E-01 -6.36946402E-01  8.03157625E-01  4.05312298E-01
 -6.36946402E-01  8.03157625E-01  4.83307762E+00  9.34946700E-01  3.66454841E-01
  4.83307762E+00  9.34946700E-01  3.66454841E-01  4.83307762E+00  9.34946700E-01
  3.66454841E-01  4.83307762E+00  9.34946700E-01  3.66454841E-01  1.89780230E+00
  1.38151016E+00 -2.38752125E+00  1.89780230E+00  1.38151016E+00 -2.38752125E+00
  1.51677886E+00  3.25628873E+00  3.46257136E-01  1.51677886E+00  3.25628873E+00
  3.46257136E-01  8.83255448E-01 -2.50550331E+00  8.90553845E-02  8.83255448E-01
 -2.50550331E+00  8.90553845E-02  4.75222384E-01 -6.41676307E-01  2.86366889E+00
  4.75222384E-01 -6.41676307E-01  2.86366889E+00  6.07200229E+00  2.34201200E+00
 -5.05542696E-01  6.07200229E+00  2.34201200E+00 -5.05542696E-01  5.11517589E+00
  9.66489610E-01  2.41664990E+00  5.11517589E+00  9.66489610E-01  2.41664990E+00
Constraint Structure                       R   N=          33
 -3.14332823E+00 -5.16485560E-02 -9.37707599E-02  5.56323705E+00 -1.45515655E+00
 -5.08953770E-01  2.09279632E+00  1.38616430E+00 -3.29613606E-01  4.05312298E-01
 -6.36946402E-01  8.03157625E-01  4.83307762E+00  9.34946700E-01  3.66454841E-01
  1.89780230E+00  1.38151016E+00 -2.38752125E+00  1.51677886E+00  3.25628873E+00
  3.46257136E-01  8.83255448E-01 -2.50550331E+00  8.90553845E-02  4.75222384E-01
 -6.41676307E-01  2.86366889E+00  6.07200229E+00  2.34201200E+00 -5.05542696E-01
  5.11517589E+00  9.66489610E-01  2.41664990E+00
Num ILSW                                   I              100
ILSW                                       I   N=         100
           0           1           0           0           2           0
           0           0           0           0           0          -1
           0           0           0           0           0           0
           0           0           0           0           1           0
           1           0           0           0           0           0
           0           0      100000           0          -1           0
           0           0           0           0           0           0
           0           0           0           1           1           0
           0           0           1           0           0           0
           0           0           4          40           0           0
           0           0           0           0           0           0
           0           0           0           0           0           0
           0           0           0           0           0           0
           0           0           0           0           0           0
           0           0           0           0           0           0
           0           0           0           0           0           0
           0           0           0           0
Num RLSW                                   I               40
RLSW                                       R   N=          40
  1.00000000E+00  1.00000000E+00  1.00000000E+00  1.00000000E+00  1.00000000E+00
  0.00000000E+00  0.00000000E+00  1.00000000E+00  0.00000000E+00  0.00000000E+00
  0.00000000E+00  0.00000000E+00  1.00000000E+00  0.00000000E+00  0.00000000E+00
  0.00000000E+00  0.00000000E+00  1.00000000E+00  0.00000000E+00  0.00000000E+00
  0.00000000E+00  0.00000000E+00  1.00000000E+00  0.00000000E+00  0.00000000E+00
  0.00000000E+00  0.00000000E+00  1.00000000E+00  0.00000000E+00  0.00000000E+00
  0.00000000E+00  0.00000000E+00  0.00000000E+00  0.00000000E+00  0.00000000E+00
  0.00000000E+00  0.00000000E+00  0.00000000E+00  1.00000000E+00  1.00000000E+00
MxBond                                     I                4
NBond                                      I   N=          11
           1           1           4           4           4           1
           1           1           1           1           1
IBond                                      I   N=          44
           4           0           0           0           5           0
           0           0           4           5           6           7
           1           3           8           9           2           3
          10          11           3           0           0           0
           3           0           0           0           4           0
           0           0           4           0           0           0
           5           0           0           0           5           0
           0           0
RBond                                      R   N=          44
  1.00000000E+00  0.00000000E+00  0.00000000E+00  0.00000000E+00  1.00000000E+00
  0.00000000E+00  0.00000000E+00  0.00000000E+00  1.00000000E+00  1.00000000E+00
  1.00000000E+00  1.00000000E+00  1.00000000E+00  1.00000000E+00  1.00000000E+00
  1.00000000E+00  1.00000000E+00  1.00000000E+00  1.00000000E+00  1.00000000E+00
  1.00000000E+00  0.00000000E+00  0.00000000E+00  0.00000000E+00  1.00000000E+00
  0.00000000E+00  0.00000000E+00  0.00000000E+00  1.00000000E+00  0.00000000E+00
  0.00000000E+00  0.00000000E+00  1.00000000E+00  0.00000000E+00  0.00000000E+00
  0.00000000E+00  1.00000000E+00  0.00000000E+00  0.00000000E+00  0.00000000E+00
  1.00000000E+00  0.00000000E+00  0.00000000E+00  0.00000000E+00
Virial Ratio                               R      2.004288772855355E+00
SCF Energy                                 R     -2.786420704278619E+03
MP2 Energy                                 R     -2.787094228977595E+03
Total Energy                               R     -2.787094228977595E+03
Post-SCF wavefunction norm                 R      1.561943442644499E+00
RMS Force                                  R      7.381830241793542E-07
RMS Density                                R      1.072521637043877E-09
External E-field                           R   N=          35
  0.00000000E+00  0.00000000E+00  0.00000000E+00  0.00000000E+00  0.00000000E+00
  0.00000000E+00  0.00000000E+00  0.00000000E+00  0.00000000E+00  0.00000000E+00
  0.00000000E+00  0.00000000E+00  0.00000000E+00  0.00000000E+00  0.00000000E+00
  0.00000000E+00  0.00000000E+00  0.00000000E+00  0.00000000E+00  0.00000000E+00
  0.00000000E+00  0.00000000E+00  0.00000000E+00  0.00000000E+00  0.00000000E+00
  0.00000000E+00  0.00000000E+00  0.00000000E+00  0.00000000E+00  0.00000000E+00
  0.00000000E+00  0.00000000E+00  0.00000000E+00  0.00000000E+00  0.00000000E+00
IOpCl                                      I                0
IROHF                                      I                0
Alpha Orbital Energies                     R   N=         102
 -4.90050451E+02 -6.44627575E+01 -5.86018528E+01 -5.86002449E+01 -5.86001951E+01
 -2.62821884E+01 -1.13238623E+01 -1.12978684E+01 -1.12526822E+01 -9.71112150E+00
 -7.46008809E+00 -7.45174346E+00 -7.45166549E+00 -3.19870868E+00 -3.19483949E+00
 -3.19475217E+00 -3.18514316E+00 -3.18514273E+00 -1.58318964E+00 -1.10798543E+00
 -1.01409140E+00 -9.07350033E-01 -8.29228754E-01 -7.08672425E-01 -7.00755238E-01
 -6.63235763E-01 -6.40620115E-01 -5.76894125E-01 -5.48898184E-01 -5.36101010E-01
 -5.09893119E-01 -4.75039064E-01 -3.97035508E-01 -3.96361312E-01  1.59106302E-01
  2.38551654E-01  2.60536928E-01  2.69342191E-01  2.87702490E-01  2.96168302E-01
  3.12771225E-01  3.45757970E-01  3.77038070E-01  3.89093880E-01  4.58974359E-01
  6.15117573E-01  6.26322683E-01  6.48172016E-01  6.58814157E-01  6.68490006E-01
  6.99518731E-01  7.11155149E-01  7.42990568E-01  7.71043143E-01  7.91452634E-01
  8.36502262E-01  8.52656029E-01  9.20016169E-01  9.71184373E-01  1.02748759E+00
  1.07588309E+00  1.09193253E+00  1.11737745E+00  1.13598226E+00  1.14065123E+00
  1.18647051E+00  1.20159691E+00  1.23163553E+00  1.29984648E+00  1.41369578E+00
  1.57932051E+00  1.59361509E+00  1.67174955E+00  1.72471101E+00  1.75493747E+00
  1.80450480E+00  1.85909165E+00  1.94844219E+00  2.01785816E+00  2.10240538E+00
  2.12771751E+00  2.18055959E+00  2.23852517E+00  2.25501524E+00  2.28621529E+00
  2.36697813E+00  2.42563891E+00  2.50403227E+00  2.54247796E+00  2.66066828E+00
  2.69389155E+00  2.74220272E+00  2.79853931E+00  2.97036349E+00  3.03138396E+00
  3.37222410E+00  4.48833981E+00  4.56939470E+00  4.71884990E+00  4.88327708E+00
  9.29132499E+00  7.45149982E+01
Alpha MO coefficients                      R   N=       10404
  9.94938144E-01  3.28047887E-02 -4.42303726E-02 -4.76015207E-02 -2.62197644E-02
 -1.94708463E-02  2.00098758E-05 -1.04997574E-06  3.56371997E-06 -5.83765877E-05
  1.18939689E-06 -9.09566273E-06  2.50599692E-04 -8.29922605E-07  3.62017265E-05
 -5.67597616E-04  3.92131488E-05 -1.07769152E-04  4.40249246E-02  4.40175317E-02
  4.40154024E-02  1.74537125E-06  7.20513975E-07 -2.85703392E-06  1.08628671E-02
  1.09281182E-02  1.09410139E-02 -1.16994858E-06 -1.48924708E-05  2.17879191E-05
  1.43574258E-05  7.29580532E-05 -8.03386232E-06  4.07942594E-06 -5.50463066E-06
 -2.62379942E-04  3.77715567E-05 -3.92106820E-05  6.26003654E-06  5.92139585E-05
  5.18007326E-05  5.89496900E-05  2.85557049E-06 -8.45940212E-07 -8.73220013E-07
  6.29607478E-06 -8.38897071E-05 -6.60199983E-06 -7.90225984E-06  8.86568381E-06
  1.92574717E-05 -6.27205193E-04 -3.56042670E-04  1.40886655E-04  7.98818516E-05
  7.42764114E-05  4.93404501E-05  4.58587654E-05 -2.26349279E-05 -2.12414760E-05
  2.07242097E-05  1.08127252E-04  2.91621945E-04 -5.12281811E-05  7.65083366E-05
 -6.00421330E-04 -5.84356578E-04 -1.40065141E-04  1.70933396E-05 -1.08119760E-04
 -3.69446466E-05 -7.58467389E-06 -5.97134592E-06 -1.55137448E-05  4.63363036E-05
 -1.07068782E-05 -5.54786629E-05 -9.01760815E-06  3.26787752E-07 -1.63260070E-05
  5.46486779E-04 -1.60987883E-04  1.56676416E-05 -4.57119840E-05 -1.23469221E-05
  3.33317042E-06 -1.41140275E-05 -3.14815405E-06  4.26833137E-06 -7.64189082E-06
 -7.20093257E-05  2.93937082E-04 -7.09541627E-05  3.09926264E-04  3.31897686E-05
  3.99040626E-04  3.43122559E-05  3.95654721E-04 -2.43910797E-05  7.76257988E-06
 -3.40612746E-06 -8.52563894E-05 -4.23682146E-01  1.16531663E+00 -2.70944371E-01
 -3.65487237E-01 -2.01337759E-01 -1.54547019E-01  8.86185773E-04 -1.46812232E-04
  2.26395049E-04 -3.65552117E-04 -9.20590680E-06 -4.54356513E-05  1.98250426E-03
 -1.52339336E-06  2.82950296E-04 -4.55153186E-03  3.11590795E-04 -8.62183737E-04
  3.37164128E-01  3.37064580E-01  3.37048573E-01  6.34067030E-06  1.78194420E-05
 -2.55485548E-05  8.54605973E-02  8.59746287E-02  8.60789565E-02 -1.29106751E-05
 -1.15471847E-04  1.74394901E-04  1.11160127E-04  5.69024997E-04 -6.35256817E-05
  3.14269545E-05 -4.32606005E-05 -2.04349421E-03  3.00815045E-04 -3.08092696E-04
  5.26316984E-05  4.57096749E-04  4.00077449E-04  4.57123292E-04  2.26108112E-05
 -5.90064918E-06 -5.89569695E-06  4.21885755E-05 -6.62268229E-04 -3.55658265E-05
 -5.83441175E-05  6.94991067E-05  2.14652662E-04 -5.05764479E-03 -2.83135413E-03
  1.11119451E-03  6.17073970E-04  5.62016014E-04  3.65122484E-04  3.61118795E-04
 -1.76178884E-04 -1.69017280E-04  1.57317747E-04  9.39282122E-04  2.32235431E-03
 -4.07623951E-04  6.09007166E-04 -4.68524413E-03 -4.65699270E-03 -1.13626493E-03
  1.48671147E-04 -9.80609425E-04 -3.07801654E-04 -8.13830731E-05 -2.16628502E-05
 -1.58347239E-04  3.70627170E-04 -8.54667367E-05 -4.43911856E-04 -7.14263512E-05
  1.40991868E-06 -1.27473209E-04  4.37262507E-03 -1.29497356E-03  1.44012201E-04
 -3.77062329E-04 -9.70677088E-05  2.46575039E-05 -1.11526574E-04 -2.65362980E-05
  3.49343971E-05 -5.96814735E-05 -5.77175972E-04  2.32233807E-03 -5.68801547E-04
  2.44868963E-03  2.46979248E-04  3.16727568E-03  2.55603918E-04  3.14222492E-03
 -1.94871895E-04  5.57241031E-05 -2.58928174E-05 -6.74531590E-04  2.42108385E-04
 -1.80647416E-03  2.98412079E-03  1.80640421E-03 -8.10131821E-04  9.24302821E-03
  9.39651301E-01 -1.39766842E-01  2.27080078E-01  5.97887571E-02 -8.85067718E-03
  1.44201838E-02 -1.82075479E-02  2.49055059E-03 -4.25346262E-03  7.97649386E-03
 -8.85324276E-04  1.72613769E-03 -2.73969626E-03 -2.81269907E-03 -2.78943809E-03
 -4.11486248E-05  3.50996243E-05  1.68546228E-05 -3.90098360E-03 -3.36718609E-03
 -3.51750559E-03  2.26889498E-04 -2.07711070E-04 -1.23157524E-04 -4.17929491E-05
 -1.83482026E-04  6.20705970E-05 -1.39068894E-05  5.68766520E-05  4.99397663E-04
 -1.45068676E-04  5.29765248E-05 -2.40505648E-04 -1.38437786E-04 -1.53256544E-04
 -2.60170207E-04  1.28853683E-05  1.10093600E-05 -3.33151032E-05  2.04470877E-04
  9.30798044E-04 -3.17277980E-04 -8.79746934E-05 -5.51018841E-06 -5.35255628E-03
  4.25318295E-03  1.97644166E-03 -6.95619217E-04  1.38447152E-04  2.67914576E-04
  3.26604612E-04 -1.52632313E-04  5.58781279E-05  4.45795958E-05 -3.16687119E-04
 -2.63643961E-03 -1.60423354E-05  7.77521691E-05 -5.68996893E-05  7.50010845E-03
  6.69019297E-05  2.01027982E-03 -1.36269174E-03  1.52580082E-03 -5.63455312E-04
 -6.60335599E-04 -3.80471021E-04  6.58683905E-04 -3.72779047E-04  1.17529308E-05
  5.87240252E-05  7.74141586E-05  1.03502724E-04 -4.87510737E-05 -1.42497814E-03
  7.47534710E-06 -1.04988965E-03  8.61434229E-04  3.27722339E-05 -2.89051936E-05
  2.56160460E-05  1.11885162E-05 -2.24527695E-05  9.75476811E-05  4.74952706E-04
 -4.85977971E-05  4.61395882E-04 -1.01207128E-04  1.07276496E-04 -1.68480875E-03
  9.13197118E-05 -1.66611612E-03  2.25517284E-04  4.18172342E-04 -1.65589034E-04
  2.29899405E-05 -3.60591720E-05 -7.26088387E-05  3.92019454E-04  2.63505351E-04
 -2.70525212E-04  1.36954496E-03  2.42915591E-01  7.91850911E-01 -5.17915568E-01
  1.54059114E-02  5.00559197E-02 -3.27318477E-02 -4.63977955E-03 -1.42453139E-02
  9.27708660E-03  2.05846143E-03  6.41333578E-03 -4.17938672E-03 -3.87037752E-04
 -3.84981352E-04 -3.70677094E-04 -1.31042462E-05  4.83998799E-06  1.60934432E-05
 -4.41076033E-04 -5.63235473E-04 -6.57845421E-04  3.34096588E-04 -2.00462694E-04
 -7.29436123E-06 -9.20193515E-06 -5.94264157E-05  6.59971829E-06 -1.85363264E-05
  1.46720457E-05  2.52253027E-04 -5.71516343E-05  1.29919902E-04 -5.26299378E-05
 -5.60001831E-05 -7.33212836E-07 -3.47317895E-05 -6.57573560E-06 -2.12173684E-05
 -1.40721506E-05  7.27506513E-06  1.10899531E-04 -3.03279080E-04 -4.95992371E-05
 -1.01875037E-05  1.24561729E-03  2.91947812E-03  1.61858620E-04  2.40410327E-04
 -2.60036021E-05 -1.72160654E-05 -1.96518494E-05 -1.23964178E-04  7.85131511E-05
 -5.16631137E-05 -1.96935671E-05 -9.83598967E-05  1.98619990E-04  1.37621484E-05
  1.61598351E-05  6.11799100E-04 -8.51048586E-04  2.61295412E-04 -2.70236519E-04
 -1.05234790E-04  7.01460685E-05 -4.37925794E-06 -2.18530842E-05  9.81658582E-06
 -1.15573865E-04  3.35257512E-05  2.20025748E-04  1.07453031E-04  2.93471893E-05
  8.73525245E-06 -2.49743535E-03  8.77467151E-04 -4.18966023E-04  6.10309069E-04
 -5.76697887E-05  6.78716810E-06  3.65526919E-05  3.92359815E-05 -3.74718090E-05
  7.91519213E-06  3.03936577E-04 -5.98103519E-04  3.08171400E-04 -5.67163365E-04
 -1.11108814E-04  5.59524582E-04 -1.24422063E-04  5.77636084E-04  1.23066011E-04
  2.34677732E-04  4.24506270E-05 -1.01582848E-04  1.76365602E-07 -3.80593794E-06
  8.10523974E-06  5.59799769E-06 -9.56626964E-06  3.92062858E-05 -1.09984713E-01
  5.54723184E-01  7.96541683E-01 -6.94836114E-03  3.50499900E-02  5.03286848E-02
  1.95757960E-03 -9.90246889E-03 -1.42167125E-02 -8.46637236E-04  4.31779576E-03
  6.19491265E-03 -1.00016391E-05 -9.71858835E-06 -3.40066276E-06  5.29606517E-06
  7.43927203E-06  1.64916030E-07 -5.95977795E-05 -5.57873970E-05  7.98117380E-05
  1.52317983E-04  2.00699002E-04 -3.52208247E-07  3.80233051E-06 -1.02558551E-05
 -3.49199014E-05 -2.50026790E-05  8.41935664E-06  9.13869956E-05  7.33957180E-05
  1.44126787E-04 -1.90277881E-05  3.44825288E-06  6.19028998E-05  2.50547981E-05
 -1.19904811E-05  7.63378294E-06 -2.91907553E-06 -5.68725138E-08  1.54392058E-06
  6.78021641E-07 -3.30277859E-05 -4.93675521E-05  4.22315525E-06 -1.43936333E-05
  3.70469114E-04  5.02832416E-04 -5.13875911E-06 -4.62380255E-05  4.85523926E-05
  2.39194993E-05  2.22841619E-05 -1.56149980E-05 -6.50653185E-07 -2.18724860E-06
 -2.95944585E-06  1.80889505E-05  2.46143002E-05  2.60004892E-05  8.29663526E-05
 -3.98543810E-04 -6.00457208E-04 -1.42269298E-06  3.58897825E-05 -3.76743632E-05
 -1.42905572E-05 -1.22806595E-05  1.37681312E-05  7.13967011E-06  3.68816725E-05
  1.55911114E-05 -1.89535318E-05 -6.10795572E-05 -2.57895643E-04 -1.16739785E-04
  9.14681175E-05  2.26486707E-04  3.44759031E-06 -3.56639208E-05  3.97127436E-05
  3.15769997E-05  3.10914078E-05 -2.78459246E-05 -1.73816512E-04  8.69550674E-04
  1.81082733E-04 -8.89704227E-04 -2.64603847E-04  5.76657475E-04  2.52504784E-04
 -5.64760563E-04  2.85085764E-05  9.55587780E-05 -8.31164928E-05  5.66251478E-05
 -4.55232776E-07 -3.22193038E-06  1.11308899E-05  5.38763287E-06  6.73773421E-05
 -1.61748568E-04 -7.05412176E-07  5.72572418E-07  1.70594855E-07  2.19007708E-06
 -1.82007275E-06 -5.45317595E-07 -4.88007863E-06  8.40424157E-06  3.36276297E-06
 -8.16819378E-05  4.40368987E-06 -2.46110004E-05 -6.95280027E-06 -1.14298263E-05
 -1.12189419E-05 -3.36660415E-07  1.17405815E-06 -9.94168785E-07 -2.20723547E-05
  2.40316774E-05  2.29151803E-05  7.24478588E-06 -1.18809583E-05  7.90197532E-06
  9.94430834E-01  1.77642002E-02 -2.37927480E-04  7.73425168E-04  2.86934954E-04
  8.09508625E-03  1.63735115E-04 -5.53359715E-04 -2.04416528E-04 -4.56587507E-03
 -4.94453010E-03 -4.59437956E-03  1.48216357E-04  5.56041479E-05 -1.73172684E-04
  4.68863148E-06  8.39052918E-05 -1.72252706E-05  6.46080309E-06  4.43834713E-07
 -1.93134904E-04 -1.93006745E-04  6.11591582E-05  1.48524403E-05 -5.21686315E-05