
    -----------------------------------------------------------------------
          Psi4: An Open-Source Ab Initio Electronic Structure Package
                               Psi4 1.4a3.dev225 

                         Git: Rev {master} 7105e37 


    D. G. A. Smith, L. A. Burns, A. C. Simmonett, R. M. Parrish,
    M. C. Schieber, R. Galvelis, P. Kraus, H. Kruse, R. Di Remigio,
    A. Alenaizan, A. M. James, S. Lehtola, J. P. Misiewicz, M. Scheurer,
    R. A. Shaw, J. B. Schriber, Y. Xie, Z. L. Glick, D. A. Sirianni,
    J. S. O'Brien, J. M. Waldrop, A. Kumar, E. G. Hohenstein,
    B. P. Pritchard, B. R. Brooks, H. F. Schaefer III, A. Yu. Sokolov,
    K. Patkowski, A. E. DePrince III, U. Bozkaya, R. A. King,
    F. A. Evangelista, J. M. Turney, T. D. Crawford, C. D. Sherrill,
    J. Chem. Phys. 152(18) 184108 (2020). https://doi.org/10.1063/5.0006002

                            Additional Code Authors
    E. T. Seidl, C. L. Janssen, E. F. Valeev, M. L. Leininger,
    J. F. Gonthier, R. M. Richard, H. R. McAlexander, M. Saitow, X. Wang,
    P. Verma, and M. H. Lechner

             Previous Authors, Complete List of Code Contributors,
                       and Citations for Specific Modules
    https://github.com/psi4/psi4/blob/master/codemeta.json
    https://github.com/psi4/psi4/graphs/contributors
    http://psicode.org/psi4manual/master/introduction.html#citing-psifour

    -----------------------------------------------------------------------


    Psi4 started on: Sunday, 07 March 2021 08:41AM

    Process ID: 245288
    Host:       c418-093.stampede2.tacc.utexas.edu
    PSIDATADIR: /home1/07844/xy3866/miniconda3/envs/p4env/share/psi4
    Memory:     500.0 MiB
    Threads:    32
    
  ==> Input File <==

--------------------------------------------------------------------------
#psi4
#
memory 32 gb

molecule  {
0 1
  I       -2.0593870    -0.0000050     0.0008870
  C        2.0215980    -1.2984658     0.0657845
  C        2.1361340     1.2244190    -0.0142730
  C        2.8182870    -0.0000010    -0.0208120
  C        0.7335970    -1.2186540    -0.0045600
  C        0.7335920     1.2186470    -0.0050340
  C        0.0490750     0.0000020     0.0008410
  C        2.8915970    -2.5298050     0.0156450
  C        2.8915460     2.5298400     0.0146700
  H        3.9079530    -0.0000080    -0.0344780
  H        0.1843020    -2.1569090    -0.0057920
  H        0.1843020     2.1569060    -0.0066320
  H        3.8558710    -2.4380930    -0.4900960
  H        2.3252680    -3.3261570    -0.4730740
  H        3.0845820    -2.8430750     1.0467350
  H        2.3258810     3.3255980    -0.4757890
  H        3.0830690     2.8443520     1.0456540
  H        3.8565230     2.4375450    -0.4896130
units angstrom
no_reorient  #important for SAPT in psi4, default
symmetry c1  #important for SAPT in psi4, default
}

set PROPERTIES_ORIGIN ["COM"]
properties('MP2/aug-cc-pvtz', properties = ['dipole'])
--------------------------------------------------------------------------

  Memory set to  29.802 GiB by Python driver.
    SCF Algorithm Type (re)set to DF.

*** tstart() called on c418-093.stampede2.tacc.utexas.edu
*** at Sun Mar  7 08:41:12 2021

   => Loading Basis Set <=

    Name: AUG-CC-PVTZ
    Role: ORBITAL
    Keyword: BASIS
    atoms 1     entry I          line  4496 (ECP: line  4576) file /home1/07844/xy3866/miniconda3/envs/p4env/share/psi4/basis/aug-cc-pvtz.gbs 
    atoms 2-9   entry C          line   239 file /home1/07844/xy3866/miniconda3/envs/p4env/share/psi4/basis/aug-cc-pvtz.gbs 
    atoms 10-18 entry H          line    40 file /home1/07844/xy3866/miniconda3/envs/p4env/share/psi4/basis/aug-cc-pvtz.gbs 

    !!!  WARNING: ECP capability is in beta. Please check occupations closely.  !!!


         ---------------------------------------------------------
                                   SCF
               by Justin Turney, Rob Parrish, Andy Simmonett
                          and Daniel G. A. Smith
                              RHF Reference
                       32 Threads,  30517 MiB Core
         ---------------------------------------------------------

  ==> Geometry <==

    Molecular point group: c1
    Full point group: C1

    Geometry (in Angstrom), charge = 0, multiplicity = 1:

       Center              X                  Y                   Z               Mass       
    ------------   -----------------  -----------------  -----------------  -----------------
         I           -1.770329493786     0.003825965716    -0.002809659167   126.904471900000
         C            2.310655506214    -1.294634834284     0.062087840833    12.000000000000
         C            2.425191506214     1.228249965716    -0.017969659167    12.000000000000
         C            3.107344506214     0.003829965716    -0.024508659167    12.000000000000
         C            1.022654506214    -1.214823034284    -0.008256659167    12.000000000000
         C            1.022649506214     1.222477965716    -0.008730659167    12.000000000000
         C            0.338132506214     0.003832965716    -0.002855659167    12.000000000000
         C            3.180654506214    -2.525974034284     0.011948340833    12.000000000000
         C            3.180603506214     2.533670965716     0.010973340833    12.000000000000
         H            4.197010506214     0.003822965716    -0.038174659167     1.007825032230
         H            0.473359506214    -2.153078034284    -0.009488659167     1.007825032230
         H            0.473359506214     2.160736965716    -0.010328659167     1.007825032230
         H            4.144928506214    -2.434262034284    -0.493792659167     1.007825032230
         H            2.614325506214    -3.322326034284    -0.476770659167     1.007825032230
         H            3.373639506214    -2.839244034284     1.043038340833     1.007825032230
         H            2.614938506214     3.329428965716    -0.479485659167     1.007825032230
         H            3.372126506214     2.848182965716     1.041957340833     1.007825032230
         H            4.145580506214     2.441375965716    -0.493309659167     1.007825032230

  Running in c1 symmetry.

  Rotational constants: A =      0.05801  B =      0.01669  C =      0.01302 [cm^-1]
  Rotational constants: A =   1738.98093  B =    500.24683  C =    390.41063 [MHz]
  Nuclear repulsion =  524.449676817877162

  Charge       = 0
  Multiplicity = 1
  Electrons    = 82
  Nalpha       = 41
  Nbeta        = 41

  ==> Algorithm <==

  SCF Algorithm Type is DF.
  DIIS enabled.
  MOM disabled.
  Fractional occupation disabled.
  Guess Type is SAD.
  Energy threshold   = 1.00e-10
  Density threshold  = 1.00e-10
  Integral threshold = 1.00e-12

  ==> Primary Basis <==

  Basis Set: AUG-CC-PVTZ
    Blend: AUG-CC-PVTZ
    Number of shells: 210
    Number of basis functions: 630
    Number of Cartesian functions: 730
    Spherical Harmonics?: true
    Max angular momentum: 3

  Core potential: AUG-CC-PVTZ
    Number of shells: 5
    Number of ECP primitives: 16
    Number of ECP core electrons: 28
    Max angular momentum: 4

   => Loading Basis Set <=

    Name: (AUG-CC-PVTZ AUX)
    Role: JKFIT
    Keyword: DF_BASIS_SCF
    atoms 1     entry I          line  4980 file /home1/07844/xy3866/miniconda3/envs/p4env/share/psi4/basis/def2-universal-jkfit.gbs 
    atoms 2-9   entry C          line   162 file /home1/07844/xy3866/miniconda3/envs/p4env/share/psi4/basis/aug-cc-pvtz-jkfit.gbs 
    atoms 10-18 entry H          line    70 file /home1/07844/xy3866/miniconda3/envs/p4env/share/psi4/basis/aug-cc-pvtz-jkfit.gbs 

  ==> Integral Setup <==

  DFHelper Memory: AOs need 4.236 GiB; user supplied 22.352 GiB. Using in-core AOs.

  ==> MemDFJK: Density-Fitted J/K Matrices <==

    J tasked:                   Yes
    K tasked:                   Yes
    wK tasked:                   No
    OpenMP threads:              32
    Memory [MiB]:             22888
    Algorithm:                 Core
    Schwarz Cutoff:           1E-12
    Mask sparsity (%):       6.9725
    Fitting Condition:        1E-10

   => Auxiliary Basis Set <=

  Basis Set: (AUG-CC-PVTZ AUX)
    Blend: AUG-CC-PVTZ-JKFIT + DEF2-UNIVERSAL-JKFIT
    Number of shells: 412
    Number of basis functions: 1464
    Number of Cartesian functions: 1852
    Spherical Harmonics?: true
    Max angular momentum: 5

  Minimum eigenvalue in the overlap matrix is 7.0005205081E-07.
  Reciprocal condition number of the overlap matrix is 3.6835299266E-08.
    Using symmetric orthogonalization.

  ==> Pre-Iterations <==

  SCF Guess: Superposition of Atomic Densities via on-the-fly atomic UHF (no occupation information).

   -------------------------
    Irrep   Nso     Nmo    
   -------------------------
     A        630     630 
   -------------------------
    Total     630     630
   -------------------------

  ==> Iterations <==

                           Total Energy        Delta E     RMS |[F,P]|

   @DF-RHF iter SAD:  -599.92253437520981   -5.99923e+02   0.00000e+00 
   @DF-RHF iter   1:  -602.43277673438763   -2.51024e+00   1.47242e-03 DIIS
   @DF-RHF iter   2:  -602.84897827310317   -4.16202e-01   7.08869e-04 DIIS
   @DF-RHF iter   3:  -602.92203053393894   -7.30523e-02   1.56345e-04 DIIS
   @DF-RHF iter   4:  -602.92721237466105   -5.18184e-03   8.50311e-05 DIIS
   @DF-RHF iter   5:  -602.92892245956341   -1.71008e-03   1.05537e-05 DIIS
   @DF-RHF iter   6:  -602.92898237446286   -5.99149e-05   3.22427e-06 DIIS
   @DF-RHF iter   7:  -602.92898860508944   -6.23063e-06   1.57473e-06 DIIS
   @DF-RHF iter   8:  -602.92899099794840   -2.39286e-06   7.16857e-07 DIIS
   @DF-RHF iter   9:  -602.92899173585772   -7.37909e-07   3.08868e-07 DIIS
   @DF-RHF iter  10:  -602.92899183774705   -1.01889e-07   1.12495e-07 DIIS
   @DF-RHF iter  11:  -602.92899184669272   -8.94568e-09   4.20857e-08 DIIS
   @DF-RHF iter  12:  -602.92899184770351   -1.01079e-09   1.66136e-08 DIIS
   @DF-RHF iter  13:  -602.92899184794760   -2.44086e-10   7.88086e-09 DIIS
   @DF-RHF iter  14:  -602.92899184799671   -4.91127e-11   3.28993e-09 DIIS
   @DF-RHF iter  15:  -602.92899184800899   -1.22782e-11   1.35905e-09 DIIS
   @DF-RHF iter  16:  -602.92899184801195   -2.95586e-12   7.46051e-10 DIIS
   @DF-RHF iter  17:  -602.92899184801115    7.95808e-13   2.72206e-10 DIIS
   @DF-RHF iter  18:  -602.92899184801126   -1.13687e-13   8.22264e-11 DIIS
  Energy and wave function converged.


  ==> Post-Iterations <==

    Orbital Energies [Eh]
    ---------------------

    Doubly Occupied:                                                      

       1A    -11.290817     2A    -11.253455     3A    -11.253056  
       4A    -11.245732     5A    -11.244979     6A    -11.232548  
       7A    -11.230988     8A    -11.229954     9A     -7.718008  
      10A     -5.549727    11A     -5.540113    12A     -5.540093  
      13A     -2.279395    14A     -2.274460    15A     -2.274412  
      16A     -2.263738    17A     -2.263732    18A     -1.169104  
      19A     -1.075945    20A     -1.039501    21A     -0.947881  
      22A     -0.940557    23A     -0.896038    24A     -0.800160  
      25A     -0.779027    26A     -0.688361    27A     -0.657745  
      28A     -0.598675    29A     -0.587211    30A     -0.581639  
      31A     -0.576552    32A     -0.559330    33A     -0.549048  
      34A     -0.540273    35A     -0.500829    36A     -0.467885  
      37A     -0.456557    38A     -0.387410    39A     -0.367983  
      40A     -0.348512    41A     -0.308440  

    Virtual:                                                              

      42A      0.026342    43A      0.030585    44A      0.037897  
      45A      0.040350    46A      0.048099    47A      0.049579  
      48A      0.052523    49A      0.061345    50A      0.071408  
      51A      0.071671    52A      0.079885    53A      0.086672  
      54A      0.102140    55A      0.104020    56A      0.106508  
      57A      0.108463    58A      0.110838    59A      0.119217  
      60A      0.125258    61A      0.127813    62A      0.130882  
      63A      0.132973    64A      0.134348    65A      0.137541  
      66A      0.142675    67A      0.143345    68A      0.145253  
      69A      0.151926    70A      0.156870    71A      0.157173  
      72A      0.163058    73A      0.164881    74A      0.172025  
      75A      0.174505    76A      0.181560    77A      0.187560  
      78A      0.193181    79A      0.204392    80A      0.206440  
      81A      0.215142    82A      0.224275    83A      0.230072  
      84A      0.233542    85A      0.244704    86A      0.251976  
      87A      0.254941    88A      0.262594    89A      0.265195  
      90A      0.270062    91A      0.273534    92A      0.277429  
      93A      0.281480    94A      0.288979    95A      0.293546  
      96A      0.297758    97A      0.306438    98A      0.311461  
      99A      0.315972   100A      0.319934   101A      0.322634  
     102A      0.327166   103A      0.329485   104A      0.332666  
     105A      0.343463   106A      0.345810   107A      0.351708  
     108A      0.354805   109A      0.364624   110A      0.367318  
     111A      0.382545   112A      0.383585   113A      0.385071  
     114A      0.387806   115A      0.390498   116A      0.398970  
     117A      0.400378   118A      0.409927   119A      0.412239  
     120A      0.419979   121A      0.420518   122A      0.421093  
     123A      0.423995   124A      0.425086   125A      0.432116  
     126A      0.437533   127A      0.448801   128A      0.457236  
     129A      0.458740   130A      0.461643   131A      0.467701  
     132A      0.472237   133A      0.476140   134A      0.480457  
     135A      0.483836   136A      0.487114   137A      0.489073  
     138A      0.492961   139A      0.497841   140A      0.505128  
     141A      0.508506   142A      0.512674   143A      0.516287  
     144A      0.520128   145A      0.529572   146A      0.536794  
     147A      0.543086   148A      0.545785   149A      0.551968  
     150A      0.556188   151A      0.556502   152A      0.559552  
     153A      0.566061   154A      0.567758   155A      0.574604  
     156A      0.576425   157A      0.589748   158A      0.593307  
     159A      0.596848   160A      0.603344   161A      0.613036  
     162A      0.619537   163A      0.621532   164A      0.628603  
     165A      0.631095   166A      0.645345   167A      0.651276  
     168A      0.657992   169A      0.681460   170A      0.689126  
     171A      0.692255   172A      0.697667   173A      0.705599  
     174A      0.712075   175A      0.714755   176A      0.720823  
     177A      0.724581   178A      0.731607   179A      0.737621  
     180A      0.753542   181A      0.756570   182A      0.767101  
     183A      0.780547   184A      0.785002   185A      0.799246  
     186A      0.805016   187A      0.805874   188A      0.815433  
     189A      0.819471   190A      0.828688   191A      0.841484  
     192A      0.844584   193A      0.845161   194A      0.854630  
     195A      0.855613   196A      0.862694   197A      0.866941  
     198A      0.870735   199A      0.880291   200A      0.886148  
     201A      0.890698   202A      0.894772   203A      0.904688  
     204A      0.908162   205A      0.909882   206A      0.913601  
     207A      0.927960   208A      0.928988   209A      0.934041  
     210A      0.943437   211A      0.945425   212A      0.947608  
     213A      0.957448   214A      0.961915   215A      0.968262  
     216A      0.975130   217A      0.978392   218A      0.985810  
     219A      0.989060   220A      0.990173   221A      0.996857  
     222A      1.001057   223A      1.002718   224A      1.007445  
     225A      1.010017   226A      1.019710   227A      1.028216  
     228A      1.036528   229A      1.039404   230A      1.042556  
     231A      1.049796   232A      1.060326   233A      1.063197  
     234A      1.068086   235A      1.072672   236A      1.081601  
     237A      1.096305   238A      1.098371   239A      1.100724  
     240A      1.106781   241A      1.112300   242A      1.118161  
     243A      1.126505   244A      1.135843   245A      1.141872  
     246A      1.147100   247A      1.154224   248A      1.161839  
     249A      1.167052   250A      1.168774   251A      1.179186  
     252A      1.190470   253A      1.196277   254A      1.200138  
     255A      1.210964   256A      1.211818   257A      1.213715  
     258A      1.222100   259A      1.227089   260A      1.232699  
     261A      1.237851   262A      1.243638   263A      1.246503  
     264A      1.255735   265A      1.269932   266A      1.281213  
     267A      1.282351   268A      1.295064   269A      1.302480  
     270A      1.306829   271A      1.321682   272A      1.332683  
     273A      1.336003   274A      1.346271   275A      1.354546  
     276A      1.363688   277A      1.375025   278A      1.379565  
     279A      1.387203   280A      1.395526   281A      1.404459  
     282A      1.415248   283A      1.421640   284A      1.441405  
     285A      1.442922   286A      1.448269   287A      1.456032  
     288A      1.470972   289A      1.475668   290A      1.485127  
     291A      1.499606   292A      1.507796   293A      1.520717  
     294A      1.525185   295A      1.534823   296A      1.536856  
     297A      1.541917   298A      1.549167   299A      1.559064  
     300A      1.561994   301A      1.584008   302A      1.597227  
     303A      1.607201   304A      1.612262   305A      1.620717  
     306A      1.630331   307A      1.632376   308A      1.650229  
     309A      1.652068   310A      1.661317   311A      1.667009  
     312A      1.675556   313A      1.683313   314A      1.693459  
     315A      1.700772   316A      1.708706   317A      1.720297  
     318A      1.728441   319A      1.733076   320A      1.745359  
     321A      1.749969   322A      1.754083   323A      1.757352  
     324A      1.768197   325A      1.781202   326A      1.785089  
     327A      1.793241   328A      1.801074   329A      1.808003  
     330A      1.824491   331A      1.830314   332A      1.842984  
     333A      1.846691   334A      1.852191   335A      1.854675  
     336A      1.865185   337A      1.876714   338A      1.885592  
     339A      1.893702   340A      1.900092   341A      1.907309  
     342A      1.911891   343A      1.922176   344A      1.934201  
     345A      1.947380   346A      1.955333   347A      1.964813  
     348A      1.971744   349A      1.978632   350A      1.990682  
     351A      2.004690   352A      2.016157   353A      2.022971  
     354A      2.032176   355A      2.036155   356A      2.052380  
     357A      2.056898   358A      2.066828   359A      2.074956  
     360A      2.086287   361A      2.093133   362A      2.103110  
     363A      2.112872   364A      2.124872   365A      2.134212  
     366A      2.149185   367A      2.152788   368A      2.158973  
     369A      2.170594   370A      2.201485   371A      2.203255  
     372A      2.212517   373A      2.219620   374A      2.225963  
     375A      2.237770   376A      2.241135   377A      2.246626  
     378A      2.259788   379A      2.269108   380A      2.279303  
     381A      2.299058   382A      2.307854   383A      2.321304  
     384A      2.324535   385A      2.334030   386A      2.361441  
     387A      2.369149   388A      2.375224   389A      2.393799  
     390A      2.418819   391A      2.426535   392A      2.438915  
     393A      2.465848   394A      2.475753   395A      2.495659  
     396A      2.518406   397A      2.524810   398A      2.540826  
     399A      2.567851   400A      2.587223   401A      2.623426  
     402A      2.639349   403A      2.660331   404A      2.692533  
     405A      2.709846   406A      2.744254   407A      2.782243  
     408A      2.803076   409A      2.832290   410A      2.875191  
     411A      2.930796   412A      2.949622   413A      3.051100  
     414A      3.096690   415A      3.115787   416A      3.149343  
     417A      3.172203   418A      3.184593   419A      3.227753  
     420A      3.246043   421A      3.269307   422A      3.273555  
     423A      3.300713   424A      3.320342   425A      3.328378  
     426A      3.343951   427A      3.356924   428A      3.378226  
     429A      3.406567   430A      3.410442   431A      3.435492  
     432A      3.444500   433A      3.477695   434A      3.480530  
     435A      3.488858   436A      3.499000   437A      3.507611  
     438A      3.510122   439A      3.530608   440A      3.545885  
     441A      3.552998   442A      3.558267   443A      3.569049  
     444A      3.573119   445A      3.606827   446A      3.612420  
     447A      3.622783   448A      3.635520   449A      3.638362  
     450A      3.643219   451A      3.668190   452A      3.679282  
     453A      3.687899   454A      3.695538   455A      3.702885  
     456A      3.718098   457A      3.728562   458A      3.738220  
     459A      3.750648   460A      3.758661   461A      3.770332  
     462A      3.777729   463A      3.793844   464A      3.806980  
     465A      3.824757   466A      3.842283   467A      3.847814  
     468A      3.853028   469A      3.876719   470A      3.892506  
     471A      3.899296   472A      3.907124   473A      3.916134  
     474A      3.921657   475A      3.927792   476A      3.950984  
     477A      3.966552   478A      3.975704   479A      3.981128  
     480A      3.987848   481A      3.988541   482A      3.996941  
     483A      4.003122   484A      4.015141   485A      4.027851  
     486A      4.044148   487A      4.049281   488A      4.069653  
     489A      4.078810   490A      4.093060   491A      4.107338  
     492A      4.111609   493A      4.120408   494A      4.131064  
     495A      4.159359   496A      4.173893   497A      4.176160  
     498A      4.184700   499A      4.197251   500A      4.211105  
     501A      4.225336   502A      4.229902   503A      4.239624  
     504A      4.247703   505A      4.263998   506A      4.286662  
     507A      4.302447   508A      4.318012   509A      4.320760  
     510A      4.347991   511A      4.365698   512A      4.372511  
     513A      4.380579   514A      4.388479   515A      4.405128  
     516A      4.413977   517A      4.424978   518A      4.441839  
     519A      4.457111   520A      4.475781   521A      4.479387  
     522A      4.489651   523A      4.497773   524A      4.526976  
     525A      4.533965   526A      4.543633   527A      4.564401  
     528A      4.577833   529A      4.590893   530A      4.616967  
     531A      4.625566   532A      4.639031   533A      4.678822  
     534A      4.681840   535A      4.691714   536A      4.702285  
     537A      4.727527   538A      4.732957   539A      4.767618  
     540A      4.768469   541A      4.781222   542A      4.796558  
     543A      4.812115   544A      4.825347   545A      4.831954  
     546A      4.836551   547A      4.863812   548A      4.883117  
     549A      4.890600   550A      4.901557   551A      4.927597  
     552A      4.933874   553A      4.955128   554A      4.976430  
     555A      4.994396   556A      5.017297   557A      5.042449  
     558A      5.086353   559A      5.090229   560A      5.109525  
     561A      5.119472   562A      5.123009   563A      5.154640  
     564A      5.175213   565A      5.185231   566A      5.204133  
     567A      5.218750   568A      5.235814   569A      5.246646  
     570A      5.259416   571A      5.284664   572A      5.294014  
     573A      5.303601   574A      5.329173   575A      5.358344  
     576A      5.388514   577A      5.425899   578A      5.439691  
     579A      5.454401   580A      5.459691   581A      5.498439  
     582A      5.525817   583A      5.545798   584A      5.568217  
     585A      5.592177   586A      5.611314   587A      5.629771  
     588A      5.662225   589A      5.691831   590A      5.716398  
     591A      5.732917   592A      5.787020   593A      5.789200  
     594A      5.820148   595A      5.831128   596A      5.840229  
     597A      5.878961   598A      5.945890   599A      6.054853  
     600A      6.093720   601A      6.137097   602A      6.163489  
     603A      6.165436   604A      6.206529   605A      6.237217  
     606A      6.261368   607A      6.324311   608A      6.335963  
     609A      6.401729   610A      6.422115   611A      6.451038  
     612A      6.692728   613A      6.723513   614A      6.762003  
     615A      6.773301   616A      6.797603   617A      6.801918  
     618A      6.845452   619A      6.868971   620A      6.992883  
     621A     12.183599   622A     15.740737   623A     17.032336  
     624A     17.891936   625A     18.735581   626A     19.100871  
     627A     19.736654   628A     20.040836   629A     20.696181  
     630A     59.095018  

    Final Occupation by Irrep:
              A 
    DOCC [    41 ]

  @DF-RHF Final Energy:  -602.92899184801126

   => Energetics <=

    Nuclear Repulsion Energy =            524.4496768178771617
    One-Electron Energy =               -1971.7375948380083628
    Two-Electron Energy =                 844.3589261721199364
    Total Energy =                       -602.9289918480112647

Computation Completed

*** tstop() called on c418-093.stampede2.tacc.utexas.edu at Sun Mar  7 08:42:31 2021
Module time:
	user time   =    1148.90 seconds =      19.15 minutes
	system time =      45.37 seconds =       0.76 minutes
	total time  =         79 seconds =       1.32 minutes
Total time:
	user time   =    1148.90 seconds =      19.15 minutes
	system time =      45.37 seconds =       0.76 minutes
	total time  =         79 seconds =       1.32 minutes
   => Loading Basis Set <=

    Name: (AUG-CC-PVTZ AUX)
    Role: RIFIT
    Keyword: DF_BASIS_MP2
    atoms 1     entry I          line  4948 file /home1/07844/xy3866/miniconda3/envs/p4env/share/psi4/basis/def2-qzvpp-ri.gbs 
    atoms 2-9   entry C          line   148 file /home1/07844/xy3866/miniconda3/envs/p4env/share/psi4/basis/aug-cc-pvtz-ri.gbs 
    atoms 10-18 entry H          line    30 file /home1/07844/xy3866/miniconda3/envs/p4env/share/psi4/basis/aug-cc-pvtz-ri.gbs 


*** tstart() called on c418-093.stampede2.tacc.utexas.edu
*** at Sun Mar  7 08:42:32 2021


  //>>>>>>>>>>>>>>>>>>>>>>>>>>>>>>>>>>>//
  //               DFMP2               //
  //<<<<<<<<<<<<<<<<<<<<<<<<<<<<<<<<<<<//

	 --------------------------------------------------------
	                          DF-MP2                         
	      2nd-Order Density-Fitted Moller-Plesset Theory     
	              RMP2 Wavefunction,  32 Threads             
	                                                         
	        Rob Parrish, Justin Turney, Andy Simmonett,      
	           Ed Hohenstein, and C. David Sherrill          
	 --------------------------------------------------------

   => Auxiliary Basis Set <=

  Basis Set: (AUG-CC-PVTZ AUX)
    Blend: AUG-CC-PVTZ-RI + DEF2-QZVPP-RI
    Number of shells: 400
    Number of basis functions: 1538
    Number of Cartesian functions: 2008
    Spherical Harmonics?: true
    Max angular momentum: 6

	 --------------------------------------------------------
	                 NBF =   630, NAUX =  1538
	 --------------------------------------------------------
	   CLASS    FOCC     OCC    AOCC    AVIR     VIR    FVIR
	   PAIRS       0      41      41     589     589       0
	 --------------------------------------------------------

  DFHelper Memory: AOs need 4.361 GiB; user supplied 22.352 GiB. Using in-core AOs.


         ------------------------------------------------------------
                                     CPHF                           
                                  Rob Parrish                       
         ------------------------------------------------------------

  ==> Geometry <==

    Molecular point group: c1
    Full point group: C1

    Geometry (in Angstrom), charge = 0, multiplicity = 1:

       Center              X                  Y                   Z               Mass       
    ------------   -----------------  -----------------  -----------------  -----------------
         I           -1.770329493786     0.003825965716    -0.002809659167   126.904471900000
         C            2.310655506214    -1.294634834284     0.062087840833    12.000000000000
         C            2.425191506214     1.228249965716    -0.017969659167    12.000000000000
         C            3.107344506214     0.003829965716    -0.024508659167    12.000000000000
         C            1.022654506214    -1.214823034284    -0.008256659167    12.000000000000
         C            1.022649506214     1.222477965716    -0.008730659167    12.000000000000
         C            0.338132506214     0.003832965716    -0.002855659167    12.000000000000
         C            3.180654506214    -2.525974034284     0.011948340833    12.000000000000
         C            3.180603506214     2.533670965716     0.010973340833    12.000000000000
         H            4.197010506214     0.003822965716    -0.038174659167     1.007825032230
         H            0.473359506214    -2.153078034284    -0.009488659167     1.007825032230
         H            0.473359506214     2.160736965716    -0.010328659167     1.007825032230
         H            4.144928506214    -2.434262034284    -0.493792659167     1.007825032230
         H            2.614325506214    -3.322326034284    -0.476770659167     1.007825032230
         H            3.373639506214    -2.839244034284     1.043038340833     1.007825032230
         H            2.614938506214     3.329428965716    -0.479485659167     1.007825032230
         H            3.372126506214     2.848182965716     1.041957340833     1.007825032230
         H            4.145580506214     2.441375965716    -0.493309659167     1.007825032230

  Nuclear repulsion =  524.449676817877275
  Reference energy  = -602.928991848011265

  ==> Basis Set <==

  Basis Set: AUG-CC-PVTZ
    Blend: AUG-CC-PVTZ
    Number of shells: 210
    Number of basis functions: 630
    Number of Cartesian functions: 730
    Spherical Harmonics?: true
    Max angular momentum: 3

  Core potential: AUG-CC-PVTZ
    Number of shells: 5
    Number of ECP primitives: 16
    Number of ECP core electrons: 28
    Max angular momentum: 4

  ==> CGRSolver (by Rob Parrish) <==

   Number of roots    =         1
   Preconditioning    =    JACOBI
   Convergence cutoff =     1E-06
   Maximum iterations =       100

  ==> CPHFRHamiltonian (by Rob Parrish) <== 

  ==> MemDFJK: Density-Fitted J/K Matrices <==

    J tasked:                   Yes
    K tasked:                   Yes
    wK tasked:                   No
    OpenMP threads:              32
    Memory [MiB]:             22888
    Algorithm:                 Core
    Schwarz Cutoff:           1E-12
    Mask sparsity (%):       4.0655
    Fitting Condition:        1E-10

   => Auxiliary Basis Set <=

  Basis Set: (AUG-CC-PVTZ AUX)
    Blend: AUG-CC-PVTZ-JKFIT + DEF2-UNIVERSAL-JKFIT
    Number of shells: 412
    Number of basis functions: 1464
    Number of Cartesian functions: 1852
    Spherical Harmonics?: true
    Max angular momentum: 5

  ==> CPHF Iterations <==

  => Iterations <=

             Iter  Converged  Remaining    Residual
  CGR           1          0          1   1.058E-01
  CGR           2          0          1   3.161E-02
  CGR           3          0          1   1.725E-02
  CGR           4          0          1   8.365E-03
  CGR           5          0          1   2.791E-03
  CGR           6          0          1   9.849E-04
  CGR           7          0          1   3.348E-04
  CGR           8          0          1   1.600E-04
  CGR           9          0          1   6.532E-05
  CGR          10          0          1   3.010E-05
  CGR          11          0          1   1.556E-05
  CGR          12          0          1   4.641E-06
  CGR          13          0          1   1.739E-06
  CGR          14          1          0   4.588E-07

    CGRSolver converged.

	-----------------------------------------------------------
	 ==================> DF-MP2 Energies <==================== 
	-----------------------------------------------------------
	 Reference Energy          =    -602.9289918480112647 [Eh]
	 Singles Energy            =      -0.0000000000000000 [Eh]
	 Same-Spin Energy          =      -0.4253779488828372 [Eh]
	 Opposite-Spin Energy      =      -1.3012578351902735 [Eh]
	 Correlation Energy        =      -1.7266357840731108 [Eh]
	 Total Energy              =    -604.6556276320843608 [Eh]
	-----------------------------------------------------------
	 ================> DF-SCS-MP2 Energies <================== 
	-----------------------------------------------------------
	 SCS Same-Spin Scale       =       0.3333333333333333 [-]
	 SCS Opposite-Spin Scale   =       1.2000000000000000 [-]
	 SCS Same-Spin Energy      =      -0.1417926496276124 [Eh]
	 SCS Opposite-Spin Energy  =      -1.5615094022283282 [Eh]
	 SCS Correlation Energy    =      -1.7033020518559405 [Eh]
	 SCS Total Energy          =    -604.6322938998672498 [Eh]
	-----------------------------------------------------------



Properties will be evaluated at   0.000000,  -0.000000,  -0.000000 [a0]

Properties computed using the MP2 density matrix

  Nuclear Dipole Moment: [e a0]
     X:   152.4600      Y:    -0.2455      Z:     0.2826

  Electronic Dipole Moment: [e a0]
     X:  -151.6065      Y:     0.2395      Z:    -0.2618

  Dipole Moment: [e a0]
     X:     0.8535      Y:    -0.0060      Z:     0.0208     Total:     0.8538

  Dipole Moment: [D]
     X:     2.1694      Y:    -0.0153      Z:     0.0529     Total:     2.1701


*** tstop() called on c418-093.stampede2.tacc.utexas.edu at Sun Mar  7 08:47:56 2021
Module time:
	user time   =    2105.27 seconds =      35.09 minutes
	system time =      67.91 seconds =       1.13 minutes
	total time  =        324 seconds =       5.40 minutes
Total time:
	user time   =    3255.18 seconds =      54.25 minutes
	system time =     113.31 seconds =       1.89 minutes
	total time  =        404 seconds =       6.73 minutes

    Psi4 stopped on: Sunday, 07 March 2021 08:47AM
    Psi4 wall time for execution: 0:06:44.87

*** Psi4 exiting successfully. Buy a developer a beer!
