
    -----------------------------------------------------------------------
          Psi4: An Open-Source Ab Initio Electronic Structure Package
                               Psi4 1.3.2 release

                         Git: Rev {HEAD} ecbda83 


    R. M. Parrish, L. A. Burns, D. G. A. Smith, A. C. Simmonett,
    A. E. DePrince III, E. G. Hohenstein, U. Bozkaya, A. Yu. Sokolov,
    R. Di Remigio, R. M. Richard, J. F. Gonthier, A. M. James,
    H. R. McAlexander, A. Kumar, M. Saitow, X. Wang, B. P. Pritchard,
    P. Verma, H. F. Schaefer III, K. Patkowski, R. A. King, E. F. Valeev,
    F. A. Evangelista, J. M. Turney, T. D. Crawford, and C. D. Sherrill,
    J. Chem. Theory Comput. 13(7) pp 3185--3197 (2017).
    (doi: 10.1021/acs.jctc.7b00174)


                         Additional Contributions by
    P. Kraus, H. Kruse, M. H. Lechner, M. C. Schieber, R. A. Shaw,
    A. Alenaizan, R. Galvelis, Z. L. Glick, S. Lehtola, and J. P. Misiewicz

    -----------------------------------------------------------------------


    Psi4 started on: Wednesday, 04 November 2020 07:24AM

    Process ID: 34760
    Host:       node100.bme.utexas.edu
    PSIDATADIR: /home/xy3866/psi4conda/share/psi4
    Memory:     500.0 MiB
    Threads:    8
    
  ==> Input File <==

--------------------------------------------------------------------------
#psi4
#
memory 32 gb

molecule  {
-1 1
  O        1.3719500     1.0365520     0.0001530
  O        1.2789971    -1.2178524     0.0002459
  O       -1.5132940    -1.0592330    -0.0003040
  O       -1.2763200     1.2290260    -0.0002110
  C        0.6716220    -0.1528200    -0.0001790
  C       -0.8948800     0.0328190     0.0003190
  H        2.3009280     0.7259580     0.0001900
units angstrom
no_reorient  #important for SAPT in psi4, default
symmetry c1  #important for SAPT in psi4, default
}

set PROPERTIES_ORIGIN ["COM"]
properties('MP2/aug-cc-pvtz', properties = ['dipole'])
--------------------------------------------------------------------------

  Memory set to  29.802 GiB by Python driver.
    SCF Algorithm Type (re)set to DF.

*** tstart() called on node100.bme.utexas.edu
*** at Wed Nov  4 07:24:59 2020

   => Loading Basis Set <=

    Name: AUG-CC-PVTZ
    Role: ORBITAL
    Keyword: BASIS
    atoms 1-4 entry O          line   327 file /home/xy3866/psi4conda/share/psi4/basis/aug-cc-pvtz.gbs 
    atoms 5-6 entry C          line   235 file /home/xy3866/psi4conda/share/psi4/basis/aug-cc-pvtz.gbs 
    atoms 7   entry H          line    36 file /home/xy3866/psi4conda/share/psi4/basis/aug-cc-pvtz.gbs 


         ---------------------------------------------------------
                                   SCF
               by Justin Turney, Rob Parrish, Andy Simmonett
                          and Daniel G. A. Smith
                              RHF Reference
                        8 Threads,  30517 MiB Core
         ---------------------------------------------------------

  ==> Geometry <==

    Molecular point group: c1
    Full point group: C1

    Geometry (in Angstrom), charge = -1, multiplicity = 1:

       Center              X                  Y                   Z               Mass       
    ------------   -----------------  -----------------  -----------------  -----------------
         O            1.400921809165     1.046580750118     0.000152837312    15.994914619570
         O            1.307968909165    -1.207823649882     0.000245737312    15.994914619570
         O           -1.484322190835    -1.049204249882    -0.000304162688    15.994914619570
         O           -1.247348190835     1.239054750118    -0.000211162688    15.994914619570
         C            0.700593809165    -0.142791249882    -0.000179162688    12.000000000000
         C           -0.865908190835     0.042847750118     0.000318837312    12.000000000000
         H            2.329899809165     0.735986750118     0.000189837312     1.007825032230

  Running in c1 symmetry.

  Rotational constants: A =      0.20120  B =      0.12103  C =      0.07557 [cm^-1]
  Rotational constants: A =   6031.69484  B =   3628.43234  C =   2265.55996 [MHz]
  Nuclear repulsion =  218.192661433035056

  Charge       = -1
  Multiplicity = 1
  Electrons    = 46
  Nalpha       = 23
  Nbeta        = 23

  ==> Algorithm <==

  SCF Algorithm Type is DF.
  DIIS enabled.
  MOM disabled.
  Fractional occupation disabled.
  Guess Type is SAD.
  Energy threshold   = 1.00e-10
  Density threshold  = 1.00e-10
  Integral threshold = 0.00e+00

  ==> Primary Basis <==

  Basis Set: AUG-CC-PVTZ
    Blend: AUG-CC-PVTZ
    Number of shells: 93
    Number of basis function: 299
    Number of Cartesian functions: 355
    Spherical Harmonics?: true
    Max angular momentum: 3

   => Loading Basis Set <=

    Name: (AUG-CC-PVTZ AUX)
    Role: JKFIT
    Keyword: DF_BASIS_SCF
    atoms 1-4 entry O          line   286 file /home/xy3866/psi4conda/share/psi4/basis/aug-cc-pvtz-jkfit.gbs 
    atoms 5-6 entry C          line   162 file /home/xy3866/psi4conda/share/psi4/basis/aug-cc-pvtz-jkfit.gbs 
    atoms 7   entry H          line    70 file /home/xy3866/psi4conda/share/psi4/basis/aug-cc-pvtz-jkfit.gbs 

  ==> Pre-Iterations <==

   -------------------------------------------------------
    Irrep   Nso     Nmo     Nalpha   Nbeta   Ndocc  Nsocc
   -------------------------------------------------------
     A        299     299       0       0       0       0
   -------------------------------------------------------
    Total     299     299      23      23      23       0
   -------------------------------------------------------

  ==> Integral Setup <==

  DFHelper Memory: AOs need 0.466 GiB; user supplied 22.352 GiB. Using in-core AOs.

  ==> MemDFJK: Density-Fitted J/K Matrices <==

    J tasked:                   Yes
    K tasked:                   Yes
    wK tasked:                   No
    OpenMP threads:               8
    Memory [MiB]:             22888
    Algorithm:                 Core
    Schwarz Cutoff:           1E-12
    Mask sparsity (%):       1.6152
    Fitting Condition:        1E-10

   => Auxiliary Basis Set <=

  Basis Set: (AUG-CC-PVTZ AUX)
    Blend: AUG-CC-PVTZ-JKFIT
    Number of shells: 194
    Number of basis function: 670
    Number of Cartesian functions: 841
    Spherical Harmonics?: true
    Max angular momentum: 4

  Minimum eigenvalue in the overlap matrix is 2.2437598222E-05.
  Using Symmetric Orthogonalization.

  SCF Guess: Superposition of Atomic Densities via on-the-fly atomic UHF.

  ==> Iterations <==

                           Total Energy        Delta E     RMS |[F,P]|

   @DF-RHF iter SAD:  -374.33389389264954   -3.74334e+02   0.00000e+00 
   @DF-RHF iter   1:  -375.72436981049168   -1.39048e+00   2.69808e-03 DIIS
   @DF-RHF iter   2:  -375.85532716547971   -1.30957e-01   1.99338e-03 DIIS
   @DF-RHF iter   3:  -375.96588153169915   -1.10554e-01   1.95864e-04 DIIS
   @DF-RHF iter   4:  -375.96780116634028   -1.91963e-03   8.89261e-05 DIIS
   @DF-RHF iter   5:  -375.96820773100433   -4.06565e-04   2.78977e-05 DIIS
   @DF-RHF iter   6:  -375.96826140125006   -5.36702e-05   1.26006e-05 DIIS
   @DF-RHF iter   7:  -375.96827640623900   -1.50050e-05   3.86693e-06 DIIS
   @DF-RHF iter   8:  -375.96827836097316   -1.95473e-06   1.99569e-06 DIIS
   @DF-RHF iter   9:  -375.96827870010395   -3.39131e-07   8.03046e-07 DIIS
   @DF-RHF iter  10:  -375.96827877014056   -7.00366e-08   2.46134e-07 DIIS
   @DF-RHF iter  11:  -375.96827877725696   -7.11640e-09   1.02304e-07 DIIS
   @DF-RHF iter  12:  -375.96827877794135   -6.84395e-10   2.58755e-08 DIIS
   @DF-RHF iter  13:  -375.96827877801428   -7.29301e-11   6.78946e-09 DIIS
   @DF-RHF iter  14:  -375.96827877801991   -5.62750e-12   2.31531e-09 DIIS
   @DF-RHF iter  15:  -375.96827877802048   -5.68434e-13   9.17935e-10 DIIS
   @DF-RHF iter  16:  -375.96827877802053   -5.68434e-14   3.94191e-10 DIIS
   @DF-RHF iter  17:  -375.96827877802082   -2.84217e-13   1.81485e-10 DIIS
   @DF-RHF iter  18:  -375.96827877802042    3.97904e-13   7.10490e-11 DIIS
  Energy and wave function converged.


  ==> Post-Iterations <==

    Orbital Energies [Eh]
    ---------------------

    Doubly Occupied:                                                      

       1A    -20.463493     2A    -20.402888     3A    -20.325797  
       4A    -20.323474     5A    -11.229316     6A    -11.176954  
       7A     -1.302126     8A     -1.199216     9A     -1.190712  
      10A     -1.099941    11A     -0.732666    12A     -0.578533  
      13A     -0.548808    14A     -0.494740    15A     -0.470960  
      16A     -0.442610    17A     -0.421453    18A     -0.376086  
      19A     -0.333225    20A     -0.328819    21A     -0.242303  
      22A     -0.229049    23A     -0.217022  

    Virtual:                                                              

      24A      0.119717    25A      0.179188    26A      0.199995  
      27A      0.203795    28A      0.223399    29A      0.224270  
      30A      0.230481    31A      0.231823    32A      0.275856  
      33A      0.276456    34A      0.290661    35A      0.297484  
      36A      0.304620    37A      0.333366    38A      0.340204  
      39A      0.355883    40A      0.361431    41A      0.376756  
      42A      0.384532    43A      0.396949    44A      0.406807  
      45A      0.412409    46A      0.425160    47A      0.437232  
      48A      0.445408    49A      0.469158    50A      0.491309  
      51A      0.499702    52A      0.510184    53A      0.524140  
      54A      0.552258    55A      0.569204    56A      0.570850  
      57A      0.583935    58A      0.604053    59A      0.618364  
      60A      0.662826    61A      0.669174    62A      0.682773  
      63A      0.703826    64A      0.722985    65A      0.728708  
      66A      0.740650    67A      0.782693    68A      0.788504  
      69A      0.798997    70A      0.830577    71A      0.840686  
      72A      0.852926    73A      0.861232    74A      0.870804  
      75A      0.893118    76A      0.931608    77A      0.940375  
      78A      0.971084    79A      0.984867    80A      0.987207  
      81A      0.998385    82A      1.005394    83A      1.026783  
      84A      1.035702    85A      1.042941    86A      1.050987  
      87A      1.055012    88A      1.082430    89A      1.089882  
      90A      1.111213    91A      1.123568    92A      1.137862  
      93A      1.140453    94A      1.165025    95A      1.175690  
      96A      1.181973    97A      1.192381    98A      1.221428  
      99A      1.232014   100A      1.250837   101A      1.274571  
     102A      1.285948   103A      1.295041   104A      1.295590  
     105A      1.374704   106A      1.375808   107A      1.385135  
     108A      1.409561   109A      1.433791   110A      1.459287  
     111A      1.482431   112A      1.483854   113A      1.534220  
     114A      1.568093   115A      1.573431   116A      1.578459  
     117A      1.581387   118A      1.619358   119A      1.647746  
     120A      1.655876   121A      1.667862   122A      1.670230  
     123A      1.708289   124A      1.722202   125A      1.763271  
     126A      1.831089   127A      1.845826   128A      1.846506  
     129A      1.876155   130A      1.884531   131A      1.916854  
     132A      1.960549   133A      1.992343   134A      2.011119  
     135A      2.041528   136A      2.110798   137A      2.123545  
     138A      2.154453   139A      2.155320   140A      2.207520  
     141A      2.266349   142A      2.313840   143A      2.354393  
     144A      2.403058   145A      2.434444   146A      2.449545  
     147A      2.464765   148A      2.489613   149A      2.525867  
     150A      2.529952   151A      2.561218   152A      2.566876  
     153A      2.584662   154A      2.599570   155A      2.600032  
     156A      2.633689   157A      2.662802   158A      2.667962  
     159A      2.682426   160A      2.695820   161A      2.728811  
     162A      2.732327   163A      2.745015   164A      2.769537  
     165A      2.787329   166A      2.798143   167A      2.819995  
     168A      2.854761   169A      2.888929   170A      2.895740  
     171A      2.910925   172A      2.931475   173A      2.950741  
     174A      2.965047   175A      3.008108   176A      3.010153  
     177A      3.051869   178A      3.076277   179A      3.078474  
     180A      3.099318   181A      3.117876   182A      3.152280  
     183A      3.174795   184A      3.228492   185A      3.237788  
     186A      3.257951   187A      3.318255   188A      3.326989  
     189A      3.344169   190A      3.411866   191A      3.426377  
     192A      3.508841   193A      3.541861   194A      3.547288  
     195A      3.577117   196A      3.643445   197A      3.712083  
     198A      3.717828   199A      3.775871   200A      3.801159  
     201A      3.891577   202A      3.909640   203A      3.947986  
     204A      3.984805   205A      4.035233   206A      4.060732  
     207A      4.064832   208A      4.097371   209A      4.098624  
     210A      4.193371   211A      4.295180   212A      4.316392  
     213A      4.362868   214A      4.412811   215A      4.437267  
     216A      4.476950   217A      4.500481   218A      4.549231  
     219A      4.567849   220A      4.604244   221A      4.615702  
     222A      4.628652   223A      4.773304   224A      4.820215  
     225A      4.887858   226A      4.892993   227A      4.924342  
     228A      5.048291   229A      5.065923   230A      5.123033  
     231A      5.194230   232A      5.208795   233A      5.318533  
     234A      5.364999   235A      5.437357   236A      5.465866  
     237A      5.489340   238A      5.586927   239A      5.696526  
     240A      5.796394   241A      6.026734   242A      6.270028  
     243A      6.431930   244A      6.569777   245A      6.702424  
     246A      6.781736   247A      6.801548   248A      6.833264  
     249A      6.861212   250A      6.909770   251A      6.924038  
     252A      6.945473   253A      6.974179   254A      7.035460  
     255A      7.054709   256A      7.091409   257A      7.107224  
     258A      7.118742   259A      7.122517   260A      7.222602  
     261A      7.242676   262A      7.243588   263A      7.312032  
     264A      7.312630   265A      7.358472   266A      7.383965  
     267A      7.396040   268A      7.403864   269A      7.415274  
     270A      7.489222   271A      7.526812   272A      7.550831  
     273A      7.561575   274A      7.595220   275A      7.627662  
     276A      7.659415   277A      7.673787   278A      7.682433  
     279A      7.749771   280A      7.760852   281A      7.811106  
     282A      7.843984   283A      7.870186   284A      7.920470  
     285A      7.925748   286A      7.971687   287A      8.059594  
     288A      8.080544   289A      8.156011   290A      8.221902  
     291A      8.274606   292A      8.426367   293A      8.607645  
     294A     14.141380   295A     14.420713   296A     15.395563  
     297A     15.847134   298A     17.345489   299A     17.924963  

    Final Occupation by Irrep:
              A 
    DOCC [    23 ]

  @DF-RHF Final Energy:  -375.96827877802042

   => Energetics <=

    Nuclear Repulsion Energy =            218.1926614330350560
    One-Electron Energy =                -960.0615010657114681
    Two-Electron Energy =                 365.9005608546560211
    Total Energy =                       -375.9682787780204194

Computation Completed

*** tstop() called on node100.bme.utexas.edu at Wed Nov  4 07:25:04 2020
Module time:
	user time   =      29.80 seconds =       0.50 minutes
	system time =       1.24 seconds =       0.02 minutes
	total time  =          5 seconds =       0.08 minutes
Total time:
	user time   =      29.80 seconds =       0.50 minutes
	system time =       1.24 seconds =       0.02 minutes
	total time  =          5 seconds =       0.08 minutes
   => Loading Basis Set <=

    Name: (AUG-CC-PVTZ AUX)
    Role: RIFIT
    Keyword: DF_BASIS_MP2
    atoms 1-4 entry O          line   264 file /home/xy3866/psi4conda/share/psi4/basis/aug-cc-pvtz-ri.gbs 
    atoms 5-6 entry C          line   148 file /home/xy3866/psi4conda/share/psi4/basis/aug-cc-pvtz-ri.gbs 
    atoms 7   entry H          line    30 file /home/xy3866/psi4conda/share/psi4/basis/aug-cc-pvtz-ri.gbs 


*** tstart() called on node100.bme.utexas.edu
*** at Wed Nov  4 07:25:04 2020


  //>>>>>>>>>>>>>>>>>>>>>>>>>>>>>>>>>>>//
  //               DFMP2               //
  //<<<<<<<<<<<<<<<<<<<<<<<<<<<<<<<<<<<//

	 --------------------------------------------------------
	                          DF-MP2                         
	      2nd-Order Density-Fitted Moller-Plesset Theory     
	              RMP2 Wavefunction,   8 Threads             
	                                                         
	        Rob Parrish, Justin Turney, Andy Simmonett,      
	           Ed Hohenstein, and C. David Sherrill          
	 --------------------------------------------------------

   => Auxiliary Basis Set <=

  Basis Set: (AUG-CC-PVTZ AUX)
    Blend: AUG-CC-PVTZ-RI
    Number of shells: 182
    Number of basis function: 682
    Number of Cartesian functions: 871
    Spherical Harmonics?: true
    Max angular momentum: 4

	 --------------------------------------------------------
	                 NBF =   299, NAUX =   682
	 --------------------------------------------------------
	   CLASS    FOCC     OCC    AOCC    AVIR     VIR    FVIR
	   PAIRS       0      23      23     276     276       0
	 --------------------------------------------------------

  DFHelper Memory: AOs need 0.466 GiB; user supplied 22.352 GiB. Using in-core AOs.


         ------------------------------------------------------------
                                     CPHF                           
                                  Rob Parrish                       
         ------------------------------------------------------------

  ==> Geometry <==

    Molecular point group: c1
    Full point group: C1

    Geometry (in Angstrom), charge = -1, multiplicity = 1:

       Center              X                  Y                   Z               Mass       
    ------------   -----------------  -----------------  -----------------  -----------------
         O            1.400921809165     1.046580750118     0.000152837312    15.994914619570
         O            1.307968909165    -1.207823649882     0.000245737312    15.994914619570
         O           -1.484322190835    -1.049204249882    -0.000304162688    15.994914619570
         O           -1.247348190835     1.239054750118    -0.000211162688    15.994914619570
         C            0.700593809165    -0.142791249882    -0.000179162688    12.000000000000
         C           -0.865908190835     0.042847750118     0.000318837312    12.000000000000
         H            2.329899809165     0.735986750118     0.000189837312     1.007825032230

  Nuclear repulsion =  218.192661433035056
  Reference energy  = -375.968278778020419

  ==> Basis Set <==

  Basis Set: AUG-CC-PVTZ
    Blend: AUG-CC-PVTZ
    Number of shells: 93
    Number of basis function: 299
    Number of Cartesian functions: 355
    Spherical Harmonics?: true
    Max angular momentum: 3

  ==> CGRSolver (by Rob Parrish) <==

   Number of roots    =         1
   Preconditioning    =    JACOBI
   Convergence cutoff =     1E-06
   Maximum iterations =       100

  ==> CPHFRHamiltonian (by Rob Parrish) <== 

  ==> MemDFJK: Density-Fitted J/K Matrices <==

    J tasked:                   Yes
    K tasked:                   Yes
    wK tasked:                   No
    OpenMP threads:               8
    Memory [MiB]:             22888
    Algorithm:                 Core
    Schwarz Cutoff:           1E-12
    Mask sparsity (%):       1.6152
    Fitting Condition:        1E-10

   => Auxiliary Basis Set <=

  Basis Set: (AUG-CC-PVTZ AUX)
    Blend: AUG-CC-PVTZ-JKFIT
    Number of shells: 194
    Number of basis function: 670
    Number of Cartesian functions: 841
    Spherical Harmonics?: true
    Max angular momentum: 4

  ==> CPHF Iterations <==

  => Iterations <=

             Iter  Converged  Remaining    Residual
  CGR           1          0          1   1.220E-01
  CGR           2          0          1   3.635E-02
  CGR           3          0          1   1.398E-02
  CGR           4          0          1   4.657E-03
  CGR           5          0          1   1.701E-03
  CGR           6          0          1   5.208E-04
  CGR           7          0          1   2.388E-04
  CGR           8          0          1   8.042E-05
  CGR           9          0          1   2.646E-05
  CGR          10          0          1   1.167E-05
  CGR          11          0          1   3.738E-06
  CGR          12          1          0   9.733E-07

    CGRSolver converged.

	-----------------------------------------------------------
	 ==================> DF-MP2 Energies <==================== 
	-----------------------------------------------------------
	 Reference Energy          =    -375.9682787780204194 [Eh]
	 Singles Energy            =      -0.0000000000000000 [Eh]
	 Same-Spin Energy          =      -0.3588033665230419 [Eh]
	 Opposite-Spin Energy      =      -1.0175459370011355 [Eh]
	 Correlation Energy        =      -1.3763493035241774 [Eh]
	 Total Energy              =    -377.3446280815446130 [Eh]
	-----------------------------------------------------------
	 ================> DF-SCS-MP2 Energies <================== 
	-----------------------------------------------------------
	 SCS Same-Spin Scale       =       0.3333333333333333 [-]
	 SCS Opposite-Spin Scale   =       1.2000000000000000 [-]
	 SCS Same-Spin Energy      =      -0.1196011221743473 [Eh]
	 SCS Opposite-Spin Energy  =      -1.2210551244013625 [Eh]
	 SCS Correlation Energy    =      -1.3406562465757099 [Eh]
	 SCS Total Energy          =    -377.3089350245961100 [Eh]
	-----------------------------------------------------------



Properties will be evaluated at  -0.000000,   0.000000,   0.000000 [a0]

Properties computed using the MP2 density matrix

  Nuclear Dipole Moment: [e a0]
     X:     2.1841      Y:     0.6901      Z:     0.0002

  Electronic Dipole Moment: [e a0]
     X:    -0.1831      Y:    -0.3918      Z:     0.0001

  Dipole Moment: [e a0]
     X:     2.0010      Y:     0.2983      Z:     0.0002     Total:     2.0232

  Dipole Moment: [D]
     X:     5.0861      Y:     0.7582      Z:     0.0006     Total:     5.1423


*** tstop() called on node100.bme.utexas.edu at Wed Nov  4 07:25:15 2020
Module time:
	user time   =      75.43 seconds =       1.26 minutes
	system time =       2.50 seconds =       0.04 minutes
	total time  =         11 seconds =       0.18 minutes
Total time:
	user time   =     105.80 seconds =       1.76 minutes
	system time =       3.77 seconds =       0.06 minutes
	total time  =         16 seconds =       0.27 minutes

    Psi4 stopped on: Wednesday, 04 November 2020 07:25AM
    Psi4 wall time for execution: 0:00:16.60

*** Psi4 exiting successfully. Buy a developer a beer!
