
    -----------------------------------------------------------------------
          Psi4: An Open-Source Ab Initio Electronic Structure Package
                               Psi4 1.3.2 release

                         Git: Rev {HEAD} ecbda83 


    R. M. Parrish, L. A. Burns, D. G. A. Smith, A. C. Simmonett,
    A. E. DePrince III, E. G. Hohenstein, U. Bozkaya, A. Yu. Sokolov,
    R. Di Remigio, R. M. Richard, J. F. Gonthier, A. M. James,
    H. R. McAlexander, A. Kumar, M. Saitow, X. Wang, B. P. Pritchard,
    P. Verma, H. F. Schaefer III, K. Patkowski, R. A. King, E. F. Valeev,
    F. A. Evangelista, J. M. Turney, T. D. Crawford, and C. D. Sherrill,
    J. Chem. Theory Comput. 13(7) pp 3185--3197 (2017).
    (doi: 10.1021/acs.jctc.7b00174)


                         Additional Contributions by
    P. Kraus, H. Kruse, M. H. Lechner, M. C. Schieber, R. A. Shaw,
    A. Alenaizan, R. Galvelis, Z. L. Glick, S. Lehtola, and J. P. Misiewicz

    -----------------------------------------------------------------------


    Psi4 started on: Wednesday, 04 November 2020 07:37AM

    Process ID: 35496
    Host:       node100.bme.utexas.edu
    PSIDATADIR: /home/xy3866/psi4conda/share/psi4
    Memory:     500.0 MiB
    Threads:    8
    
  ==> Input File <==

--------------------------------------------------------------------------
#psi4
#
memory 32 gb

molecule  {
-1 1
  O        1.3719500     1.0365520     0.0001530
  O        1.2974920    -1.2070900     0.0002320
  O       -1.5132940    -1.0592330    -0.0003040
  O       -1.2763200     1.2290260    -0.0002110
  C        0.6716220    -0.1528200    -0.0001790
  C       -0.7955749     0.0210508     0.0002874
  H        2.3009280     0.7259580     0.0001900
units angstrom
no_reorient  #important for SAPT in psi4, default
symmetry c1  #important for SAPT in psi4, default
}

set PROPERTIES_ORIGIN ["COM"]
properties('MP2/aug-cc-pvtz', properties = ['dipole'])
--------------------------------------------------------------------------

  Memory set to  29.802 GiB by Python driver.
    SCF Algorithm Type (re)set to DF.

*** tstart() called on node100.bme.utexas.edu
*** at Wed Nov  4 07:37:27 2020

   => Loading Basis Set <=

    Name: AUG-CC-PVTZ
    Role: ORBITAL
    Keyword: BASIS
    atoms 1-4 entry O          line   327 file /home/xy3866/psi4conda/share/psi4/basis/aug-cc-pvtz.gbs 
    atoms 5-6 entry C          line   235 file /home/xy3866/psi4conda/share/psi4/basis/aug-cc-pvtz.gbs 
    atoms 7   entry H          line    36 file /home/xy3866/psi4conda/share/psi4/basis/aug-cc-pvtz.gbs 


         ---------------------------------------------------------
                                   SCF
               by Justin Turney, Rob Parrish, Andy Simmonett
                          and Daniel G. A. Smith
                              RHF Reference
                        8 Threads,  30517 MiB Core
         ---------------------------------------------------------

  ==> Geometry <==

    Molecular point group: c1
    Full point group: C1

    Geometry (in Angstrom), charge = -1, multiplicity = 1:

       Center              X                  Y                   Z               Mass       
    ------------   -----------------  -----------------  -----------------  -----------------
         O            1.384206137615     1.046233226310     0.000159597019    15.994914619570
         O            1.309748137615    -1.197408773690     0.000238597019    15.994914619570
         O           -1.501037862385    -1.049551773690    -0.000297402981    15.994914619570
         O           -1.264063862385     1.238707226310    -0.000204402981    15.994914619570
         C            0.683878137615    -0.143138773690    -0.000172402981    12.000000000000
         C           -0.783318762385     0.030732026310     0.000293997019    12.000000000000
         H            2.313184137615     0.735639226310     0.000196597019     1.007825032230

  Running in c1 symmetry.

  Rotational constants: A =      0.20222  B =      0.12208  C =      0.07612 [cm^-1]
  Rotational constants: A =   6062.32735  B =   3659.75297  C =   2282.08577 [MHz]
  Nuclear repulsion =  218.394576008397451

  Charge       = -1
  Multiplicity = 1
  Electrons    = 46
  Nalpha       = 23
  Nbeta        = 23

  ==> Algorithm <==

  SCF Algorithm Type is DF.
  DIIS enabled.
  MOM disabled.
  Fractional occupation disabled.
  Guess Type is SAD.
  Energy threshold   = 1.00e-10
  Density threshold  = 1.00e-10
  Integral threshold = 0.00e+00

  ==> Primary Basis <==

  Basis Set: AUG-CC-PVTZ
    Blend: AUG-CC-PVTZ
    Number of shells: 93
    Number of basis function: 299
    Number of Cartesian functions: 355
    Spherical Harmonics?: true
    Max angular momentum: 3

   => Loading Basis Set <=

    Name: (AUG-CC-PVTZ AUX)
    Role: JKFIT
    Keyword: DF_BASIS_SCF
    atoms 1-4 entry O          line   286 file /home/xy3866/psi4conda/share/psi4/basis/aug-cc-pvtz-jkfit.gbs 
    atoms 5-6 entry C          line   162 file /home/xy3866/psi4conda/share/psi4/basis/aug-cc-pvtz-jkfit.gbs 
    atoms 7   entry H          line    70 file /home/xy3866/psi4conda/share/psi4/basis/aug-cc-pvtz-jkfit.gbs 

  ==> Pre-Iterations <==

   -------------------------------------------------------
    Irrep   Nso     Nmo     Nalpha   Nbeta   Ndocc  Nsocc
   -------------------------------------------------------
     A        299     299       0       0       0       0
   -------------------------------------------------------
    Total     299     299      23      23      23       0
   -------------------------------------------------------

  ==> Integral Setup <==

  DFHelper Memory: AOs need 0.466 GiB; user supplied 22.352 GiB. Using in-core AOs.

  ==> MemDFJK: Density-Fitted J/K Matrices <==

    J tasked:                   Yes
    K tasked:                   Yes
    wK tasked:                   No
    OpenMP threads:               8
    Memory [MiB]:             22888
    Algorithm:                 Core
    Schwarz Cutoff:           1E-12
    Mask sparsity (%):       1.6264
    Fitting Condition:        1E-10

   => Auxiliary Basis Set <=

  Basis Set: (AUG-CC-PVTZ AUX)
    Blend: AUG-CC-PVTZ-JKFIT
    Number of shells: 194
    Number of basis function: 670
    Number of Cartesian functions: 841
    Spherical Harmonics?: true
    Max angular momentum: 4

  Minimum eigenvalue in the overlap matrix is 1.5449315356E-05.
  Using Symmetric Orthogonalization.

  SCF Guess: Superposition of Atomic Densities via on-the-fly atomic UHF.

  ==> Iterations <==

                           Total Energy        Delta E     RMS |[F,P]|

   @DF-RHF iter SAD:  -374.29533075943198   -3.74295e+02   0.00000e+00 
   @DF-RHF iter   1:  -375.70178813903442   -1.40646e+00   2.70180e-03 DIIS
   @DF-RHF iter   2:  -375.82576848939846   -1.23980e-01   2.07598e-03 DIIS
   @DF-RHF iter   3:  -375.94775842873344   -1.21990e-01   2.04004e-04 DIIS
   @DF-RHF iter   4:  -375.94990256777129   -2.14414e-03   8.84919e-05 DIIS
   @DF-RHF iter   5:  -375.95034073115676   -4.38163e-04   2.83887e-05 DIIS
   @DF-RHF iter   6:  -375.95039994498705   -5.92138e-05   1.37430e-05 DIIS
   @DF-RHF iter   7:  -375.95041697807335   -1.70331e-05   4.26298e-06 DIIS
   @DF-RHF iter   8:  -375.95041935837406   -2.38030e-06   2.34502e-06 DIIS
   @DF-RHF iter   9:  -375.95041981798136   -4.59607e-07   8.78330e-07 DIIS
   @DF-RHF iter  10:  -375.95041990747956   -8.94982e-08   3.15016e-07 DIIS
   @DF-RHF iter  11:  -375.95041991805033   -1.05708e-08   1.42080e-07 DIIS
   @DF-RHF iter  12:  -375.95041991945470   -1.40437e-09   3.05635e-08 DIIS
   @DF-RHF iter  13:  -375.95041991957544   -1.20735e-10   8.44339e-09 DIIS
   @DF-RHF iter  14:  -375.95041991958345   -8.01492e-12   3.25610e-09 DIIS
   @DF-RHF iter  15:  -375.95041991958516   -1.70530e-12   1.52148e-09 DIIS
   @DF-RHF iter  16:  -375.95041991958504    1.13687e-13   7.63639e-10 DIIS
   @DF-RHF iter  17:  -375.95041991958584   -7.95808e-13   3.59421e-10 DIIS
   @DF-RHF iter  18:  -375.95041991958539    4.54747e-13   1.36130e-10 DIIS
   @DF-RHF iter  19:  -375.95041991958618   -7.95808e-13   5.54607e-11 DIIS
  Energy and wave function converged.


  ==> Post-Iterations <==

    Orbital Energies [Eh]
    ---------------------

    Doubly Occupied:                                                      

       1A    -20.470031     2A    -20.413672     3A    -20.324919  
       4A    -20.323173     5A    -11.242776     6A    -11.177998  
       7A     -1.313163     8A     -1.206633     9A     -1.168770  
      10A     -1.069343    11A     -0.772562    12A     -0.595150  
      13A     -0.557763    14A     -0.493832    15A     -0.481824  
      16A     -0.444644    17A     -0.403084    18A     -0.361631  
      19A     -0.335601    20A     -0.331062    21A     -0.245963  
      22A     -0.228873    23A     -0.203240  

    Virtual:                                                              

      24A      0.118201    25A      0.178386    26A      0.199491  
      27A      0.201793    28A      0.224423    29A      0.226384  
      30A      0.229544    31A      0.231130    32A      0.251528  
      33A      0.275334    34A      0.291061    35A      0.295937  
      36A      0.305571    37A      0.333576    38A      0.343892  
      39A      0.355787    40A      0.359625    41A      0.373510  
      42A      0.387694    43A      0.396094    44A      0.410030  
      45A      0.410298    46A      0.422846    47A      0.433690  
      48A      0.443032    49A      0.465743    50A      0.488886  
      51A      0.498644    52A      0.510566    53A      0.530328  
      54A      0.548737    55A      0.565440    56A      0.566568  
      57A      0.589759    58A      0.612629    59A      0.619347  
      60A      0.648010    61A      0.666526    62A      0.700642  
      63A      0.709447    64A      0.721048    65A      0.730657  
      66A      0.741406    67A      0.779839    68A      0.796404  
      69A      0.801282    70A      0.825370    71A      0.843059  
      72A      0.853112    73A      0.863353    74A      0.869835  
      75A      0.895285    76A      0.932291    77A      0.937698  
      78A      0.963437    79A      0.985829    80A      0.993429  
      81A      1.000965    82A      1.004234    83A      1.007143  
      84A      1.041427    85A      1.043634    86A      1.054255  
      87A      1.056892    88A      1.072317    89A      1.089687  
      90A      1.108245    91A      1.128239    92A      1.136039  
      93A      1.145011    94A      1.162453    95A      1.170402  
      96A      1.180569    97A      1.189862    98A      1.217076  
      99A      1.227702   100A      1.249582   101A      1.260557  
     102A      1.280531   103A      1.299540   104A      1.300680  
     105A      1.366089   106A      1.373901   107A      1.389266  
     108A      1.411852   109A      1.446998   110A      1.463394  
     111A      1.481899   112A      1.487689   113A      1.543745  
     114A      1.545538   115A      1.561858   116A      1.568364  
     117A      1.580227   118A      1.607749   119A      1.643564  
     120A      1.661019   121A      1.669983   122A      1.671291  
     123A      1.707064   124A      1.711350   125A      1.766133  
     126A      1.839269   127A      1.844051   128A      1.856267  
     129A      1.868248   130A      1.877081   131A      1.944574  
     132A      1.954920   133A      2.017074   134A      2.037020  
     135A      2.067045   136A      2.100196   137A      2.113086  
     138A      2.154090   139A      2.199898   140A      2.237138  
     141A      2.271887   142A      2.311224   143A      2.349578  
     144A      2.404042   145A      2.424989   146A      2.444336  
     147A      2.446496   148A      2.475373   149A      2.524498  
     150A      2.525117   151A      2.545709   152A      2.556528  
     153A      2.580450   154A      2.599280   155A      2.610431  
     156A      2.632367   157A      2.660939   158A      2.668214  
     159A      2.680357   160A      2.695810   161A      2.718903  
     162A      2.733694   163A      2.749528   164A      2.767123  
     165A      2.801699   166A      2.808492   167A      2.811262  
     168A      2.854834   169A      2.883811   170A      2.895090  
     171A      2.903999   172A      2.921002   173A      2.943281  
     174A      2.961478   175A      3.006658   176A      3.029061  
     177A      3.063560   178A      3.066457   179A      3.075238  
     180A      3.098629   181A      3.128411   182A      3.161678  
     183A      3.166893   184A      3.234900   185A      3.235980  
     186A      3.246745   187A      3.325510   188A      3.345532  
     189A      3.371240   190A      3.416482   191A      3.449525  
     192A      3.491760   193A      3.522413   194A      3.533072  
     195A      3.618720   196A      3.638617   197A      3.643039  
     198A      3.692927   199A      3.738913   200A      3.800060  
     201A      3.892068   202A      3.924655   203A      3.969263  
     204A      3.996440   205A      4.036319   206A      4.052641  
     207A      4.056062   208A      4.093046   209A      4.109905  
     210A      4.165777   211A      4.281838   212A      4.282252  
     213A      4.380070   214A      4.387836   215A      4.438636  
     216A      4.482756   217A      4.501337   218A      4.553176  
     219A      4.562378   220A      4.584964   221A      4.627577  
     222A      4.701100   223A      4.774966   224A      4.859527  
     225A      4.871517   226A      4.943705   227A      4.976953  
     228A      5.035492   229A      5.071872   230A      5.130521  
     231A      5.160754   232A      5.223344   233A      5.234852  
     234A      5.373167   235A      5.384235   236A      5.415654  
     237A      5.477306   238A      5.592715   239A      5.706499  
     240A      5.781901   241A      6.046107   242A      6.343344  
     243A      6.508690   244A      6.560826   245A      6.710018  
     246A      6.775777   247A      6.803035   248A      6.845899  
     249A      6.848928   250A      6.912653   251A      6.925853  
     252A      6.937662   253A      6.970373   254A      7.036350  
     255A      7.056374   256A      7.081985   257A      7.083368  
     258A      7.097052   259A      7.119949   260A      7.206551  
     261A      7.221243   262A      7.236518   263A      7.278986  
     264A      7.297679   265A      7.347439   266A      7.373238  
     267A      7.384892   268A      7.385782   269A      7.417377  
     270A      7.495486   271A      7.521170   272A      7.537911  
     273A      7.553513   274A      7.578070   275A      7.599247  
     276A      7.647880   277A      7.663102   278A      7.680417  
     279A      7.731107   280A      7.737498   281A      7.811688  
     282A      7.864587   283A      7.879797   284A      7.892051  
     285A      7.893897   286A      7.972080   287A      8.061140  
     288A      8.108462   289A      8.150611   290A      8.212537  
     291A      8.292165   292A      8.419886   293A      8.618236  
     294A     13.517175   295A     13.989414   296A     15.224014  
     297A     16.094922   298A     17.342265   299A     17.919797  

    Final Occupation by Irrep:
              A 
    DOCC [    23 ]

  @DF-RHF Final Energy:  -375.95041991958618

   => Energetics <=

    Nuclear Repulsion Energy =            218.3945760083974506
    One-Electron Energy =                -960.3585716176555707
    Two-Electron Energy =                 366.0135756896718817
    Total Energy =                       -375.9504199195861815

Computation Completed

*** tstop() called on node100.bme.utexas.edu at Wed Nov  4 07:37:32 2020
Module time:
	user time   =      30.09 seconds =       0.50 minutes
	system time =       1.35 seconds =       0.02 minutes
	total time  =          5 seconds =       0.08 minutes
Total time:
	user time   =      30.09 seconds =       0.50 minutes
	system time =       1.35 seconds =       0.02 minutes
	total time  =          5 seconds =       0.08 minutes
   => Loading Basis Set <=

    Name: (AUG-CC-PVTZ AUX)
    Role: RIFIT
    Keyword: DF_BASIS_MP2
    atoms 1-4 entry O          line   264 file /home/xy3866/psi4conda/share/psi4/basis/aug-cc-pvtz-ri.gbs 
    atoms 5-6 entry C          line   148 file /home/xy3866/psi4conda/share/psi4/basis/aug-cc-pvtz-ri.gbs 
    atoms 7   entry H          line    30 file /home/xy3866/psi4conda/share/psi4/basis/aug-cc-pvtz-ri.gbs 


*** tstart() called on node100.bme.utexas.edu
*** at Wed Nov  4 07:37:33 2020


  //>>>>>>>>>>>>>>>>>>>>>>>>>>>>>>>>>>>//
  //               DFMP2               //
  //<<<<<<<<<<<<<<<<<<<<<<<<<<<<<<<<<<<//

	 --------------------------------------------------------
	                          DF-MP2                         
	      2nd-Order Density-Fitted Moller-Plesset Theory     
	              RMP2 Wavefunction,   8 Threads             
	                                                         
	        Rob Parrish, Justin Turney, Andy Simmonett,      
	           Ed Hohenstein, and C. David Sherrill          
	 --------------------------------------------------------

   => Auxiliary Basis Set <=

  Basis Set: (AUG-CC-PVTZ AUX)
    Blend: AUG-CC-PVTZ-RI
    Number of shells: 182
    Number of basis function: 682
    Number of Cartesian functions: 871
    Spherical Harmonics?: true
    Max angular momentum: 4

	 --------------------------------------------------------
	                 NBF =   299, NAUX =   682
	 --------------------------------------------------------
	   CLASS    FOCC     OCC    AOCC    AVIR     VIR    FVIR
	   PAIRS       0      23      23     276     276       0
	 --------------------------------------------------------

  DFHelper Memory: AOs need 0.466 GiB; user supplied 22.352 GiB. Using in-core AOs.


         ------------------------------------------------------------
                                     CPHF                           
                                  Rob Parrish                       
         ------------------------------------------------------------

  ==> Geometry <==

    Molecular point group: c1
    Full point group: C1

    Geometry (in Angstrom), charge = -1, multiplicity = 1:

       Center              X                  Y                   Z               Mass       
    ------------   -----------------  -----------------  -----------------  -----------------
         O            1.384206137615     1.046233226310     0.000159597019    15.994914619570
         O            1.309748137615    -1.197408773690     0.000238597019    15.994914619570
         O           -1.501037862385    -1.049551773690    -0.000297402981    15.994914619570
         O           -1.264063862385     1.238707226310    -0.000204402981    15.994914619570
         C            0.683878137615    -0.143138773690    -0.000172402981    12.000000000000
         C           -0.783318762385     0.030732026310     0.000293997019    12.000000000000
         H            2.313184137615     0.735639226310     0.000196597019     1.007825032230

  Nuclear repulsion =  218.394576008397451
  Reference energy  = -375.950419919586182

  ==> Basis Set <==

  Basis Set: AUG-CC-PVTZ
    Blend: AUG-CC-PVTZ
    Number of shells: 93
    Number of basis function: 299
    Number of Cartesian functions: 355
    Spherical Harmonics?: true
    Max angular momentum: 3

  ==> CGRSolver (by Rob Parrish) <==

   Number of roots    =         1
   Preconditioning    =    JACOBI
   Convergence cutoff =     1E-06
   Maximum iterations =       100

  ==> CPHFRHamiltonian (by Rob Parrish) <== 

  ==> MemDFJK: Density-Fitted J/K Matrices <==

    J tasked:                   Yes
    K tasked:                   Yes
    wK tasked:                   No
    OpenMP threads:               8
    Memory [MiB]:             22888
    Algorithm:                 Core
    Schwarz Cutoff:           1E-12
    Mask sparsity (%):       1.6264
    Fitting Condition:        1E-10

   => Auxiliary Basis Set <=

  Basis Set: (AUG-CC-PVTZ AUX)
    Blend: AUG-CC-PVTZ-JKFIT
    Number of shells: 194
    Number of basis function: 670
    Number of Cartesian functions: 841
    Spherical Harmonics?: true
    Max angular momentum: 4

  ==> CPHF Iterations <==

  => Iterations <=

             Iter  Converged  Remaining    Residual
  CGR           1          0          1   1.308E-01
  CGR           2          0          1   4.091E-02
  CGR           3          0          1   1.666E-02
  CGR           4          0          1   5.718E-03
  CGR           5          0          1   2.495E-03
  CGR           6          0          1   8.611E-04
  CGR           7          0          1   3.839E-04
  CGR           8          0          1   1.283E-04
  CGR           9          0          1   4.665E-05
  CGR          10          0          1   1.971E-05
  CGR          11          0          1   5.899E-06
  CGR          12          0          1   1.782E-06
  CGR          13          1          0   6.565E-07

    CGRSolver converged.

	-----------------------------------------------------------
	 ==================> DF-MP2 Energies <==================== 
	-----------------------------------------------------------
	 Reference Energy          =    -375.9504199195861815 [Eh]
	 Singles Energy            =      -0.0000000000000000 [Eh]
	 Same-Spin Energy          =      -0.3613183409224731 [Eh]
	 Opposite-Spin Energy      =      -1.0237251118674582 [Eh]
	 Correlation Energy        =      -1.3850434527899314 [Eh]
	 Total Energy              =    -377.3354633723761253 [Eh]
	-----------------------------------------------------------
	 ================> DF-SCS-MP2 Energies <================== 
	-----------------------------------------------------------
	 SCS Same-Spin Scale       =       0.3333333333333333 [-]
	 SCS Opposite-Spin Scale   =       1.2000000000000000 [-]
	 SCS Same-Spin Energy      =      -0.1204394469741577 [Eh]
	 SCS Opposite-Spin Energy  =      -1.2284701342409499 [Eh]
	 SCS Correlation Energy    =      -1.3489095812151075 [Eh]
	 SCS Total Energy          =    -377.2993295008012637 [Eh]
	-----------------------------------------------------------



Properties will be evaluated at   0.000000,  -0.000000,  -0.000000 [a0]

Properties computed using the MP2 density matrix

  Nuclear Dipole Moment: [e a0]
     X:     2.1682      Y:     0.6898      Z:     0.0002

  Electronic Dipole Moment: [e a0]
     X:     0.0213      Y:    -0.4150      Z:     0.0000

  Dipole Moment: [e a0]
     X:     2.1895      Y:     0.2748      Z:     0.0002     Total:     2.2067

  Dipole Moment: [D]
     X:     5.5652      Y:     0.6985      Z:     0.0005     Total:     5.6089


*** tstop() called on node100.bme.utexas.edu at Wed Nov  4 07:37:44 2020
Module time:
	user time   =      74.98 seconds =       1.25 minutes
	system time =       2.47 seconds =       0.04 minutes
	total time  =         11 seconds =       0.18 minutes
Total time:
	user time   =     105.64 seconds =       1.76 minutes
	system time =       3.85 seconds =       0.06 minutes
	total time  =         17 seconds =       0.28 minutes

    Psi4 stopped on: Wednesday, 04 November 2020 07:37AM
    Psi4 wall time for execution: 0:00:16.39

*** Psi4 exiting successfully. Buy a developer a beer!
