
    -----------------------------------------------------------------------
          Psi4: An Open-Source Ab Initio Electronic Structure Package
                               Psi4 1.3.2 release

                         Git: Rev {HEAD} ecbda83 


    R. M. Parrish, L. A. Burns, D. G. A. Smith, A. C. Simmonett,
    A. E. DePrince III, E. G. Hohenstein, U. Bozkaya, A. Yu. Sokolov,
    R. Di Remigio, R. M. Richard, J. F. Gonthier, A. M. James,
    H. R. McAlexander, A. Kumar, M. Saitow, X. Wang, B. P. Pritchard,
    P. Verma, H. F. Schaefer III, K. Patkowski, R. A. King, E. F. Valeev,
    F. A. Evangelista, J. M. Turney, T. D. Crawford, and C. D. Sherrill,
    J. Chem. Theory Comput. 13(7) pp 3185--3197 (2017).
    (doi: 10.1021/acs.jctc.7b00174)


                         Additional Contributions by
    P. Kraus, H. Kruse, M. H. Lechner, M. C. Schieber, R. A. Shaw,
    A. Alenaizan, R. Galvelis, Z. L. Glick, S. Lehtola, and J. P. Misiewicz

    -----------------------------------------------------------------------


    Psi4 started on: Wednesday, 03 February 2021 08:31AM

    Process ID: 58128
    Host:       node142.bme.utexas.edu
    PSIDATADIR: /home/xy3866/psi4conda/share/psi4
    Memory:     500.0 MiB
    Threads:    8
    
  ==> Input File <==

--------------------------------------------------------------------------
#psi4
#
memory 32 gb

molecule  {
0 1
  C        0.0000050    -0.0010510     1.5142370
  C       -1.2218265    -0.0601745     0.6257946
  C        1.2520490     0.0607460     0.6690880
  C       -1.4240560    -1.1040230    -0.2532470
  C        1.4240080     1.1043180    -0.2518010
  C       -2.2519720     0.9105530     0.7796940
  C        2.2520300    -0.9115710     0.7784920
  C       -2.5726140    -1.1747650    -1.0400080
  C        2.5725550     1.1761430    -1.0384820
  C       -3.4033600     0.8449620    -0.0099780
  C        3.4034060    -0.8448920    -0.0111060
  C       -3.5670250    -0.1989710    -0.9208610
  C        3.5670250     0.2002580    -0.9206030
  H       -0.0499850     0.8761900     2.1725100
  H        0.0500080    -0.8791980     2.1713010
  H       -0.6441500    -1.8566960    -0.3590190
  H        0.6440540     1.8570770    -0.3565980
  H       -2.1304810     1.7254050     1.4919990
  H        2.1305710    -1.7273750     1.4897110
  H       -2.6925720    -1.9901910    -1.7497850
  H        2.6924780     1.9925180    -1.7471720
  H       -4.1706330     1.6097110     0.0875230
  H        4.1707290    -1.6097160     0.0854040
  H       -4.4617180    -0.2525870    -1.5364500
  H        4.4617050     0.2547150    -1.5361360
units angstrom
no_reorient  #important for SAPT in psi4, default
symmetry c1  #important for SAPT in psi4, default
}

set PROPERTIES_ORIGIN ["COM"]
properties('MP2/aug-cc-pvtz', properties = ['dipole'])
--------------------------------------------------------------------------

  Memory set to  29.802 GiB by Python driver.
    SCF Algorithm Type (re)set to DF.

*** tstart() called on node142.bme.utexas.edu
*** at Wed Feb  3 08:31:03 2021

   => Loading Basis Set <=

    Name: AUG-CC-PVTZ
    Role: ORBITAL
    Keyword: BASIS
    atoms 1-13  entry C          line   235 file /home/xy3866/psi4conda/share/psi4/basis/aug-cc-pvtz.gbs 
    atoms 14-25 entry H          line    36 file /home/xy3866/psi4conda/share/psi4/basis/aug-cc-pvtz.gbs 


         ---------------------------------------------------------
                                   SCF
               by Justin Turney, Rob Parrish, Andy Simmonett
                          and Daniel G. A. Smith
                              RHF Reference
                        8 Threads,  30517 MiB Core
         ---------------------------------------------------------

  ==> Geometry <==

    Molecular point group: c1
    Full point group: C1

    Geometry (in Angstrom), charge = 0, multiplicity = 1:

       Center              X                  Y                   Z               Mass       
    ------------   -----------------  -----------------  -----------------  -----------------
         C           -0.002152722833    -0.001159521783     1.518582236876    12.000000000000
         C           -1.223984222833    -0.060283021783     0.630139836876    12.000000000000
         C            1.249891277167     0.060637478217     0.673433236876    12.000000000000
         C           -1.426213722833    -1.104131521783    -0.248901763124    12.000000000000
         C            1.421850277167     1.104209478217    -0.247455763124    12.000000000000
         C           -2.254129722833     0.910444478217     0.784039236876    12.000000000000
         C            2.249872277167    -0.911679521783     0.782837236876    12.000000000000
         C           -2.574771722833    -1.174873521783    -1.035662763124    12.000000000000
         C            2.570397277167     1.176034478217    -1.034136763124    12.000000000000
         C           -3.405517722833     0.844853478217    -0.005632763124    12.000000000000
         C            3.401248277167    -0.845000521783    -0.006760763124    12.000000000000
         C           -3.569182722833    -0.199079521783    -0.916515763124    12.000000000000
         C            3.564867277167     0.200149478217    -0.916257763124    12.000000000000
         H           -0.052142722833     0.876081478217     2.176855236876     1.007825032230
         H            0.047850277167    -0.879306521783     2.175646236876     1.007825032230
         H           -0.646307722833    -1.856804521783    -0.354673763124     1.007825032230
         H            0.641896277167     1.856968478217    -0.352252763124     1.007825032230
         H           -2.132638722833     1.725296478217     1.496344236876     1.007825032230
         H            2.128413277167    -1.727483521783     1.494056236876     1.007825032230
         H           -2.694729722833    -1.990299521783    -1.745439763124     1.007825032230
         H            2.690320277167     1.992409478217    -1.742826763124     1.007825032230
         H           -4.172790722833     1.609602478217     0.091868236876     1.007825032230
         H            4.168571277167    -1.609824521783     0.089749236876     1.007825032230
         H           -4.463875722833    -0.252695521783    -1.532104763124     1.007825032230
         H            4.459547277167     0.254606478217    -1.531790763124     1.007825032230

  Running in c1 symmetry.

  Rotational constants: A =      0.06651  B =      0.01436  C =      0.01432 [cm^-1]
  Rotational constants: A =   1993.80332  B =    430.38077  C =    429.20606 [MHz]
  Nuclear repulsion =  693.588465921487568

  Charge       = 0
  Multiplicity = 1
  Electrons    = 90
  Nalpha       = 45
  Nbeta        = 45

  ==> Algorithm <==

  SCF Algorithm Type is DF.
  DIIS enabled.
  MOM disabled.
  Fractional occupation disabled.
  Guess Type is SAD.
  Energy threshold   = 1.00e-10
  Density threshold  = 1.00e-10
  Integral threshold = 0.00e+00

  ==> Primary Basis <==

  Basis Set: AUG-CC-PVTZ
    Blend: AUG-CC-PVTZ
    Number of shells: 290
    Number of basis function: 874
    Number of Cartesian functions: 1015
    Spherical Harmonics?: true
    Max angular momentum: 3

   => Loading Basis Set <=

    Name: (AUG-CC-PVTZ AUX)
    Role: JKFIT
    Keyword: DF_BASIS_SCF
    atoms 1-13  entry C          line   162 file /home/xy3866/psi4conda/share/psi4/basis/aug-cc-pvtz-jkfit.gbs 
    atoms 14-25 entry H          line    70 file /home/xy3866/psi4conda/share/psi4/basis/aug-cc-pvtz-jkfit.gbs 

  ==> Pre-Iterations <==

   -------------------------------------------------------
    Irrep   Nso     Nmo     Nalpha   Nbeta   Ndocc  Nsocc
   -------------------------------------------------------
     A        874     874       0       0       0       0
   -------------------------------------------------------
    Total     874     874      45      45      45       0
   -------------------------------------------------------

  ==> Integral Setup <==

  DFHelper Memory: AOs need 10.034 GiB; user supplied 22.352 GiB. Using in-core AOs.

  ==> MemDFJK: Density-Fitted J/K Matrices <==

    J tasked:                   Yes
    K tasked:                   Yes
    wK tasked:                   No
    OpenMP threads:               8
    Memory [MiB]:             22888
    Algorithm:                 Disk
    Schwarz Cutoff:           1E-12
    Mask sparsity (%):       9.4919
    Fitting Condition:        1E-10

   => Auxiliary Basis Set <=

  Basis Set: (AUG-CC-PVTZ AUX)
    Blend: AUG-CC-PVTZ-JKFIT
    Number of shells: 558
    Number of basis function: 1904
    Number of Cartesian functions: 2363
    Spherical Harmonics?: true
    Max angular momentum: 4

  Minimum eigenvalue in the overlap matrix is 3.6983333655E-07.
  Using Symmetric Orthogonalization.

  SCF Guess: Superposition of Atomic Densities via on-the-fly atomic UHF.

  ==> Iterations <==

                           Total Energy        Delta E     RMS |[F,P]|

   @DF-RHF iter SAD:  -498.91125621736404   -4.98911e+02   0.00000e+00 
   @DF-RHF iter   1:  -499.06980057331100   -1.58544e-01   8.78544e-04 DIIS
   @DF-RHF iter   2:  -499.37097825901424   -3.01178e-01   4.13175e-04 DIIS
   @DF-RHF iter   3:  -499.43806283965876   -6.70846e-02   8.39853e-05 DIIS
   @DF-RHF iter   4:  -499.44189257126175   -3.82973e-03   2.98838e-05 DIIS
   @DF-RHF iter   5:  -499.44227731696543   -3.84746e-04   8.53304e-06 DIIS
   @DF-RHF iter   6:  -499.44231034323434   -3.30263e-05   2.07468e-06 DIIS
   @DF-RHF iter   7:  -499.44231292189301   -2.57866e-06   5.42467e-07 DIIS
   @DF-RHF iter   8:  -499.44231318206778   -2.60175e-07   2.13476e-07 DIIS
   @DF-RHF iter   9:  -499.44231324077634   -5.87086e-08   1.12960e-07 DIIS
   @DF-RHF iter  10:  -499.44231326565722   -2.48809e-08   4.69044e-08 DIIS
   @DF-RHF iter  11:  -499.44231327182627   -6.16905e-09   1.76821e-08 DIIS
   @DF-RHF iter  12:  -499.44231327235491   -5.28644e-10   6.87999e-09 DIIS
   @DF-RHF iter  13:  -499.44231327241374   -5.88329e-11   1.99678e-09 DIIS
   @DF-RHF iter  14:  -499.44231327241789   -4.14957e-12   7.67177e-10 DIIS
   @DF-RHF iter  15:  -499.44231327241903   -1.13687e-12   3.26570e-10 DIIS
   @DF-RHF iter  16:  -499.44231327242017   -1.13687e-12   1.34750e-10 DIIS
   @DF-RHF iter  17:  -499.44231327241948    6.82121e-13   7.48144e-11 DIIS
  Energy and wave function converged.


  ==> Post-Iterations <==

    Orbital Energies [Eh]
    ---------------------

    Doubly Occupied:                                                      

       1A    -11.242973     2A    -11.242217     3A    -11.237974  
       4A    -11.236505     5A    -11.236067     6A    -11.236004  
       7A    -11.235583     8A    -11.235187     9A    -11.232638  
      10A    -11.232452    11A    -11.232153    12A    -11.230566  
      13A    -11.228571    14A     -1.161941    15A     -1.144602  
      16A     -1.067319    17A     -1.011873    18A     -1.011590  
      19A     -1.006277    20A     -0.925943    21A     -0.828652  
      22A     -0.824048    23A     -0.813889    24A     -0.782506  
      25A     -0.697719    26A     -0.688340    27A     -0.643185  
      28A     -0.637859    29A     -0.633328    30A     -0.614982  
      31A     -0.585311    32A     -0.583835    33A     -0.572330  
      34A     -0.571405    35A     -0.544424    36A     -0.509170  
      37A     -0.497722    38A     -0.494783    39A     -0.485395  
      40A     -0.481422    41A     -0.471278    42A     -0.342657  
      43A     -0.335005    44A     -0.331816    45A     -0.314277  

    Virtual:                                                              

      46A      0.027697    47A      0.030444    48A      0.033899  
      49A      0.033982    50A      0.041162    51A      0.047204  
      52A      0.047384    53A      0.051064    54A      0.062584  
      55A      0.066247    56A      0.067070    57A      0.067867  
      58A      0.087030    59A      0.096511    60A      0.099583  
      61A      0.102128    62A      0.102303    63A      0.106668  
      64A      0.108788    65A      0.112481    66A      0.112907  
      67A      0.118740    68A      0.120541    69A      0.121990  
      70A      0.123341    71A      0.125291    72A      0.128685  
      73A      0.131150    74A      0.131597    75A      0.132645  
      76A      0.132839    77A      0.141848    78A      0.145136  
      79A      0.146589    80A      0.148319    81A      0.156608  
      82A      0.157813    83A      0.158820    84A      0.160227  
      85A      0.161178    86A      0.164444    87A      0.168840  
      88A      0.169673    89A      0.178362    90A      0.182986  
      91A      0.183909    92A      0.196239    93A      0.198218  
      94A      0.205574    95A      0.209559    96A      0.215607  
      97A      0.222982    98A      0.230392    99A      0.231254  
     100A      0.235617   101A      0.241996   102A      0.252313  
     103A      0.254978   104A      0.257525   105A      0.260837  
     106A      0.261024   107A      0.262684   108A      0.269824  
     109A      0.270760   110A      0.274180   111A      0.277618  
     112A      0.286617   113A      0.288036   114A      0.295076  
     115A      0.299961   116A      0.301379   117A      0.305545  
     118A      0.306447   119A      0.310549   120A      0.312749  
     121A      0.315337   122A      0.321699   123A      0.322569  
     124A      0.326742   125A      0.328133   126A      0.331472  
     127A      0.336017   128A      0.344013   129A      0.345333  
     130A      0.350506   131A      0.350968   132A      0.357730  
     133A      0.359213   134A      0.366476   135A      0.368442  
     136A      0.370383   137A      0.374030   138A      0.381574  
     139A      0.384470   140A      0.393300   141A      0.394916  
     142A      0.405424   143A      0.412680   144A      0.415265  
     145A      0.420905   146A      0.423759   147A      0.427789  
     148A      0.431077   149A      0.433713   150A      0.440697  
     151A      0.444499   152A      0.446909   153A      0.453800  
     154A      0.454828   155A      0.456929   156A      0.457667  
     157A      0.463445   158A      0.467222   159A      0.468587  
     160A      0.473286   161A      0.475377   162A      0.478955  
     163A      0.485745   164A      0.486471   165A      0.489908  
     166A      0.492720   167A      0.496548   168A      0.499455  
     169A      0.501478   170A      0.505456   171A      0.507972  
     172A      0.508520   173A      0.510611   174A      0.513285  
     175A      0.521499   176A      0.522861   177A      0.524420  
     178A      0.527659   179A      0.530735   180A      0.532435  
     181A      0.534474   182A      0.535671   183A      0.542726  
     184A      0.544348   185A      0.549082   186A      0.551606  
     187A      0.553443   188A      0.557014   189A      0.562562  
     190A      0.562981   191A      0.569844   192A      0.575939  
     193A      0.580171   194A      0.585943   195A      0.588972  
     196A      0.594229   197A      0.596569   198A      0.607893  
     199A      0.612846   200A      0.618245   201A      0.623176  
     202A      0.626266   203A      0.628676   204A      0.633771  
     205A      0.644691   206A      0.645782   207A      0.651738  
     208A      0.655534   209A      0.665755   210A      0.668554  
     211A      0.675639   212A      0.679726   213A      0.681026  
     214A      0.690906   215A      0.693176   216A      0.694854  
     217A      0.695082   218A      0.696769   219A      0.705461  
     220A      0.714735   221A      0.717921   222A      0.722248  
     223A      0.723170   224A      0.727369   225A      0.732787  
     226A      0.738041   227A      0.750169   228A      0.755812  
     229A      0.757297   230A      0.762072   231A      0.773552  
     232A      0.777859   233A      0.778911   234A      0.783830  
     235A      0.787113   236A      0.797638   237A      0.801392  
     238A      0.804762   239A      0.815376   240A      0.821271  
     241A      0.827049   242A      0.832616   243A      0.840104  
     244A      0.845846   245A      0.849825   246A      0.853094  
     247A      0.859819   248A      0.861267   249A      0.866011  
     250A      0.870275   251A      0.876271   252A      0.878266  
     253A      0.881440   254A      0.883277   255A      0.889779  
     256A      0.892197   257A      0.896824   258A      0.899451  
     259A      0.905025   260A      0.910846   261A      0.912425  
     262A      0.918165   263A      0.921791   264A      0.928139  
     265A      0.931945   266A      0.937728   267A      0.939195  
     268A      0.943788   269A      0.946835   270A      0.951721  
     271A      0.954715   272A      0.960144   273A      0.967546  
     274A      0.971327   275A      0.979376   276A      0.981492  
     277A      0.982985   278A      0.989939   279A      0.995642  
     280A      1.007813   281A      1.008203   282A      1.010538  
     283A      1.014082   284A      1.016732   285A      1.022468  
     286A      1.030631   287A      1.034936   288A      1.039618  
     289A      1.046302   290A      1.052167   291A      1.056967  
     292A      1.060298   293A      1.066382   294A      1.069233  
     295A      1.074765   296A      1.076506   297A      1.083909  
     298A      1.088105   299A      1.088700   300A      1.089379  
     301A      1.095446   302A      1.097707   303A      1.099358  
     304A      1.106515   305A      1.116459   306A      1.119784  
     307A      1.125794   308A      1.126017   309A      1.128915  
     310A      1.131336   311A      1.135296   312A      1.139917  
     313A      1.143853   314A      1.148552   315A      1.153509  
     316A      1.158942   317A      1.167100   318A      1.170064  
     319A      1.174678   320A      1.176268   321A      1.180034  
     322A      1.190314   323A      1.192505   324A      1.195258  
     325A      1.199945   326A      1.201081   327A      1.201122  
     328A      1.207130   329A      1.210065   330A      1.213675  
     331A      1.221459   332A      1.226108   333A      1.228383  
     334A      1.230091   335A      1.233587   336A      1.237029  
     337A      1.238829   338A      1.241788   339A      1.255164  
     340A      1.260734   341A      1.273744   342A      1.277092  
     343A      1.278732   344A      1.284158   345A      1.288557  
     346A      1.298544   347A      1.302814   348A      1.305877  
     349A      1.311823   350A      1.318296   351A      1.325613  
     352A      1.330100   353A      1.332277   354A      1.339895  
     355A      1.344448   356A      1.359368   357A      1.361500  
     358A      1.364653   359A      1.366485   360A      1.375956  
     361A      1.382077   362A      1.390228   363A      1.394248  
     364A      1.401345   365A      1.406265   366A      1.413727  
     367A      1.415907   368A      1.422609   369A      1.426897  
     370A      1.435591   371A      1.439385   372A      1.449325  
     373A      1.454580   374A      1.455650   375A      1.462761  
     376A      1.474090   377A      1.481232   378A      1.486397  
     379A      1.493917   380A      1.498493   381A      1.505000  
     382A      1.509112   383A      1.510661   384A      1.527883  
     385A      1.538134   386A      1.539586   387A      1.539998  
     388A      1.553963   389A      1.567723   390A      1.574043  
     391A      1.574687   392A      1.575820   393A      1.588835  
     394A      1.596633   395A      1.604583   396A      1.608870  
     397A      1.614534   398A      1.625904   399A      1.630953  
     400A      1.637278   401A      1.649671   402A      1.665192  
     403A      1.672155   404A      1.683486   405A      1.684995  
     406A      1.694040   407A      1.699738   408A      1.716016  
     409A      1.717523   410A      1.722029   411A      1.728541  
     412A      1.734700   413A      1.737354   414A      1.747461  
     415A      1.759589   416A      1.765082   417A      1.767442  
     418A      1.770456   419A      1.777653   420A      1.783474  
     421A      1.789177   422A      1.795912   423A      1.799026  
     424A      1.808166   425A      1.812266   426A      1.821486  
     427A      1.828448   428A      1.837525   429A      1.839013  
     430A      1.851794   431A      1.857536   432A      1.864960  
     433A      1.865645   434A      1.867086   435A      1.873752  
     436A      1.879154   437A      1.882023   438A      1.890299  
     439A      1.901537   440A      1.918283   441A      1.925073  
     442A      1.926596   443A      1.934090   444A      1.942379  
     445A      1.944653   446A      1.959123   447A      1.963965  
     448A      1.980543   449A      1.986390   450A      1.994949  
     451A      2.004324   452A      2.014186   453A      2.015188  
     454A      2.022169   455A      2.026156   456A      2.031854  
     457A      2.042904   458A      2.050067   459A      2.053114  
     460A      2.060068   461A      2.064044   462A      2.066810  
     463A      2.074794   464A      2.078133   465A      2.080584  
     466A      2.091585   467A      2.100944   468A      2.103164  
     469A      2.107954   470A      2.116061   471A      2.128704  
     472A      2.131830   473A      2.135786   474A      2.141801  
     475A      2.142216   476A      2.150222   477A      2.155515  
     478A      2.158400   479A      2.168313   480A      2.175451  
     481A      2.176189   482A      2.180071   483A      2.191112  
     484A      2.200167   485A      2.216645   486A      2.222440  
     487A      2.225435   488A      2.234530   489A      2.242399  
     490A      2.249475   491A      2.255997   492A      2.273142  
     493A      2.278575   494A      2.293693   495A      2.317868  
     496A      2.324140   497A      2.334340   498A      2.341116  
     499A      2.343566   500A      2.348186   501A      2.352620  
     502A      2.375405   503A      2.378935   504A      2.384572  
     505A      2.389799   506A      2.404302   507A      2.410606  
     508A      2.421863   509A      2.429440   510A      2.434525  
     511A      2.440458   512A      2.442135   513A      2.458140  
     514A      2.469876   515A      2.484425   516A      2.488741  
     517A      2.492392   518A      2.499325   519A      2.507736  
     520A      2.513558   521A      2.530051   522A      2.542996  
     523A      2.575309   524A      2.584089   525A      2.592954  
     526A      2.610478   527A      2.622134   528A      2.637604  
     529A      2.641015   530A      2.645902   531A      2.652150  
     532A      2.657637   533A      2.686251   534A      2.721465  
     535A      2.724416   536A      2.740488   537A      2.754615  
     538A      2.790734   539A      2.800844   540A      2.806470  
     541A      2.811796   542A      2.831048   543A      2.838065  
     544A      2.843396   545A      2.868355   546A      2.893077  
     547A      2.900529   548A      2.946333   549A      2.951218  
     550A      2.995237   551A      3.041466   552A      3.053911  
     553A      3.090480   554A      3.123051   555A      3.136574  
     556A      3.162571   557A      3.196770   558A      3.199102  
     559A      3.218475   560A      3.226035   561A      3.231889  
     562A      3.250614   563A      3.273457   564A      3.275747  
     565A      3.295720   566A      3.303385   567A      3.324150  
     568A      3.329253   569A      3.349295   570A      3.358406  
     571A      3.360930   572A      3.376626   573A      3.388062  
     574A      3.395254   575A      3.397695   576A      3.408556  
     577A      3.413293   578A      3.417935   579A      3.431894  
     580A      3.448086   581A      3.454077   582A      3.458444  
     583A      3.464864   584A      3.472893   585A      3.480810  
     586A      3.484775   587A      3.490301   588A      3.504146  
     589A      3.522681   590A      3.526622   591A      3.540092  
     592A      3.542759   593A      3.544017   594A      3.550407  
     595A      3.555623   596A      3.573319   597A      3.575410  
     598A      3.578191   599A      3.582734   600A      3.587926  
     601A      3.595520   602A      3.597782   603A      3.608827  
     604A      3.621644   605A      3.627927   606A      3.631364  
     607A      3.637090   608A      3.644999   609A      3.650611  
     610A      3.663398   611A      3.674505   612A      3.693606  
     613A      3.709120   614A      3.714149   615A      3.720410  
     616A      3.724180   617A      3.733355   618A      3.735186  
     619A      3.744231   620A      3.749217   621A      3.760965  
     622A      3.774248   623A      3.779879   624A      3.786387  
     625A      3.805251   626A      3.808507   627A      3.818537  
     628A      3.838828   629A      3.841341   630A      3.857904  
     631A      3.861343   632A      3.868576   633A      3.878293  
     634A      3.885569   635A      3.890533   636A      3.893027  
     637A      3.897548   638A      3.906196   639A      3.912234  
     640A      3.920269   641A      3.922102   642A      3.938744  
     643A      3.941917   644A      3.947757   645A      3.959900  
     646A      3.978317   647A      3.982831   648A      3.987698  
     649A      3.992601   650A      3.998174   651A      4.007749  
     652A      4.017371   653A      4.024831   654A      4.026442  
     655A      4.033224   656A      4.037474   657A      4.041999  
     658A      4.047806   659A      4.049055   660A      4.063742  
     661A      4.064735   662A      4.073807   663A      4.082263  
     664A      4.109240   665A      4.110217   666A      4.119751  
     667A      4.124604   668A      4.130924   669A      4.138726  
     670A      4.154764   671A      4.161155   672A      4.170186  
     673A      4.171867   674A      4.185549   675A      4.195453  
     676A      4.200575   677A      4.203659   678A      4.208732  
     679A      4.216493   680A      4.239049   681A      4.246108  
     682A      4.252878   683A      4.270216   684A      4.277216  
     685A      4.285135   686A      4.294019   687A      4.298076  
     688A      4.303647   689A      4.313907   690A      4.323344  
     691A      4.325429   692A      4.332432   693A      4.336923  
     694A      4.348434   695A      4.353522   696A      4.358656  
     697A      4.369015   698A      4.369310   699A      4.388285  
     700A      4.400375   701A      4.405793   702A      4.412435  
     703A      4.413891   704A      4.430750   705A      4.432829  
     706A      4.437143   707A      4.445102   708A      4.452980  
     709A      4.458691   710A      4.466662   711A      4.473431  
     712A      4.482399   713A      4.487237   714A      4.492756  
     715A      4.497082   716A      4.498027   717A      4.504430  
     718A      4.507123   719A      4.524892   720A      4.532895  
     721A      4.540025   722A      4.554423   723A      4.579446  
     724A      4.595250   725A      4.606094   726A      4.620234  
     727A      4.632388   728A      4.649658   729A      4.666704  
     730A      4.667567   731A      4.701845   732A      4.715504  
     733A      4.719631   734A      4.720932   735A      4.735747  
     736A      4.742141   737A      4.748233   738A      4.764027  
     739A      4.774169   740A      4.780870   741A      4.783043  
     742A      4.794587   743A      4.802043   744A      4.805285  
     745A      4.820852   746A      4.824226   747A      4.846053  
     748A      4.884963   749A      4.890296   750A      4.902354  
     751A      4.914955   752A      4.916636   753A      4.921473  
     754A      4.949624   755A      4.953682   756A      4.971119  
     757A      4.986696   758A      5.002986   759A      5.008107  
     760A      5.023003   761A      5.028752   762A      5.037531  
     763A      5.050518   764A      5.079162   765A      5.082095  
     766A      5.096526   767A      5.100943   768A      5.105556  
     769A      5.120388   770A      5.123450   771A      5.126952  
     772A      5.132909   773A      5.149128   774A      5.154235  
     775A      5.165155   776A      5.171089   777A      5.172681  
     778A      5.176180   779A      5.178818   780A      5.186599  
     781A      5.189702   782A      5.193659   783A      5.199776  
     784A      5.228703   785A      5.245751   786A      5.248848  
     787A      5.266756   788A      5.274889   789A      5.283526  
     790A      5.308158   791A      5.315517   792A      5.343446  
     793A      5.345408   794A      5.350283   795A      5.364789  
     796A      5.373812   797A      5.382781   798A      5.406092  
     799A      5.425010   800A      5.427762   801A      5.431536  
     802A      5.454597   803A      5.462861   804A      5.479534  
     805A      5.489920   806A      5.501734   807A      5.503891  
     808A      5.513232   809A      5.528736   810A      5.565918  
     811A      5.599506   812A      5.621664   813A      5.659484  
     814A      5.678099   815A      5.693960   816A      5.711408  
     817A      5.720906   818A      5.769638   819A      5.773473  
     820A      5.789962   821A      5.798944   822A      5.800322  
     823A      5.821102   824A      5.838817   825A      5.846391  
     826A      5.948950   827A      5.972461   828A      6.058673  
     829A      6.081415   830A      6.127050   831A      6.140479  
     832A      6.181143   833A      6.187484   834A      6.205887  
     835A      6.229656   836A      6.250044   837A      6.289534  
     838A      6.311726   839A      6.320949   840A      6.368329  
     841A      6.380898   842A      6.396412   843A      6.431256  
     844A      6.438778   845A      6.461772   846A      6.552093  
     847A      6.559231   848A      6.609723   849A      6.629304  
     850A      6.707900   851A      6.798195   852A      6.819166  
     853A      6.912857   854A      6.923458   855A      6.988614  
     856A      7.002948   857A      7.020408   858A      7.142566  
     859A      7.163628   860A      7.317523   861A      7.329967  
     862A     15.957800   863A     16.104106   864A     16.276951  
     865A     16.618252   866A     18.701427   867A     18.970597  
     868A     19.175213   869A     19.584122   870A     19.698636  
     871A     20.132446   872A     20.373201   873A     20.529042  
     874A     21.352609  

    Final Occupation by Irrep:
              A 
    DOCC [    45 ]

  @DF-RHF Final Energy:  -499.44231327241948

   => Energetics <=

    Nuclear Repulsion Energy =            693.5884659214875683
    One-Electron Energy =               -2050.7140102191528968
    Two-Electron Energy =                 857.6832310252458456
    Total Energy =                       -499.4423132724194829

Computation Completed

*** tstop() called on node142.bme.utexas.edu at Wed Feb  3 08:34:56 2021
Module time:
	user time   =    1086.64 seconds =      18.11 minutes
	system time =     110.13 seconds =       1.84 minutes
	total time  =        233 seconds =       3.88 minutes
Total time:
	user time   =    1086.64 seconds =      18.11 minutes
	system time =     110.13 seconds =       1.84 minutes
	total time  =        233 seconds =       3.88 minutes
   => Loading Basis Set <=

    Name: (AUG-CC-PVTZ AUX)
    Role: RIFIT
    Keyword: DF_BASIS_MP2
    atoms 1-13  entry C          line   148 file /home/xy3866/psi4conda/share/psi4/basis/aug-cc-pvtz-ri.gbs 
    atoms 14-25 entry H          line    30 file /home/xy3866/psi4conda/share/psi4/basis/aug-cc-pvtz-ri.gbs 


*** tstart() called on node142.bme.utexas.edu
*** at Wed Feb  3 08:34:57 2021


  //>>>>>>>>>>>>>>>>>>>>>>>>>>>>>>>>>>>//
  //               DFMP2               //
  //<<<<<<<<<<<<<<<<<<<<<<<<<<<<<<<<<<<//

	 --------------------------------------------------------
	                          DF-MP2                         
	      2nd-Order Density-Fitted Moller-Plesset Theory     
	              RMP2 Wavefunction,   8 Threads             
	                                                         
	        Rob Parrish, Justin Turney, Andy Simmonett,      
	           Ed Hohenstein, and C. David Sherrill          
	 --------------------------------------------------------

   => Auxiliary Basis Set <=

  Basis Set: (AUG-CC-PVTZ AUX)
    Blend: AUG-CC-PVTZ-RI
    Number of shells: 532
    Number of basis function: 1930
    Number of Cartesian functions: 2428
    Spherical Harmonics?: true
    Max angular momentum: 4

	 --------------------------------------------------------
	                 NBF =   874, NAUX =  1930
	 --------------------------------------------------------
	   CLASS    FOCC     OCC    AOCC    AVIR     VIR    FVIR
	   PAIRS       0      45      45     829     829       0
	 --------------------------------------------------------

  DFHelper Memory: AOs need 10.034 GiB; user supplied 22.352 GiB. Using in-core AOs.


         ------------------------------------------------------------
                                     CPHF                           
                                  Rob Parrish                       
         ------------------------------------------------------------

  ==> Geometry <==

    Molecular point group: c1
    Full point group: C1

    Geometry (in Angstrom), charge = 0, multiplicity = 1:

       Center              X                  Y                   Z               Mass       
    ------------   -----------------  -----------------  -----------------  -----------------
         C           -0.002152722833    -0.001159521783     1.518582236876    12.000000000000
         C           -1.223984222833    -0.060283021783     0.630139836876    12.000000000000
         C            1.249891277167     0.060637478217     0.673433236876    12.000000000000
         C           -1.426213722833    -1.104131521783    -0.248901763124    12.000000000000
         C            1.421850277167     1.104209478217    -0.247455763124    12.000000000000
         C           -2.254129722833     0.910444478217     0.784039236876    12.000000000000
         C            2.249872277167    -0.911679521783     0.782837236876    12.000000000000
         C           -2.574771722833    -1.174873521783    -1.035662763124    12.000000000000
         C            2.570397277167     1.176034478217    -1.034136763124    12.000000000000
         C           -3.405517722833     0.844853478217    -0.005632763124    12.000000000000
         C            3.401248277167    -0.845000521783    -0.006760763124    12.000000000000
         C           -3.569182722833    -0.199079521783    -0.916515763124    12.000000000000
         C            3.564867277167     0.200149478217    -0.916257763124    12.000000000000
         H           -0.052142722833     0.876081478217     2.176855236876     1.007825032230
         H            0.047850277167    -0.879306521783     2.175646236876     1.007825032230
         H           -0.646307722833    -1.856804521783    -0.354673763124     1.007825032230
         H            0.641896277167     1.856968478217    -0.352252763124     1.007825032230
         H           -2.132638722833     1.725296478217     1.496344236876     1.007825032230
         H            2.128413277167    -1.727483521783     1.494056236876     1.007825032230
         H           -2.694729722833    -1.990299521783    -1.745439763124     1.007825032230
         H            2.690320277167     1.992409478217    -1.742826763124     1.007825032230
         H           -4.172790722833     1.609602478217     0.091868236876     1.007825032230
         H            4.168571277167    -1.609824521783     0.089749236876     1.007825032230
         H           -4.463875722833    -0.252695521783    -1.532104763124     1.007825032230
         H            4.459547277167     0.254606478217    -1.531790763124     1.007825032230

  Nuclear repulsion =  693.588465921487568
  Reference energy  = -499.442313272419483

  ==> Basis Set <==

  Basis Set: AUG-CC-PVTZ
    Blend: AUG-CC-PVTZ
    Number of shells: 290
    Number of basis function: 874
    Number of Cartesian functions: 1015
    Spherical Harmonics?: true
    Max angular momentum: 3

  ==> CGRSolver (by Rob Parrish) <==

   Number of roots    =         1
   Preconditioning    =    JACOBI
   Convergence cutoff =     1E-06
   Maximum iterations =       100

  ==> CPHFRHamiltonian (by Rob Parrish) <== 

  ==> MemDFJK: Density-Fitted J/K Matrices <==

    J tasked:                   Yes
    K tasked:                   Yes
    wK tasked:                   No
    OpenMP threads:               8
    Memory [MiB]:             22888
    Algorithm:                 Disk
    Schwarz Cutoff:           1E-12
    Mask sparsity (%):       9.4919
    Fitting Condition:        1E-10

   => Auxiliary Basis Set <=

  Basis Set: (AUG-CC-PVTZ AUX)
    Blend: AUG-CC-PVTZ-JKFIT
    Number of shells: 558
    Number of basis function: 1904
    Number of Cartesian functions: 2363
    Spherical Harmonics?: true
    Max angular momentum: 4

  ==> CPHF Iterations <==

  => Iterations <=

             Iter  Converged  Remaining    Residual
  CGR           1          0          1   7.587E-02
  CGR           2          0          1   1.620E-02
  CGR           3          0          1   7.292E-03
  CGR           4          0          1   4.755E-03
  CGR           5          0          1   1.909E-03
  CGR           6          0          1   6.452E-04
  CGR           7          0          1   1.902E-04
  CGR           8          0          1   6.706E-05
  CGR           9          0          1   2.110E-05
  CGR          10          0          1   7.603E-06
  CGR          11          0          1   4.423E-06
  CGR          12          0          1   1.261E-06
  CGR          13          1          0   4.340E-07

    CGRSolver converged.

	-----------------------------------------------------------
	 ==================> DF-MP2 Energies <==================== 
	-----------------------------------------------------------
	 Reference Energy          =    -499.4423132724194829 [Eh]
	 Singles Energy            =      -0.0000000000000000 [Eh]
	 Same-Spin Energy          =      -0.5643083514581353 [Eh]
	 Opposite-Spin Energy      =      -1.7788660621576260 [Eh]
	 Correlation Energy        =      -2.3431744136157615 [Eh]
	 Total Energy              =    -501.7854876860352533 [Eh]
	-----------------------------------------------------------
	 ================> DF-SCS-MP2 Energies <================== 
	-----------------------------------------------------------
	 SCS Same-Spin Scale       =       0.3333333333333333 [-]
	 SCS Opposite-Spin Scale   =       1.2000000000000000 [-]
	 SCS Same-Spin Energy      =      -0.1881027838193784 [Eh]
	 SCS Opposite-Spin Energy  =      -2.1346392745891509 [Eh]
	 SCS Correlation Energy    =      -2.3227420584085294 [Eh]
	 SCS Total Energy          =    -501.7650553308280337 [Eh]
	-----------------------------------------------------------



Properties will be evaluated at  -0.000000,  -0.000000,   0.000000 [a0]

Properties computed using the MP2 density matrix

  Nuclear Dipole Moment: [e a0]
     X:    -0.0243      Y:    -0.0014      Z:     0.2488

  Electronic Dipole Moment: [e a0]
     X:     0.0128      Y:     0.0008      Z:    -0.2096

  Dipole Moment: [e a0]
     X:    -0.0115      Y:    -0.0005      Z:     0.0392     Total:     0.0408

  Dipole Moment: [D]
     X:    -0.0292      Y:    -0.0014      Z:     0.0996     Total:     0.1038


*** tstop() called on node142.bme.utexas.edu at Wed Feb  3 08:46:15 2021
Module time:
	user time   =    4287.49 seconds =      71.46 minutes
	system time =     145.71 seconds =       2.43 minutes
	total time  =        678 seconds =      11.30 minutes
Total time:
	user time   =    5374.49 seconds =      89.57 minutes
	system time =     255.84 seconds =       4.26 minutes
	total time  =        912 seconds =      15.20 minutes

    Psi4 stopped on: Wednesday, 03 February 2021 08:46AM
    Psi4 wall time for execution: 0:15:13.78

*** Psi4 exiting successfully. Buy a developer a beer!
