
    -----------------------------------------------------------------------
          Psi4: An Open-Source Ab Initio Electronic Structure Package
                               Psi4 1.4a3.dev225 

                         Git: Rev {master} 7105e37 


    D. G. A. Smith, L. A. Burns, A. C. Simmonett, R. M. Parrish,
    M. C. Schieber, R. Galvelis, P. Kraus, H. Kruse, R. Di Remigio,
    A. Alenaizan, A. M. James, S. Lehtola, J. P. Misiewicz, M. Scheurer,
    R. A. Shaw, J. B. Schriber, Y. Xie, Z. L. Glick, D. A. Sirianni,
    J. S. O'Brien, J. M. Waldrop, A. Kumar, E. G. Hohenstein,
    B. P. Pritchard, B. R. Brooks, H. F. Schaefer III, A. Yu. Sokolov,
    K. Patkowski, A. E. DePrince III, U. Bozkaya, R. A. King,
    F. A. Evangelista, J. M. Turney, T. D. Crawford, C. D. Sherrill,
    J. Chem. Phys. 152(18) 184108 (2020). https://doi.org/10.1063/5.0006002

                            Additional Code Authors
    E. T. Seidl, C. L. Janssen, E. F. Valeev, M. L. Leininger,
    J. F. Gonthier, R. M. Richard, H. R. McAlexander, M. Saitow, X. Wang,
    P. Verma, and M. H. Lechner

             Previous Authors, Complete List of Code Contributors,
                       and Citations for Specific Modules
    https://github.com/psi4/psi4/blob/master/codemeta.json
    https://github.com/psi4/psi4/graphs/contributors
    http://psicode.org/psi4manual/master/introduction.html#citing-psifour

    -----------------------------------------------------------------------


    Psi4 started on: Saturday, 20 March 2021 09:46PM

    Process ID: 197357
    Host:       c445-114.stampede2.tacc.utexas.edu
    PSIDATADIR: /home1/07844/xy3866/miniconda3/envs/p4env/share/psi4
    Memory:     500.0 MiB
    Threads:    32
    
  ==> Input File <==

--------------------------------------------------------------------------
#psi4
#
memory 32 gb

molecule  {
0 1
  C        0.0000050    -0.0010510     1.5142370
  C       -1.2106420    -0.0596768     0.6969798
  C        1.2520490     0.0607460     0.6690880
  C       -1.4240560    -1.1040230    -0.2532470
  C        1.4240080     1.1043180    -0.2518010
  C       -2.2519720     0.9105530     0.7796940
  C        2.2520300    -0.9115710     0.7784920
  C       -2.5726140    -1.1747650    -1.0400080
  C        2.5725550     1.1761430    -1.0384820
  C       -3.4033600     0.8449620    -0.0099780
  C        3.4034060    -0.8448920    -0.0111060
  C       -3.5670250    -0.1989710    -0.9208610
  C        3.5670250     0.2002580    -0.9206030
  H       -0.0499850     0.8761900     2.1725100
  H        0.0500080    -0.8791980     2.1713010
  H       -0.6441500    -1.8566960    -0.3590190
  H        0.6440540     1.8570770    -0.3565980
  H       -2.1304810     1.7254050     1.4919990
  H        2.1305710    -1.7273750     1.4897110
  H       -2.6925720    -1.9901910    -1.7497850
  H        2.6924780     1.9925180    -1.7471720
  H       -4.1706330     1.6097110     0.0875230
  H        4.1707290    -1.6097160     0.0854040
  H       -4.4617180    -0.2525870    -1.5364500
  H        4.4617050     0.2547150    -1.5361360
units angstrom
no_reorient  #important for SAPT in psi4, default
symmetry c1  #important for SAPT in psi4, default
}

set PROPERTIES_ORIGIN ["COM"]
properties('MP2/aug-cc-pvtz', properties = ['dipole'])
--------------------------------------------------------------------------

  Memory set to  29.802 GiB by Python driver.
    SCF Algorithm Type (re)set to DF.

*** tstart() called on c445-114.stampede2.tacc.utexas.edu
*** at Sat Mar 20 21:46:36 2021

   => Loading Basis Set <=

    Name: AUG-CC-PVTZ
    Role: ORBITAL
    Keyword: BASIS
    atoms 1-13  entry C          line   239 file /home1/07844/xy3866/miniconda3/envs/p4env/share/psi4/basis/aug-cc-pvtz.gbs 
    atoms 14-25 entry H          line    40 file /home1/07844/xy3866/miniconda3/envs/p4env/share/psi4/basis/aug-cc-pvtz.gbs 


         ---------------------------------------------------------
                                   SCF
               by Justin Turney, Rob Parrish, Andy Simmonett
                          and Daniel G. A. Smith
                              RHF Reference
                       32 Threads,  30517 MiB Core
         ---------------------------------------------------------

  ==> Geometry <==

    Molecular point group: c1
    Full point group: C1

    Geometry (in Angstrom), charge = 0, multiplicity = 1:

       Center              X                  Y                   Z               Mass       
    ------------   -----------------  -----------------  -----------------  -----------------
         C           -0.002951169414    -0.001195051924     1.513500420117    12.000000000000
         C           -1.213598169414    -0.059820851924     0.696243220117    12.000000000000
         C            1.249092830586     0.060601948076     0.668351420117    12.000000000000
         C           -1.427012169414    -1.104167051924    -0.253983579883    12.000000000000
         C            1.421051830586     1.104173948076    -0.252537579883    12.000000000000
         C           -2.254928169414     0.910408948076     0.778957420117    12.000000000000
         C            2.249073830586    -0.911715051924     0.777755420117    12.000000000000
         C           -2.575570169414    -1.174909051924    -1.040744579883    12.000000000000
         C            2.569598830586     1.175998948076    -1.039218579883    12.000000000000
         C           -3.406316169414     0.844817948076    -0.010714579883    12.000000000000
         C            3.400449830586    -0.845036051924    -0.011842579883    12.000000000000
         C           -3.569981169414    -0.199115051924    -0.921597579883    12.000000000000
         C            3.564068830586     0.200113948076    -0.921339579883    12.000000000000
         H           -0.052941169414     0.876045948076     2.171773420117     1.007825032230
         H            0.047051830586    -0.879342051924     2.170564420117     1.007825032230
         H           -0.647106169414    -1.856840051924    -0.359755579883     1.007825032230
         H            0.641097830586     1.856932948076    -0.357334579883     1.007825032230
         H           -2.133437169414     1.725260948076     1.491262420117     1.007825032230
         H            2.127614830586    -1.727519051924     1.488974420117     1.007825032230
         H           -2.695528169414    -1.990335051924    -1.750521579883     1.007825032230
         H            2.689521830586     1.992373948076    -1.747908579883     1.007825032230
         H           -4.173589169414     1.609566948076     0.086786420117     1.007825032230
         H            4.167772830586    -1.609860051924     0.084667420117     1.007825032230
         H           -4.464674169414    -0.252731051924    -1.537186579883     1.007825032230
         H            4.458748830586     0.254570948076    -1.536872579883     1.007825032230

  Running in c1 symmetry.

  Rotational constants: A =      0.06621  B =      0.01435  C =      0.01432 [cm^-1]
  Rotational constants: A =   1984.92849  B =    430.08552  C =    429.32606 [MHz]
  Nuclear repulsion =  693.189282380814575

  Charge       = 0
  Multiplicity = 1
  Electrons    = 90
  Nalpha       = 45
  Nbeta        = 45

  ==> Algorithm <==

  SCF Algorithm Type is DF.
  DIIS enabled.
  MOM disabled.
  Fractional occupation disabled.
  Guess Type is SAD.
  Energy threshold   = 1.00e-10
  Density threshold  = 1.00e-10
  Integral threshold = 1.00e-12

  ==> Primary Basis <==

  Basis Set: AUG-CC-PVTZ
    Blend: AUG-CC-PVTZ
    Number of shells: 290
    Number of basis functions: 874
    Number of Cartesian functions: 1015
    Spherical Harmonics?: true
    Max angular momentum: 3

   => Loading Basis Set <=

    Name: (AUG-CC-PVTZ AUX)
    Role: JKFIT
    Keyword: DF_BASIS_SCF
    atoms 1-13  entry C          line   162 file /home1/07844/xy3866/miniconda3/envs/p4env/share/psi4/basis/aug-cc-pvtz-jkfit.gbs 
    atoms 14-25 entry H          line    70 file /home1/07844/xy3866/miniconda3/envs/p4env/share/psi4/basis/aug-cc-pvtz-jkfit.gbs 

  ==> Integral Setup <==

  DFHelper Memory: AOs need 9.588 GiB; user supplied 22.352 GiB. Using in-core AOs.

  ==> MemDFJK: Density-Fitted J/K Matrices <==

    J tasked:                   Yes
    K tasked:                   Yes
    wK tasked:                   No
    OpenMP threads:              32
    Memory [MiB]:             22888
    Algorithm:                 Core
    Schwarz Cutoff:           1E-12
    Mask sparsity (%):      14.8655
    Fitting Condition:        1E-10

   => Auxiliary Basis Set <=

  Basis Set: (AUG-CC-PVTZ AUX)
    Blend: AUG-CC-PVTZ-JKFIT
    Number of shells: 558
    Number of basis functions: 1904
    Number of Cartesian functions: 2363
    Spherical Harmonics?: true
    Max angular momentum: 4

  Minimum eigenvalue in the overlap matrix is 3.2898939065E-07.
  Reciprocal condition number of the overlap matrix is 1.4990300734E-08.
    Using symmetric orthogonalization.

  ==> Pre-Iterations <==

  SCF Guess: Superposition of Atomic Densities via on-the-fly atomic UHF (no occupation information).

   -------------------------
    Irrep   Nso     Nmo    
   -------------------------
     A        874     874 
   -------------------------
    Total     874     874
   -------------------------

  ==> Iterations <==

                           Total Energy        Delta E     RMS |[F,P]|

   @DF-RHF iter SAD:  -498.89912223046383   -4.98899e+02   0.00000e+00 
   @DF-RHF iter   1:  -499.06806500996328   -1.68943e-01   8.75740e-04 DIIS
   @DF-RHF iter   2:  -499.36943651794707   -3.01372e-01   4.09748e-04 DIIS
   @DF-RHF iter   3:  -499.43548316332931   -6.60466e-02   8.24919e-05 DIIS
   @DF-RHF iter   4:  -499.43928576221708   -3.80260e-03   2.80895e-05 DIIS
   @DF-RHF iter   5:  -499.43962703533487   -3.41273e-04   8.51921e-06 DIIS
   @DF-RHF iter   6:  -499.43965985313525   -3.28178e-05   2.08490e-06 DIIS
   @DF-RHF iter   7:  -499.43966250455185   -2.65142e-06   5.60019e-07 DIIS
   @DF-RHF iter   8:  -499.43966278781079   -2.83259e-07   2.17806e-07 DIIS
   @DF-RHF iter   9:  -499.43966285569542   -6.78846e-08   1.15657e-07 DIIS
   @DF-RHF iter  10:  -499.43966288373764   -2.80422e-08   4.67296e-08 DIIS
   @DF-RHF iter  11:  -499.43966289025747   -6.51983e-09   1.73527e-08 DIIS
   @DF-RHF iter  12:  -499.43966289079691   -5.39444e-10   7.09752e-09 DIIS
   @DF-RHF iter  13:  -499.43966289086796   -7.10543e-11   1.94757e-09 DIIS
   @DF-RHF iter  14:  -499.43966289087211   -4.14957e-12   6.90290e-10 DIIS
   @DF-RHF iter  15:  -499.43966289087427   -2.16005e-12   3.11048e-10 DIIS
   @DF-RHF iter  16:  -499.43966289087308    1.19371e-12   1.34049e-10 DIIS
   @DF-RHF iter  17:  -499.43966289087314   -5.68434e-14   7.52081e-11 DIIS
  Energy and wave function converged.


  ==> Post-Iterations <==

    Orbital Energies [Eh]
    ---------------------

    Doubly Occupied:                                                      

       1A    -11.246183     2A    -11.243757     3A    -11.236785  
       4A    -11.236587     5A    -11.236451     6A    -11.236281  
       7A    -11.235701     8A    -11.235240     9A    -11.233635  
      10A    -11.233382    11A    -11.233116    12A    -11.232811  
      13A    -11.231602    14A     -1.161946    15A     -1.142345  
      16A     -1.072466    17A     -1.012605    18A     -1.009237  
      19A     -1.005863    20A     -0.928453    21A     -0.828899  
      22A     -0.821742    23A     -0.815187    24A     -0.782196  
      25A     -0.698383    26A     -0.687679    27A     -0.644753  
      28A     -0.639656    29A     -0.635973    30A     -0.614963  
      31A     -0.584710    32A     -0.580101    33A     -0.576105  
      34A     -0.573144    35A     -0.545637    36A     -0.510369  
      37A     -0.496908    38A     -0.494759    39A     -0.485175  
      40A     -0.480022    41A     -0.472751    42A     -0.340101  
      43A     -0.335490    44A     -0.332978    45A     -0.311859  

    Virtual:                                                              

      46A      0.027701    47A      0.030460    48A      0.033869  
      49A      0.034075    50A      0.041167    51A      0.047259  
      52A      0.047388    53A      0.051056    54A      0.062623  
      55A      0.066252    56A      0.067037    57A      0.067913  
      58A      0.087391    59A      0.097078    60A      0.098964  
      61A      0.100659    62A      0.102273    63A      0.107108  
      64A      0.107886    65A      0.112521    66A      0.113104  
      67A      0.118929    68A      0.120989    69A      0.122161  
      70A      0.123276    71A      0.124873    72A      0.128574  
      73A      0.130752    74A      0.131450    75A      0.132339  
      76A      0.132524    77A      0.142113    78A      0.144999  
      79A      0.145463    80A      0.148329    81A      0.156342  
      82A      0.157776    83A      0.158603    84A      0.160069  
      85A      0.161443    86A      0.164635    87A      0.168256  
      88A      0.169067    89A      0.178349    90A      0.182697  
      91A      0.183837    92A      0.197054    93A      0.198246  
      94A      0.205370    95A      0.208209    96A      0.216342  
      97A      0.223768    98A      0.231190    99A      0.231911  
     100A      0.235933   101A      0.240421   102A      0.252975  
     103A      0.254517   104A      0.258131   105A      0.260432  
     106A      0.261515   107A      0.263320   108A      0.269883  
     109A      0.270382   110A      0.273347   111A      0.277955  
     112A      0.286988   113A      0.289086   114A      0.295495  
     115A      0.299756   116A      0.301216   117A      0.304703  
     118A      0.305750   119A      0.310406   120A      0.311449  
     121A      0.314668   122A      0.320923   123A      0.321658  
     124A      0.326558   125A      0.328190   126A      0.331727  
     127A      0.336042   128A      0.344040   129A      0.344366  
     130A      0.349633   131A      0.351777   132A      0.358028  
     133A      0.359398   134A      0.365947   135A      0.367510  
     136A      0.369382   137A      0.374452   138A      0.381757  
     139A      0.384119   140A      0.391945   141A      0.394922  
     142A      0.408107   143A      0.412942   144A      0.415785  
     145A      0.422303   146A      0.423840   147A      0.428077  
     148A      0.431609   149A      0.434063   150A      0.442115  
     151A      0.445135   152A      0.445843   153A      0.453947  
     154A      0.455141   155A      0.457454   156A      0.458696  
     157A      0.463434   158A      0.467805   159A      0.468947  
     160A      0.474150   161A      0.475408   162A      0.475601  
     163A      0.483633   164A      0.487885   165A      0.489510  
     166A      0.491957   167A      0.496561   168A      0.499951  
     169A      0.501959   170A      0.504781   171A      0.507529  
     172A      0.508999   173A      0.510922   174A      0.515413  
     175A      0.520577   176A      0.521913   177A      0.524231  
     178A      0.526703   179A      0.530686   180A      0.531994  
     181A      0.533601   182A      0.535210   183A      0.541649  
     184A      0.542790   185A      0.548036   186A      0.551606  
     187A      0.553466   188A      0.557401   189A      0.561628  
     190A      0.563167   191A      0.571302   192A      0.574753  
     193A      0.578911   194A      0.586595   195A      0.587232  
     196A      0.594533   197A      0.597188   198A      0.607898  
     199A      0.613213   200A      0.617515   201A      0.624579  
     202A      0.625962   203A      0.628667   204A      0.632556  
     205A      0.644536   206A      0.645262   207A      0.652276  
     208A      0.654682   209A      0.665495   210A      0.666990  
     211A      0.676447   212A      0.681168   213A      0.681930  
     214A      0.691732   215A      0.694148   216A      0.695235  
     217A      0.695942   218A      0.696457   219A      0.707963  
     220A      0.712424   221A      0.720966   222A      0.722128  
     223A      0.724056   224A      0.728525   225A      0.730969  
     226A      0.736132   227A      0.752326   228A      0.756840  
     229A      0.757779   230A      0.760724   231A      0.772985  
     232A      0.776819   233A      0.780270   234A      0.783399  
     235A      0.784370   236A      0.797228   237A      0.802654  
     238A      0.803978   239A      0.816455   240A      0.822734  
     241A      0.826426   242A      0.832285   243A      0.835255  
     244A      0.843260   245A      0.849461   246A      0.851850  
     247A      0.856055   248A      0.862753   249A      0.865017  
     250A      0.869979   251A      0.874280   252A      0.875691  
     253A      0.877931   254A      0.883198   255A      0.892040  
     256A      0.892856   257A      0.897339   258A      0.899490  
     259A      0.901587   260A      0.910352   261A      0.916607  
     262A      0.917672   263A      0.920920   264A      0.925355  
     265A      0.930813   266A      0.938497   267A      0.939778  
     268A      0.942474   269A      0.949949   270A      0.950848  
     271A      0.955511   272A      0.961367   273A      0.968985  
     274A      0.970240   275A      0.976263   276A      0.979743  
     277A      0.982081   278A      0.989344   279A      0.995775  
     280A      1.006108   281A      1.008117   282A      1.011117  
     283A      1.014171   284A      1.016117   285A      1.022551  
     286A      1.030405   287A      1.033044   288A      1.038554  
     289A      1.046507   290A      1.052027   291A      1.054480  
     292A      1.058912   293A      1.064995   294A      1.069534  
     295A      1.073377   296A      1.076848   297A      1.083403  
     298A      1.087154   299A      1.088105   300A      1.088640  
     301A      1.094701   302A      1.097630   303A      1.099027  
     304A      1.104273   305A      1.114313   306A      1.119416  
     307A      1.122717   308A      1.125065   309A      1.128097  
     310A      1.131796   311A      1.133580   312A      1.138725  
     313A      1.142046   314A      1.150186   315A      1.154527  
     316A      1.155943   317A      1.164036   318A      1.172518  
     319A      1.173979   320A      1.176270   321A      1.178397  
     322A      1.190822   323A      1.192191   324A      1.195109  
     325A      1.198844   326A      1.199572   327A      1.200393  
     328A      1.206389   329A      1.211482   330A      1.213605  
     331A      1.219711   332A      1.227597   333A      1.228482  
     334A      1.229792   335A      1.232751   336A      1.236754  
     337A      1.237712   338A      1.241691   339A      1.255655  
     340A      1.259241   341A      1.274559   342A      1.275446  
     343A      1.275652   344A      1.281278   345A      1.289449  
     346A      1.297737   347A      1.300678   348A      1.305503  
     349A      1.307265   350A      1.316829   351A      1.327119  
     352A      1.328284   353A      1.334668   354A      1.344691  
     355A      1.345021   356A      1.361386   357A      1.362730  
     358A      1.364432   359A      1.365291   360A      1.376701  
     361A      1.379120   362A      1.388745   363A      1.392654  
     364A      1.397193   365A      1.406352   366A      1.412439  
     367A      1.420820   368A      1.423547   369A      1.426850  
     370A      1.433989   371A      1.438052   372A      1.449736  
     373A      1.452420   374A      1.457645   375A      1.469630  
     376A      1.473290   377A      1.482011   378A      1.487526  
     379A      1.495055   380A      1.495992   381A      1.507215  
     382A      1.508211   383A      1.512258   384A      1.527146  
     385A      1.534798   386A      1.537565   387A      1.539039  
     388A      1.554196   389A      1.568674   390A      1.569469  
     391A      1.575443   392A      1.576592   393A      1.588718  
     394A      1.596746   395A      1.604063   396A      1.609178  
     397A      1.614823   398A      1.628348   399A      1.633794  
     400A      1.636878   401A      1.646899   402A      1.664045  
     403A      1.669957   404A      1.680461   405A      1.684530  
     406A      1.694520   407A      1.698040   408A      1.714172  
     409A      1.718260   410A      1.721892   411A      1.729275  
     412A      1.734432   413A      1.737786   414A      1.744866  
     415A      1.758662   416A      1.765288   417A      1.765626  
     418A      1.771889   419A      1.778263   420A      1.784409  
     421A      1.788113   422A      1.795028   423A      1.800849  
     424A      1.805738   425A      1.810295   426A      1.822469  
     427A      1.831499   428A      1.838849   429A      1.840662  
     430A      1.848009   431A      1.856373   432A      1.864412  
     433A      1.865165   434A      1.868320   435A      1.875094  
     436A      1.879555   437A      1.883970   438A      1.888852  
     439A      1.900863   440A      1.912872   441A      1.923223  
     442A      1.926590   443A      1.927572   444A      1.939336  
     445A      1.942670   446A      1.956172   447A      1.960842  
     448A      1.983102   449A      1.986305   450A      1.992311  
     451A      2.005348   452A      2.012246   453A      2.017160  
     454A      2.020586   455A      2.027501   456A      2.028232  
     457A      2.043206   458A      2.049035   459A      2.052985  
     460A      2.058600   461A      2.061581   462A      2.065783  
     463A      2.076570   464A      2.078604   465A      2.079973  
     466A      2.093840   467A      2.099303   468A      2.100749  
     469A      2.110869   470A      2.115344   471A      2.130030  
     472A      2.131579   473A      2.138254   474A      2.141004  
     475A      2.145408   476A      2.150690   477A      2.156304  
     478A      2.158761   479A      2.169691   480A      2.173640  
     481A      2.178533   482A      2.182100   483A      2.190030  
     484A      2.203202   485A      2.220161   486A      2.223582  
     487A      2.226213   488A      2.236023   489A      2.241625  
     490A      2.247330   491A      2.254677   492A      2.270841  
     493A      2.274304   494A      2.293769   495A      2.317366  
     496A      2.324782   497A      2.328224   498A      2.340870  
     499A      2.343383   500A      2.346266   501A      2.352981  
     502A      2.374146   503A      2.375703   504A      2.381018  
     505A      2.389406   506A      2.407480   507A      2.411843  
     508A      2.421307   509A      2.426404   510A      2.431887  
     511A      2.440059   512A      2.441943   513A      2.458457  
     514A      2.472049   515A      2.486788   516A      2.492362  
     517A      2.496032   518A      2.500137   519A      2.510051  
     520A      2.518542   521A      2.527968   522A      2.542375  
     523A      2.577804   524A      2.581851   525A      2.591082  
     526A      2.613644   527A      2.624419   528A      2.638157  
     529A      2.640152   530A      2.644261   531A      2.649363  
     532A      2.651394   533A      2.683649   534A      2.719957  
     535A      2.730113   536A      2.753323   537A      2.757505  
     538A      2.795439   539A      2.799999   540A      2.813877  
     541A      2.814607   542A      2.825637   543A      2.830714  
     544A      2.855280   545A      2.869087   546A      2.892477  
     547A      2.902753   548A      2.939557   549A      2.964509  
     550A      2.992989   551A      3.041153   552A      3.054642  
     553A      3.084970   554A      3.122743   555A      3.131163  
     556A      3.173711   557A      3.198877   558A      3.205555  
     559A      3.220014   560A      3.227155   561A      3.229978  
     562A      3.251301   563A      3.274687   564A      3.279279  
     565A      3.295920   566A      3.310828   567A      3.329778  
     568A      3.333135   569A      3.345597   570A      3.356229  
     571A      3.360728   572A      3.374499   573A      3.388841  
     574A      3.391211   575A      3.398791   576A      3.404541  
     577A      3.411659   578A      3.413910   579A      3.431109  
     580A      3.445754   581A      3.456258   582A      3.459438  
     583A      3.468738   584A      3.473641   585A      3.482155  
     586A      3.487479   587A      3.491045   588A      3.504295  
     589A      3.526020   590A      3.528948   591A      3.537896  
     592A      3.540294   593A      3.542083   594A      3.548180  
     595A      3.555703   596A      3.571709   597A      3.573417  
     598A      3.581717   599A      3.584057   600A      3.587766  
     601A      3.594783   602A      3.597111   603A      3.605371  
     604A      3.623968   605A      3.625970   606A      3.629700  
     607A      3.633937   608A      3.639001   609A      3.649743  
     610A      3.660291   611A      3.674935   612A      3.694890  
     613A      3.707473   614A      3.713265   615A      3.718826  
     616A      3.724924   617A      3.731968   618A      3.737462  
     619A      3.743964   620A      3.756587   621A      3.759411  
     622A      3.770624   623A      3.780712   624A      3.783351  
     625A      3.799255   626A      3.804534   627A      3.819096  
     628A      3.833281   629A      3.837288   630A      3.851719  
     631A      3.858184   632A      3.866117   633A      3.876712  
     634A      3.883465   635A      3.887449   636A      3.891042  
     637A      3.894528   638A      3.909336   639A      3.912548  
     640A      3.919897   641A      3.922302   642A      3.937736  
     643A      3.940073   644A      3.943756   645A      3.952734  
     646A      3.975953   647A      3.981523   648A      3.987357  
     649A      3.988697   650A      3.999101   651A      4.006438  
     652A      4.019977   653A      4.023035   654A      4.026288  
     655A      4.031944   656A      4.036533   657A      4.040431  
     658A      4.045458   659A      4.047823   660A      4.065693  
     661A      4.068383   662A      4.074979   663A      4.086354  
     664A      4.103870   665A      4.113574   666A      4.116443  
     667A      4.122547   668A      4.132347   669A      4.137780  
     670A      4.153570   671A      4.155743   672A      4.168102  
     673A      4.173085   674A      4.183939   675A      4.190006  
     676A      4.197273   677A      4.201429   678A      4.213533  
     679A      4.215315   680A      4.238631   681A      4.241724  
     682A      4.254426   683A      4.266458   684A      4.275441  
     685A      4.282859   686A      4.292691   687A      4.295103  
     688A      4.302680   689A      4.310164   690A      4.320941  
     691A      4.322978   692A      4.332260   693A      4.336695  
     694A      4.344332   695A      4.355440   696A      4.361616  
     697A      4.367935   698A      4.369172   699A      4.388926  
     700A      4.397225   701A      4.401096   702A      4.408494  
     703A      4.412744   704A      4.426035   705A      4.432681  
     706A      4.435038   707A      4.449450   708A      4.453328  
     709A      4.456198   710A      4.466559   711A      4.472552  
     712A      4.480110   713A      4.484707   714A      4.491634  
     715A      4.498529   716A      4.501223   717A      4.502787  
     718A      4.505875   719A      4.520766   720A      4.533379  
     721A      4.535424   722A      4.556493   723A      4.581023  
     724A      4.598644   725A      4.609595   726A      4.621573  
     727A      4.643441   728A      4.649903   729A      4.662461  
     730A      4.669528   731A      4.699356   732A      4.717447  
     733A      4.722073   734A      4.730919   735A      4.733176  
     736A      4.739159   737A      4.752917   738A      4.763851  
     739A      4.770580   740A      4.777430   741A      4.785398  
     742A      4.791152   743A      4.798285   744A      4.800289  
     745A      4.816599   746A      4.829693   747A      4.853667  
     748A      4.881635   749A      4.890058   750A      4.901222  
     751A      4.902611   752A      4.914982   753A      4.923410  
     754A      4.940550   755A      4.946787   756A      4.965591  
     757A      4.987941   758A      5.000308   759A      5.007186  
     760A      5.026462   761A      5.031686   762A      5.034064  
     763A      5.046308   764A      5.072730   765A      5.084120  
     766A      5.088238   767A      5.095841   768A      5.098923  
     769A      5.118595   770A      5.123064   771A      5.123259  
     772A      5.125557   773A      5.148037   774A      5.151442  
     775A      5.165634   776A      5.169120   777A      5.171735  
     778A      5.175846   779A      5.177141   780A      5.185985  
     781A      5.188554   782A      5.191777   783A      5.196390  
     784A      5.237377   785A      5.245603   786A      5.256032  
     787A      5.269891   788A      5.279135   789A      5.286278  
     790A      5.299988   791A      5.308233   792A      5.338863  
     793A      5.341355   794A      5.345538   795A      5.370307  
     796A      5.372243   797A      5.386127   798A      5.407837  
     799A      5.426571   800A      5.428530   801A      5.434290  
     802A      5.454882   803A      5.463797   804A      5.486622  
     805A      5.495861   806A      5.498070   807A      5.513387  
     808A      5.521169   809A      5.535479   810A      5.570952  
     811A      5.603246   812A      5.616563   813A      5.661811  
     814A      5.680058   815A      5.694841   816A      5.722146  
     817A      5.729120   818A      5.769182   819A      5.778067  
     820A      5.789984   821A      5.793706   822A      5.796770  
     823A      5.821202   824A      5.834056   825A      5.844175  
     826A      5.942473   827A      5.970295   828A      6.047642  
     829A      6.067511   830A      6.115952   831A      6.132249  
     832A      6.173770   833A      6.188853   834A      6.191266  
     835A      6.229927   836A      6.249827   837A      6.286929  
     838A      6.316997   839A      6.318582   840A      6.375412  
     841A      6.385424   842A      6.411559   843A      6.433829  
     844A      6.441494   845A      6.472461   846A      6.556440  
     847A      6.572571   848A      6.603978   849A      6.625199  
     850A      6.712607   851A      6.795757   852A      6.814411  
     853A      6.910309   854A      6.922085   855A      6.978486  
     856A      7.002038   857A      7.019836   858A      7.137426  
     859A      7.163320   860A      7.288568   861A      7.329275  
     862A     15.910576   863A     16.108025   864A     16.254578  
     865A     16.553118   866A     18.672804   867A     18.972096  
     868A     19.136854   869A     19.473306   870A     19.611328  
     871A     20.035175   872A     20.427749   873A     20.536356  
     874A     21.593778  

    Final Occupation by Irrep:
              A 
    DOCC [    45 ]

  @DF-RHF Final Energy:  -499.43966289087314

   => Energetics <=

    Nuclear Repulsion Energy =            693.1892823808145749
    One-Electron Energy =               -2049.8699180196090310
    Two-Electron Energy =                 857.2409727479213188
    Total Energy =                       -499.4396628908731373

Computation Completed

*** tstop() called on c445-114.stampede2.tacc.utexas.edu at Sat Mar 20 21:47:44 2021
Module time:
	user time   =    1318.01 seconds =      21.97 minutes
	system time =      66.96 seconds =       1.12 minutes
	total time  =         68 seconds =       1.13 minutes
Total time:
	user time   =    1318.01 seconds =      21.97 minutes
	system time =      66.96 seconds =       1.12 minutes
	total time  =         68 seconds =       1.13 minutes
   => Loading Basis Set <=

    Name: (AUG-CC-PVTZ AUX)
    Role: RIFIT
    Keyword: DF_BASIS_MP2
    atoms 1-13  entry C          line   148 file /home1/07844/xy3866/miniconda3/envs/p4env/share/psi4/basis/aug-cc-pvtz-ri.gbs 
    atoms 14-25 entry H          line    30 file /home1/07844/xy3866/miniconda3/envs/p4env/share/psi4/basis/aug-cc-pvtz-ri.gbs 


*** tstart() called on c445-114.stampede2.tacc.utexas.edu
*** at Sat Mar 20 21:47:45 2021


  //>>>>>>>>>>>>>>>>>>>>>>>>>>>>>>>>>>>//
  //               DFMP2               //
  //<<<<<<<<<<<<<<<<<<<<<<<<<<<<<<<<<<<//

	 --------------------------------------------------------
	                          DF-MP2                         
	      2nd-Order Density-Fitted Moller-Plesset Theory     
	              RMP2 Wavefunction,  32 Threads             
	                                                         
	        Rob Parrish, Justin Turney, Andy Simmonett,      
	           Ed Hohenstein, and C. David Sherrill          
	 --------------------------------------------------------

   => Auxiliary Basis Set <=

  Basis Set: (AUG-CC-PVTZ AUX)
    Blend: AUG-CC-PVTZ-RI
    Number of shells: 532
    Number of basis functions: 1930
    Number of Cartesian functions: 2428
    Spherical Harmonics?: true
    Max angular momentum: 4

	 --------------------------------------------------------
	                 NBF =   874, NAUX =  1930
	 --------------------------------------------------------
	   CLASS    FOCC     OCC    AOCC    AVIR     VIR    FVIR
	   PAIRS       0      45      45     829     829       0
	 --------------------------------------------------------

  DFHelper Memory: AOs need 10.170 GiB; user supplied 22.352 GiB. Using in-core AOs.


         ------------------------------------------------------------
                                     CPHF                           
                                  Rob Parrish                       
         ------------------------------------------------------------

  ==> Geometry <==

    Molecular point group: c1
    Full point group: C1

    Geometry (in Angstrom), charge = 0, multiplicity = 1:

       Center              X                  Y                   Z               Mass       
    ------------   -----------------  -----------------  -----------------  -----------------
         C           -0.002951169414    -0.001195051924     1.513500420117    12.000000000000
         C           -1.213598169414    -0.059820851924     0.696243220117    12.000000000000
         C            1.249092830586     0.060601948076     0.668351420117    12.000000000000
         C           -1.427012169414    -1.104167051924    -0.253983579883    12.000000000000
         C            1.421051830586     1.104173948076    -0.252537579883    12.000000000000
         C           -2.254928169414     0.910408948076     0.778957420117    12.000000000000
         C            2.249073830586    -0.911715051924     0.777755420117    12.000000000000
         C           -2.575570169414    -1.174909051924    -1.040744579883    12.000000000000
         C            2.569598830586     1.175998948076    -1.039218579883    12.000000000000
         C           -3.406316169414     0.844817948076    -0.010714579883    12.000000000000
         C            3.400449830586    -0.845036051924    -0.011842579883    12.000000000000
         C           -3.569981169414    -0.199115051924    -0.921597579883    12.000000000000
         C            3.564068830586     0.200113948076    -0.921339579883    12.000000000000
         H           -0.052941169414     0.876045948076     2.171773420117     1.007825032230
         H            0.047051830586    -0.879342051924     2.170564420117     1.007825032230
         H           -0.647106169414    -1.856840051924    -0.359755579883     1.007825032230
         H            0.641097830586     1.856932948076    -0.357334579883     1.007825032230
         H           -2.133437169414     1.725260948076     1.491262420117     1.007825032230
         H            2.127614830586    -1.727519051924     1.488974420117     1.007825032230
         H           -2.695528169414    -1.990335051924    -1.750521579883     1.007825032230
         H            2.689521830586     1.992373948076    -1.747908579883     1.007825032230
         H           -4.173589169414     1.609566948076     0.086786420117     1.007825032230
         H            4.167772830586    -1.609860051924     0.084667420117     1.007825032230
         H           -4.464674169414    -0.252731051924    -1.537186579883     1.007825032230
         H            4.458748830586     0.254570948076    -1.536872579883     1.007825032230

  Nuclear repulsion =  693.189282380814575
  Reference energy  = -499.439662890873137

  ==> Basis Set <==

  Basis Set: AUG-CC-PVTZ
    Blend: AUG-CC-PVTZ
    Number of shells: 290
    Number of basis functions: 874
    Number of Cartesian functions: 1015
    Spherical Harmonics?: true
    Max angular momentum: 3

  ==> CGRSolver (by Rob Parrish) <==

   Number of roots    =         1
   Preconditioning    =    JACOBI
   Convergence cutoff =     1E-06
   Maximum iterations =       100

  ==> CPHFRHamiltonian (by Rob Parrish) <== 

  ==> MemDFJK: Density-Fitted J/K Matrices <==

    J tasked:                   Yes
    K tasked:                   Yes
    wK tasked:                   No
    OpenMP threads:              32
    Memory [MiB]:             22888
    Algorithm:                 Core
    Schwarz Cutoff:           1E-12
    Mask sparsity (%):       9.4950
    Fitting Condition:        1E-10

   => Auxiliary Basis Set <=

  Basis Set: (AUG-CC-PVTZ AUX)
    Blend: AUG-CC-PVTZ-JKFIT
    Number of shells: 558
    Number of basis functions: 1904
    Number of Cartesian functions: 2363
    Spherical Harmonics?: true
    Max angular momentum: 4

  ==> CPHF Iterations <==

  => Iterations <=

             Iter  Converged  Remaining    Residual
  CGR           1          0          1   7.604E-02
  CGR           2          0          1   1.591E-02
  CGR           3          0          1   6.555E-03
  CGR           4          0          1   4.031E-03
  CGR           5          0          1   1.745E-03
  CGR           6          0          1   6.425E-04
  CGR           7          0          1   1.961E-04
  CGR           8          0          1   7.008E-05
  CGR           9          0          1   2.283E-05
  CGR          10          0          1   8.971E-06
  CGR          11          0          1   5.099E-06
  CGR          12          0          1   1.364E-06
  CGR          13          1          0   5.010E-07

    CGRSolver converged.

	-----------------------------------------------------------
	 ==================> DF-MP2 Energies <==================== 
	-----------------------------------------------------------
	 Reference Energy          =    -499.4396628908731373 [Eh]
	 Singles Energy            =      -0.0000000000000000 [Eh]
	 Same-Spin Energy          =      -0.5647922631915141 [Eh]
	 Opposite-Spin Energy      =      -1.7796395178327240 [Eh]
	 Correlation Energy        =      -2.3444317810242383 [Eh]
	 Total Energy              =    -501.7840946718973782 [Eh]
	-----------------------------------------------------------
	 ================> DF-SCS-MP2 Energies <================== 
	-----------------------------------------------------------
	 SCS Same-Spin Scale       =       0.3333333333333333 [-]
	 SCS Opposite-Spin Scale   =       1.2000000000000000 [-]
	 SCS Same-Spin Energy      =      -0.1882640877305047 [Eh]
	 SCS Opposite-Spin Energy  =      -2.1355674213992688 [Eh]
	 SCS Correlation Energy    =      -2.3238315091297737 [Eh]
	 SCS Total Energy          =    -501.7634944000029122 [Eh]
	-----------------------------------------------------------



Properties will be evaluated at  -0.000000,   0.000000,   0.000000 [a0]

Properties computed using the MP2 density matrix

  Nuclear Dipole Moment: [e a0]
     X:    -0.0333      Y:    -0.0018      Z:     0.1917

  Electronic Dipole Moment: [e a0]
     X:     0.0648      Y:     0.0009      Z:    -0.1564

  Dipole Moment: [e a0]
     X:     0.0315      Y:    -0.0009      Z:     0.0353     Total:     0.0473

  Dipole Moment: [D]
     X:     0.0801      Y:    -0.0023      Z:     0.0897     Total:     0.1203


*** tstop() called on c445-114.stampede2.tacc.utexas.edu at Sat Mar 20 21:54:48 2021
Module time:
	user time   =    4423.53 seconds =      73.73 minutes
	system time =      96.13 seconds =       1.60 minutes
	total time  =        423 seconds =       7.05 minutes
Total time:
	user time   =    5742.80 seconds =      95.71 minutes
	system time =     163.11 seconds =       2.72 minutes
	total time  =        492 seconds =       8.20 minutes

    Psi4 stopped on: Saturday, 20 March 2021 09:54PM
    Psi4 wall time for execution: 0:08:13.05

*** Psi4 exiting successfully. Buy a developer a beer!
