
    -----------------------------------------------------------------------
          Psi4: An Open-Source Ab Initio Electronic Structure Package
                               Psi4 1.4a3.dev225 

                         Git: Rev {master} 7105e37 


    D. G. A. Smith, L. A. Burns, A. C. Simmonett, R. M. Parrish,
    M. C. Schieber, R. Galvelis, P. Kraus, H. Kruse, R. Di Remigio,
    A. Alenaizan, A. M. James, S. Lehtola, J. P. Misiewicz, M. Scheurer,
    R. A. Shaw, J. B. Schriber, Y. Xie, Z. L. Glick, D. A. Sirianni,
    J. S. O'Brien, J. M. Waldrop, A. Kumar, E. G. Hohenstein,
    B. P. Pritchard, B. R. Brooks, H. F. Schaefer III, A. Yu. Sokolov,
    K. Patkowski, A. E. DePrince III, U. Bozkaya, R. A. King,
    F. A. Evangelista, J. M. Turney, T. D. Crawford, C. D. Sherrill,
    J. Chem. Phys. 152(18) 184108 (2020). https://doi.org/10.1063/5.0006002

                            Additional Code Authors
    E. T. Seidl, C. L. Janssen, E. F. Valeev, M. L. Leininger,
    J. F. Gonthier, R. M. Richard, H. R. McAlexander, M. Saitow, X. Wang,
    P. Verma, and M. H. Lechner

             Previous Authors, Complete List of Code Contributors,
                       and Citations for Specific Modules
    https://github.com/psi4/psi4/blob/master/codemeta.json
    https://github.com/psi4/psi4/graphs/contributors
    http://psicode.org/psi4manual/master/introduction.html#citing-psifour

    -----------------------------------------------------------------------


    Psi4 started on: Saturday, 20 March 2021 10:03PM

    Process ID: 199420
    Host:       c445-114.stampede2.tacc.utexas.edu
    PSIDATADIR: /home1/07844/xy3866/miniconda3/envs/p4env/share/psi4
    Memory:     500.0 MiB
    Threads:    32
    
  ==> Input File <==

--------------------------------------------------------------------------
#psi4
#
memory 32 gb

molecule  {
0 1
  C        0.0000050    -0.0010510     1.5142370
  C       -1.2934580    -0.0636872     0.6410742
  C        1.2520490     0.0607460     0.6690880
  C       -1.4240560    -1.1040230    -0.2532470
  C        1.4240080     1.1043180    -0.2518010
  C       -2.2519720     0.9105530     0.7796940
  C        2.2520300    -0.9115710     0.7784920
  C       -2.5726140    -1.1747650    -1.0400080
  C        2.5725550     1.1761430    -1.0384820
  C       -3.4033600     0.8449620    -0.0099780
  C        3.4034060    -0.8448920    -0.0111060
  C       -3.5670250    -0.1989710    -0.9208610
  C        3.5670250     0.2002580    -0.9206030
  H       -0.0499850     0.8761900     2.1725100
  H        0.0500080    -0.8791980     2.1713010
  H       -0.6441500    -1.8566960    -0.3590190
  H        0.6440540     1.8570770    -0.3565980
  H       -2.1304810     1.7254050     1.4919990
  H        2.1305710    -1.7273750     1.4897110
  H       -2.6925720    -1.9901910    -1.7497850
  H        2.6924780     1.9925180    -1.7471720
  H       -4.1706330     1.6097110     0.0875230
  H        4.1707290    -1.6097160     0.0854040
  H       -4.4617180    -0.2525870    -1.5364500
  H        4.4617050     0.2547150    -1.5361360
units angstrom
no_reorient  #important for SAPT in psi4, default
symmetry c1  #important for SAPT in psi4, default
}

set PROPERTIES_ORIGIN ["COM"]
properties('MP2/aug-cc-pvtz', properties = ['dipole'])
--------------------------------------------------------------------------

  Memory set to  29.802 GiB by Python driver.
    SCF Algorithm Type (re)set to DF.

*** tstart() called on c445-114.stampede2.tacc.utexas.edu
*** at Sat Mar 20 22:03:26 2021

   => Loading Basis Set <=

    Name: AUG-CC-PVTZ
    Role: ORBITAL
    Keyword: BASIS
    atoms 1-13  entry C          line   239 file /home1/07844/xy3866/miniconda3/envs/p4env/share/psi4/basis/aug-cc-pvtz.gbs 
    atoms 14-25 entry H          line    40 file /home1/07844/xy3866/miniconda3/envs/p4env/share/psi4/basis/aug-cc-pvtz.gbs 


         ---------------------------------------------------------
                                   SCF
               by Justin Turney, Rob Parrish, Andy Simmonett
                          and Daniel G. A. Smith
                              RHF Reference
                       32 Threads,  30517 MiB Core
         ---------------------------------------------------------

  ==> Geometry <==

    Molecular point group: c1
    Full point group: C1

    Geometry (in Angstrom), charge = 0, multiplicity = 1:

       Center              X                  Y                   Z               Mass       
    ------------   -----------------  -----------------  -----------------  -----------------
         C            0.002960954689    -0.000908754801     1.517491446552    12.000000000000
         C           -1.290502045311    -0.063544954801     0.644328646552    12.000000000000
         C            1.255004954689     0.060888245199     0.672342446552    12.000000000000
         C           -1.421100045311    -1.103880754801    -0.249992553448    12.000000000000
         C            1.426963954689     1.104460245199    -0.248546553448    12.000000000000
         C           -2.249016045311     0.910695245199     0.782948446552    12.000000000000
         C            2.254985954689    -0.911428754801     0.781746446552    12.000000000000
         C           -2.569658045311    -1.174622754801    -1.036753553448    12.000000000000
         C            2.575510954689     1.176285245199    -1.035227553448    12.000000000000
         C           -3.400404045311     0.845104245199    -0.006723553448    12.000000000000
         C            3.406361954689    -0.844749754801    -0.007851553448    12.000000000000
         C           -3.564069045311    -0.198828754801    -0.917606553448    12.000000000000
         C            3.569980954689     0.200400245199    -0.917348553448    12.000000000000
         H           -0.047029045311     0.876332245199     2.175764446552     1.007825032230
         H            0.052963954689    -0.879055754801     2.174555446552     1.007825032230
         H           -0.641194045311    -1.856553754801    -0.355764553448     1.007825032230
         H            0.647009954689     1.857219245199    -0.353343553448     1.007825032230
         H           -2.127525045311     1.725547245199     1.495253446552     1.007825032230
         H            2.133526954689    -1.727232754801     1.492965446552     1.007825032230
         H           -2.689616045311    -1.990048754801    -1.746530553448     1.007825032230
         H            2.695433954689     1.992660245199    -1.743917553448     1.007825032230
         H           -4.167677045311     1.609853245199     0.090777446552     1.007825032230
         H            4.173684954689    -1.609573754801     0.088658446552     1.007825032230
         H           -4.458762045311    -0.252444754801    -1.533195553448     1.007825032230
         H            4.464660954689     0.254857245199    -1.532881553448     1.007825032230

  Running in c1 symmetry.

  Rotational constants: A =      0.06644  B =      0.01433  C =      0.01429 [cm^-1]
  Rotational constants: A =   1991.92870  B =    429.50414  C =    428.41820 [MHz]
  Nuclear repulsion =  693.404668625683712

  Charge       = 0
  Multiplicity = 1
  Electrons    = 90
  Nalpha       = 45
  Nbeta        = 45

  ==> Algorithm <==

  SCF Algorithm Type is DF.
  DIIS enabled.
  MOM disabled.
  Fractional occupation disabled.
  Guess Type is SAD.
  Energy threshold   = 1.00e-10
  Density threshold  = 1.00e-10
  Integral threshold = 1.00e-12

  ==> Primary Basis <==

  Basis Set: AUG-CC-PVTZ
    Blend: AUG-CC-PVTZ
    Number of shells: 290
    Number of basis functions: 874
    Number of Cartesian functions: 1015
    Spherical Harmonics?: true
    Max angular momentum: 3

   => Loading Basis Set <=

    Name: (AUG-CC-PVTZ AUX)
    Role: JKFIT
    Keyword: DF_BASIS_SCF
    atoms 1-13  entry C          line   162 file /home1/07844/xy3866/miniconda3/envs/p4env/share/psi4/basis/aug-cc-pvtz-jkfit.gbs 
    atoms 14-25 entry H          line    70 file /home1/07844/xy3866/miniconda3/envs/p4env/share/psi4/basis/aug-cc-pvtz-jkfit.gbs 

  ==> Integral Setup <==

  DFHelper Memory: AOs need 9.584 GiB; user supplied 22.352 GiB. Using in-core AOs.

  ==> MemDFJK: Density-Fitted J/K Matrices <==

    J tasked:                   Yes
    K tasked:                   Yes
    wK tasked:                   No
    OpenMP threads:              32
    Memory [MiB]:             22888
    Algorithm:                 Core
    Schwarz Cutoff:           1E-12
    Mask sparsity (%):      14.9045
    Fitting Condition:        1E-10

   => Auxiliary Basis Set <=

  Basis Set: (AUG-CC-PVTZ AUX)
    Blend: AUG-CC-PVTZ-JKFIT
    Number of shells: 558
    Number of basis functions: 1904
    Number of Cartesian functions: 2363
    Spherical Harmonics?: true
    Max angular momentum: 4

  Minimum eigenvalue in the overlap matrix is 3.7211544446E-07.
  Reciprocal condition number of the overlap matrix is 1.6972269644E-08.
    Using symmetric orthogonalization.

  ==> Pre-Iterations <==

  SCF Guess: Superposition of Atomic Densities via on-the-fly atomic UHF (no occupation information).

   -------------------------
    Irrep   Nso     Nmo    
   -------------------------
     A        874     874 
   -------------------------
    Total     874     874
   -------------------------

  ==> Iterations <==

                           Total Energy        Delta E     RMS |[F,P]|

   @DF-RHF iter SAD:  -498.91895337743620   -4.98919e+02   0.00000e+00 
   @DF-RHF iter   1:  -499.06925732060910   -1.50304e-01   8.81532e-04 DIIS
   @DF-RHF iter   2:  -499.37054693081598   -3.01290e-01   4.16193e-04 DIIS
   @DF-RHF iter   3:  -499.43850695477585   -6.79600e-02   8.43294e-05 DIIS
   @DF-RHF iter   4:  -499.44234244938696   -3.83549e-03   2.98298e-05 DIIS
   @DF-RHF iter   5:  -499.44272723677886   -3.84787e-04   8.39192e-06 DIIS
   @DF-RHF iter   6:  -499.44275949572324   -3.22589e-05   2.06506e-06 DIIS
   @DF-RHF iter   7:  -499.44276214777409   -2.65205e-06   5.50496e-07 DIIS
   @DF-RHF iter   8:  -499.44276246462454   -3.16850e-07   2.31149e-07 DIIS
   @DF-RHF iter   9:  -499.44276254788952   -8.32650e-08   1.27951e-07 DIIS
   @DF-RHF iter  10:  -499.44276258196936   -3.40798e-08   5.19325e-08 DIIS
   @DF-RHF iter  11:  -499.44276258888408   -6.91472e-09   1.70643e-08 DIIS
   @DF-RHF iter  12:  -499.44276258930921   -4.25132e-10   6.55368e-09 DIIS
   @DF-RHF iter  13:  -499.44276258935139   -4.21778e-11   1.87886e-09 DIIS
   @DF-RHF iter  14:  -499.44276258935599   -4.60432e-12   6.95231e-10 DIIS
   @DF-RHF iter  15:  -499.44276258935673   -7.38964e-13   3.29154e-10 DIIS
   @DF-RHF iter  16:  -499.44276258935651    2.27374e-13   1.49411e-10 DIIS
   @DF-RHF iter  17:  -499.44276258935599    5.11591e-13   7.57209e-11 DIIS
  Energy and wave function converged.


  ==> Post-Iterations <==

    Orbital Energies [Eh]
    ---------------------

    Doubly Occupied:                                                      

       1A    -11.241937     2A    -11.239837     3A    -11.238493  
       4A    -11.236530     5A    -11.236073     6A    -11.235801  
       7A    -11.235313     8A    -11.232327     9A    -11.232259  
      10A    -11.232025    11A    -11.230449    12A    -11.230281  
      13A    -11.228645    14A     -1.162907    15A     -1.146907  
      16A     -1.062012    17A     -1.015028    18A     -1.011313  
      19A     -1.007663    20A     -0.923339    21A     -0.830662  
      22A     -0.824284    23A     -0.812884    24A     -0.783880  
      25A     -0.698595    26A     -0.688108    27A     -0.641539  
      28A     -0.635470    29A     -0.632167    30A     -0.617609  
      31A     -0.588514    32A     -0.583415    33A     -0.570426  
      34A     -0.567994    35A     -0.543101    36A     -0.509332  
      37A     -0.498817    38A     -0.496020    39A     -0.484047  
      40A     -0.482684    41A     -0.468307    42A     -0.341152  
      43A     -0.336433    44A     -0.334122    45A     -0.316331  

    Virtual:                                                              

      46A      0.027678    47A      0.030332    48A      0.033838  
      49A      0.034128    50A      0.041162    51A      0.047191  
      52A      0.047526    53A      0.051127    54A      0.062617  
      55A      0.066351    56A      0.067045    57A      0.067865  
      58A      0.087201    59A      0.097681    60A      0.099694  
      61A      0.101840    62A      0.102376    63A      0.106780  
      64A      0.108979    65A      0.112538    66A      0.113084  
      67A      0.118501    68A      0.120972    69A      0.122115  
      70A      0.122955    71A      0.125270    72A      0.128484  
      73A      0.131142    74A      0.131655    75A      0.132284  
      76A      0.132598    77A      0.141942    78A      0.145268  
      79A      0.145806    80A      0.148199    81A      0.157237  
      82A      0.158056    83A      0.158776    84A      0.159938  
      85A      0.161996    86A      0.164738    87A      0.169013  
      88A      0.169426    89A      0.178134    90A      0.183052  
      91A      0.183755    92A      0.197213    93A      0.198636  
      94A      0.205643    95A      0.208712    96A      0.215735  
      97A      0.223989    98A      0.231156    99A      0.231296  
     100A      0.235467   101A      0.241490   102A      0.253114  
     103A      0.254478   104A      0.257584   105A      0.259726  
     106A      0.260779   107A      0.262744   108A      0.269868  
     109A      0.270402   110A      0.273380   111A      0.277736  
     112A      0.285691   113A      0.287899   114A      0.294989  
     115A      0.299623   116A      0.301527   117A      0.304725  
     118A      0.305655   119A      0.310991   120A      0.311985  
     121A      0.317427   122A      0.321736   123A      0.322585  
     124A      0.327855   125A      0.328339   126A      0.331851  
     127A      0.336122   128A      0.343756   129A      0.344957  
     130A      0.350863   131A      0.351147   132A      0.358117  
     133A      0.358896   134A      0.366089   135A      0.367903  
     136A      0.369744   137A      0.374469   138A      0.381410  
     139A      0.384090   140A      0.390239   141A      0.394729  
     142A      0.406822   143A      0.411714   144A      0.416542  
     145A      0.423708   146A      0.424540   147A      0.427684  
     148A      0.431331   149A      0.434344   150A      0.442165  
     151A      0.444152   152A      0.445586   153A      0.453758  
     154A      0.455018   155A      0.456898   156A      0.457984  
     157A      0.464382   158A      0.467804   159A      0.469507  
     160A      0.473051   161A      0.476318   162A      0.478169  
     163A      0.485779   164A      0.486802   165A      0.488837  
     166A      0.491560   167A      0.495473   168A      0.499329  
     169A      0.501893   170A      0.505687   171A      0.507057  
     172A      0.509089   173A      0.511207   174A      0.512384  
     175A      0.521052   176A      0.522330   177A      0.525085  
     178A      0.527700   179A      0.530478   180A      0.532386  
     181A      0.534316   182A      0.536560   183A      0.543299  
     184A      0.543414   185A      0.549011   186A      0.551748  
     187A      0.553293   188A      0.557142   189A      0.563049  
     190A      0.564006   191A      0.570209   192A      0.575891  
     193A      0.579272   194A      0.587044   195A      0.588036  
     196A      0.594690   197A      0.597391   198A      0.607887  
     199A      0.610872   200A      0.619586   201A      0.621852  
     202A      0.624594   203A      0.628735   204A      0.634639  
     205A      0.644526   206A      0.645373   207A      0.652318  
     208A      0.655664   209A      0.665297   210A      0.667833  
     211A      0.676592   212A      0.680836   213A      0.681779  
     214A      0.689084   215A      0.692618   216A      0.693862  
     217A      0.694459   218A      0.695542   219A      0.706415  
     220A      0.711643   221A      0.717557   222A      0.721925  
     223A      0.723371   224A      0.725870   225A      0.730472  
     226A      0.738141   227A      0.746277   228A      0.755671  
     229A      0.758007   230A      0.760979   231A      0.774846  
     232A      0.776690   233A      0.778044   234A      0.783218  
     235A      0.786499   236A      0.796905   237A      0.801678  
     238A      0.804895   239A      0.816347   240A      0.826593  
     241A      0.827887   242A      0.833113   243A      0.840883  
     244A      0.844959   245A      0.849611   246A      0.856160  
     247A      0.860256   248A      0.861935   249A      0.867906  
     250A      0.869455   251A      0.873698   252A      0.878246  
     253A      0.881933   254A      0.884986   255A      0.890290  
     256A      0.892110   257A      0.898356   258A      0.899091  
     259A      0.905889   260A      0.910338   261A      0.913418  
     262A      0.919001   263A      0.920825   264A      0.928930  
     265A      0.931464   266A      0.937341   267A      0.940532  
     268A      0.945244   269A      0.951157   270A      0.953406  
     271A      0.955986   272A      0.961649   273A      0.968010  
     274A      0.970017   275A      0.977808   276A      0.980971  
     277A      0.981651   278A      0.991724   279A      0.995427  
     280A      1.006413   281A      1.011852   282A      1.012073  
     283A      1.013884   284A      1.018041   285A      1.023996  
     286A      1.029307   287A      1.033596   288A      1.038805  
     289A      1.044813   290A      1.049483   291A      1.055311  
     292A      1.058410   293A      1.065300   294A      1.070680  
     295A      1.074981   296A      1.076040   297A      1.086321  
     298A      1.086775   299A      1.088098   300A      1.089630  
     301A      1.096774   302A      1.097643   303A      1.099778  
     304A      1.103587   305A      1.116256   306A      1.120845  
     307A      1.125433   308A      1.127319   309A      1.130376  
     310A      1.132809   311A      1.135033   312A      1.140538  
     313A      1.142608   314A      1.149838   315A      1.154700  
     316A      1.160941   317A      1.164833   318A      1.171587  
     319A      1.174316   320A      1.175890   321A      1.180076  
     322A      1.188941   323A      1.192477   324A      1.196331  
     325A      1.197942   326A      1.198946   327A      1.200419  
     328A      1.206390   329A      1.210830   330A      1.214397  
     331A      1.221859   332A      1.227892   333A      1.229266  
     334A      1.229433   335A      1.235781   336A      1.238946  
     337A      1.239495   338A      1.241078   339A      1.254805  
     340A      1.261450   341A      1.274006   342A      1.274235  
     343A      1.278414   344A      1.283738   345A      1.288844  
     346A      1.298458   347A      1.300657   348A      1.306019  
     349A      1.307545   350A      1.317049   351A      1.324938  
     352A      1.329194   353A      1.331573   354A      1.342949  
     355A      1.346451   356A      1.357782   357A      1.361946  
     358A      1.362992   359A      1.367439   360A      1.376488  
     361A      1.380678   362A      1.388263   363A      1.390496  
     364A      1.396013   365A      1.405868   366A      1.411054  
     367A      1.416448   368A      1.423861   369A      1.425850  
     370A      1.432903   371A      1.438263   372A      1.448180  
     373A      1.452504   374A      1.455843   375A      1.466302  
     376A      1.471957   377A      1.480836   378A      1.486592  
     379A      1.494060   380A      1.495188   381A      1.506740  
     382A      1.508785   383A      1.513562   384A      1.528704  
     385A      1.535628   386A      1.537873   387A      1.539165  
     388A      1.551880   389A      1.566185   390A      1.571064  
     391A      1.575736   392A      1.577611   393A      1.593925  
     394A      1.596485   395A      1.603486   396A      1.607793  
     397A      1.614937   398A      1.628268   399A      1.633728  
     400A      1.636373   401A      1.647087   402A      1.665041  
     403A      1.676600   404A      1.682942   405A      1.685623  
     406A      1.695981   407A      1.699323   408A      1.716171  
     409A      1.718639   410A      1.726313   411A      1.728913  
     412A      1.731797   413A      1.735675   414A      1.739838  
     415A      1.759450   416A      1.764128   417A      1.765091  
     418A      1.770437   419A      1.775605   420A      1.784078  
     421A      1.786588   422A      1.794351   423A      1.798234  
     424A      1.810474   425A      1.814537   426A      1.823902  
     427A      1.829551   428A      1.837521   429A      1.838706  
     430A      1.853961   431A      1.857106   432A      1.863231  
     433A      1.865226   434A      1.867658   435A      1.873067  
     436A      1.876233   437A      1.882597   438A      1.888980  
     439A      1.901553   440A      1.918293   441A      1.927065  
     442A      1.927720   443A      1.929766   444A      1.943169  
     445A      1.945460   446A      1.959661   447A      1.964279  
     448A      1.982737   449A      1.985353   450A      1.995352  
     451A      2.003303   452A      2.012608   453A      2.014852  
     454A      2.019868   455A      2.031666   456A      2.032860  
     457A      2.040774   458A      2.048982   459A      2.053392  
     460A      2.058263   461A      2.063364   462A      2.065588  
     463A      2.071505   464A      2.075185   465A      2.079241  
     466A      2.091295   467A      2.101817   468A      2.102852  
     469A      2.110761   470A      2.118886   471A      2.127843  
     472A      2.130237   473A      2.136442   474A      2.139745  
     475A      2.143192   476A      2.149619   477A      2.153385  
     478A      2.159503   479A      2.169675   480A      2.173492  
     481A      2.178504   482A      2.182716   483A      2.189384  
     484A      2.198561   485A      2.208857   486A      2.226203  
     487A      2.227540   488A      2.233391   489A      2.241865  
     490A      2.244521   491A      2.249521   492A      2.269624  
     493A      2.281225   494A      2.293077   495A      2.315111  
     496A      2.322710   497A      2.334532   498A      2.340575  
     499A      2.342714   500A      2.350894   501A      2.358357  
     502A      2.380043   503A      2.380616   504A      2.382626  
     505A      2.388855   506A      2.403500   507A      2.409163  
     508A      2.418977   509A      2.427978   510A      2.434768  
     511A      2.439689   512A      2.443348   513A      2.455745  
     514A      2.470804   515A      2.485021   516A      2.491261  
     517A      2.495163   518A      2.497208   519A      2.508626  
     520A      2.518908   521A      2.533228   522A      2.536494  
     523A      2.580013   524A      2.583996   525A      2.590790  
     526A      2.612389   527A      2.622062   528A      2.637895  
     529A      2.641475   530A      2.643632   531A      2.647888  
     532A      2.654678   533A      2.693891   534A      2.714366  
     535A      2.719534   536A      2.749511   537A      2.757296  
     538A      2.791549   539A      2.802365   540A      2.808400  
     541A      2.810273   542A      2.825652   543A      2.830368  
     544A      2.840557   545A      2.868982   546A      2.891021  
     547A      2.903061   548A      2.936162   549A      2.959944  
     550A      2.993747   551A      3.047683   552A      3.050548  
     553A      3.089481   554A      3.119860   555A      3.137328  
     556A      3.164049   557A      3.195066   558A      3.200465  
     559A      3.219421   560A      3.224189   561A      3.230605  
     562A      3.248031   563A      3.270877   564A      3.277712  
     565A      3.287616   566A      3.298826   567A      3.322667  
     568A      3.330683   569A      3.346611   570A      3.356885  
     571A      3.361017   572A      3.378648   573A      3.384385  
     574A      3.390799   575A      3.399156   576A      3.401251  
     577A      3.410416   578A      3.418904   579A      3.424836  
     580A      3.449628   581A      3.451411   582A      3.456497  
     583A      3.464396   584A      3.470755   585A      3.475834  
     586A      3.484498   587A      3.491179   588A      3.500524  
     589A      3.526240   590A      3.531892   591A      3.537591  
     592A      3.539666   593A      3.546088   594A      3.552963  
     595A      3.553668   596A      3.571867   597A      3.574829  
     598A      3.577051   599A      3.581770   600A      3.588658  
     601A      3.591610   602A      3.598943   603A      3.611512  
     604A      3.622850   605A      3.626763   606A      3.633561  
     607A      3.635831   608A      3.643919   609A      3.649653  
     610A      3.664584   611A      3.676181   612A      3.694809  
     613A      3.705849   614A      3.714030   615A      3.720101  
     616A      3.725600   617A      3.736025   618A      3.742398  
     619A      3.745758   620A      3.752384   621A      3.762137  
     622A      3.775697   623A      3.776988   624A      3.788651  
     625A      3.802982   626A      3.810999   627A      3.819666  
     628A      3.835788   629A      3.846418   630A      3.855883  
     631A      3.863852   632A      3.868271   633A      3.876302  
     634A      3.886292   635A      3.889294   636A      3.892225  
     637A      3.893977   638A      3.908488   639A      3.911601  
     640A      3.921438   641A      3.927141   642A      3.939503  
     643A      3.942636   644A      3.943979   645A      3.953717  
     646A      3.981096   647A      3.982152   648A      3.987933  
     649A      3.995079   650A      4.000844   651A      4.009500  
     652A      4.017402   653A      4.021741   654A      4.028503  
     655A      4.034579   656A      4.036706   657A      4.039376  
     658A      4.047160   659A      4.049421   660A      4.062833  
     661A      4.067174   662A      4.071229   663A      4.082014  
     664A      4.107824   665A      4.110146   666A      4.118626  
     667A      4.124432   668A      4.127567   669A      4.134106  
     670A      4.152327   671A      4.154217   672A      4.162050  
     673A      4.172872   674A      4.183818   675A      4.190270  
     676A      4.196058   677A      4.206043   678A      4.209835  
     679A      4.212105   680A      4.238261   681A      4.246854  
     682A      4.255010   683A      4.270363   684A      4.281705  
     685A      4.287963   686A      4.292657   687A      4.296834  
     688A      4.302116   689A      4.312333   690A      4.324390  
     691A      4.330700   692A      4.335564   693A      4.337031  
     694A      4.347668   695A      4.351719   696A      4.362425  
     697A      4.368324   698A      4.370442   699A      4.385905  
     700A      4.403289   701A      4.409893   702A      4.410753  
     703A      4.413013   704A      4.425042   705A      4.429991  
     706A      4.435069   707A      4.442820   708A      4.452338  
     709A      4.459051   710A      4.464047   711A      4.471171  
     712A      4.478872   713A      4.481844   714A      4.494340  
     715A      4.497383   716A      4.498337   717A      4.503415  
     718A      4.511333   719A      4.517059   720A      4.532310  
     721A      4.534137   722A      4.554263   723A      4.579380  
     724A      4.589810   725A      4.597066   726A      4.617561  
     727A      4.623838   728A      4.645839   729A      4.663444  
     730A      4.673463   731A      4.703866   732A      4.717355  
     733A      4.717866   734A      4.725296   735A      4.734682  
     736A      4.745429   737A      4.754937   738A      4.763559  
     739A      4.768954   740A      4.774603   741A      4.779807  
     742A      4.794713   743A      4.799069   744A      4.806299  
     745A      4.820791   746A      4.833049   747A      4.841630  
     748A      4.872677   749A      4.896369   750A      4.908864  
     751A      4.913379   752A      4.918926   753A      4.927207  
     754A      4.946667   755A      4.952089   756A      4.972419  
     757A      4.980645   758A      5.004215   759A      5.015795  
     760A      5.023817   761A      5.033050   762A      5.033752  
     763A      5.047966   764A      5.078433   765A      5.088298  
     766A      5.097863   767A      5.100854   768A      5.105688  
     769A      5.118748   770A      5.126573   771A      5.128333  
     772A      5.134327   773A      5.154212   774A      5.156406  
     775A      5.160414   776A      5.171745   777A      5.172686  
     778A      5.176765   779A      5.180563   780A      5.186005  
     781A      5.187109   782A      5.195048   783A      5.199356  
     784A      5.226715   785A      5.230145   786A      5.246410  
     787A      5.269104   788A      5.280219   789A      5.285217  
     790A      5.307393   791A      5.316800   792A      5.337053  
     793A      5.343116   794A      5.355787   795A      5.370084  
     796A      5.372612   797A      5.378146   798A      5.404366  
     799A      5.418232   800A      5.426807   801A      5.430519  
     802A      5.449563   803A      5.454241   804A      5.476817  
     805A      5.484869   806A      5.501977   807A      5.507677  
     808A      5.518729   809A      5.534117   810A      5.569654  
     811A      5.606419   812A      5.627671   813A      5.655926  
     814A      5.679906   815A      5.697691   816A      5.705363  
     817A      5.720818   818A      5.767404   819A      5.774717  
     820A      5.788989   821A      5.800024   822A      5.806359  
     823A      5.829462   824A      5.839051   825A      5.850631  
     826A      5.949983   827A      5.976542   828A      6.056147  
     829A      6.094413   830A      6.123533   831A      6.141444  
     832A      6.157012   833A      6.179975   834A      6.206742  
     835A      6.229740   836A      6.252195   837A      6.277458  
     838A      6.303691   839A      6.318038   840A      6.370290  
     841A      6.387162   842A      6.394566   843A      6.423587  
     844A      6.439973   845A      6.459831   846A      6.536767  
     847A      6.548135   848A      6.616780   849A      6.649860  
     850A      6.699063   851A      6.804062   852A      6.817531  
     853A      6.916746   854A      6.927129   855A      7.000292  
     856A      7.020573   857A      7.058063   858A      7.148144  
     859A      7.170138   860A      7.328265   861A      7.367849  
     862A     16.058233   863A     16.198739   864A     16.372223  
     865A     16.584629   866A     18.621900   867A     18.977022  
     868A     19.158322   869A     19.588893   870A     19.780145  
     871A     20.110502   872A     20.472019   873A     20.562799  
     874A     21.283487  

    Final Occupation by Irrep:
              A 
    DOCC [    45 ]

  @DF-RHF Final Energy:  -499.44276258935599

   => Energetics <=

    Nuclear Repulsion Energy =            693.4046686256837120
    One-Electron Energy =               -2050.3647971441678237
    Two-Electron Energy =                 857.5173659291280046
    Total Energy =                       -499.4427625893559934

Computation Completed

*** tstop() called on c445-114.stampede2.tacc.utexas.edu at Sat Mar 20 22:04:34 2021
Module time:
	user time   =    1341.88 seconds =      22.36 minutes
	system time =      65.35 seconds =       1.09 minutes
	total time  =         68 seconds =       1.13 minutes
Total time:
	user time   =    1341.88 seconds =      22.36 minutes
	system time =      65.35 seconds =       1.09 minutes
	total time  =         68 seconds =       1.13 minutes
   => Loading Basis Set <=

    Name: (AUG-CC-PVTZ AUX)
    Role: RIFIT
    Keyword: DF_BASIS_MP2
    atoms 1-13  entry C          line   148 file /home1/07844/xy3866/miniconda3/envs/p4env/share/psi4/basis/aug-cc-pvtz-ri.gbs 
    atoms 14-25 entry H          line    30 file /home1/07844/xy3866/miniconda3/envs/p4env/share/psi4/basis/aug-cc-pvtz-ri.gbs 


*** tstart() called on c445-114.stampede2.tacc.utexas.edu
*** at Sat Mar 20 22:04:35 2021


  //>>>>>>>>>>>>>>>>>>>>>>>>>>>>>>>>>>>//
  //               DFMP2               //
  //<<<<<<<<<<<<<<<<<<<<<<<<<<<<<<<<<<<//

	 --------------------------------------------------------
	                          DF-MP2                         
	      2nd-Order Density-Fitted Moller-Plesset Theory     
	              RMP2 Wavefunction,  32 Threads             
	                                                         
	        Rob Parrish, Justin Turney, Andy Simmonett,      
	           Ed Hohenstein, and C. David Sherrill          
	 --------------------------------------------------------

   => Auxiliary Basis Set <=

  Basis Set: (AUG-CC-PVTZ AUX)
    Blend: AUG-CC-PVTZ-RI
    Number of shells: 532
    Number of basis functions: 1930
    Number of Cartesian functions: 2428
    Spherical Harmonics?: true
    Max angular momentum: 4

	 --------------------------------------------------------
	                 NBF =   874, NAUX =  1930
	 --------------------------------------------------------
	   CLASS    FOCC     OCC    AOCC    AVIR     VIR    FVIR
	   PAIRS       0      45      45     829     829       0
	 --------------------------------------------------------

  DFHelper Memory: AOs need 10.169 GiB; user supplied 22.352 GiB. Using in-core AOs.


         ------------------------------------------------------------
                                     CPHF                           
                                  Rob Parrish                       
         ------------------------------------------------------------

  ==> Geometry <==

    Molecular point group: c1
    Full point group: C1

    Geometry (in Angstrom), charge = 0, multiplicity = 1:

       Center              X                  Y                   Z               Mass       
    ------------   -----------------  -----------------  -----------------  -----------------
         C            0.002960954689    -0.000908754801     1.517491446552    12.000000000000
         C           -1.290502045311    -0.063544954801     0.644328646552    12.000000000000
         C            1.255004954689     0.060888245199     0.672342446552    12.000000000000
         C           -1.421100045311    -1.103880754801    -0.249992553448    12.000000000000
         C            1.426963954689     1.104460245199    -0.248546553448    12.000000000000
         C           -2.249016045311     0.910695245199     0.782948446552    12.000000000000
         C            2.254985954689    -0.911428754801     0.781746446552    12.000000000000
         C           -2.569658045311    -1.174622754801    -1.036753553448    12.000000000000
         C            2.575510954689     1.176285245199    -1.035227553448    12.000000000000
         C           -3.400404045311     0.845104245199    -0.006723553448    12.000000000000
         C            3.406361954689    -0.844749754801    -0.007851553448    12.000000000000
         C           -3.564069045311    -0.198828754801    -0.917606553448    12.000000000000
         C            3.569980954689     0.200400245199    -0.917348553448    12.000000000000
         H           -0.047029045311     0.876332245199     2.175764446552     1.007825032230
         H            0.052963954689    -0.879055754801     2.174555446552     1.007825032230
         H           -0.641194045311    -1.856553754801    -0.355764553448     1.007825032230
         H            0.647009954689     1.857219245199    -0.353343553448     1.007825032230
         H           -2.127525045311     1.725547245199     1.495253446552     1.007825032230
         H            2.133526954689    -1.727232754801     1.492965446552     1.007825032230
         H           -2.689616045311    -1.990048754801    -1.746530553448     1.007825032230
         H            2.695433954689     1.992660245199    -1.743917553448     1.007825032230
         H           -4.167677045311     1.609853245199     0.090777446552     1.007825032230
         H            4.173684954689    -1.609573754801     0.088658446552     1.007825032230
         H           -4.458762045311    -0.252444754801    -1.533195553448     1.007825032230
         H            4.464660954689     0.254857245199    -1.532881553448     1.007825032230

  Nuclear repulsion =  693.404668625683712
  Reference energy  = -499.442762589355993

  ==> Basis Set <==

  Basis Set: AUG-CC-PVTZ
    Blend: AUG-CC-PVTZ
    Number of shells: 290
    Number of basis functions: 874
    Number of Cartesian functions: 1015
    Spherical Harmonics?: true
    Max angular momentum: 3

  ==> CGRSolver (by Rob Parrish) <==

   Number of roots    =         1
   Preconditioning    =    JACOBI
   Convergence cutoff =     1E-06
   Maximum iterations =       100

  ==> CPHFRHamiltonian (by Rob Parrish) <== 

  ==> MemDFJK: Density-Fitted J/K Matrices <==

    J tasked:                   Yes
    K tasked:                   Yes
    wK tasked:                   No
    OpenMP threads:              32
    Memory [MiB]:             22888
    Algorithm:                 Core
    Schwarz Cutoff:           1E-12
    Mask sparsity (%):       9.5070
    Fitting Condition:        1E-10

   => Auxiliary Basis Set <=

  Basis Set: (AUG-CC-PVTZ AUX)
    Blend: AUG-CC-PVTZ-JKFIT
    Number of shells: 558
    Number of basis functions: 1904
    Number of Cartesian functions: 2363
    Spherical Harmonics?: true
    Max angular momentum: 4

  ==> CPHF Iterations <==

  => Iterations <=

             Iter  Converged  Remaining    Residual
  CGR           1          0          1   7.579E-02
  CGR           2          0          1   1.624E-02
  CGR           3          0          1   7.679E-03
  CGR           4          0          1   4.977E-03
  CGR           5          0          1   1.921E-03
  CGR           6          0          1   6.302E-04
  CGR           7          0          1   1.815E-04
  CGR           8          0          1   6.571E-05
  CGR           9          0          1   2.200E-05
  CGR          10          0          1   8.451E-06
  CGR          11          0          1   4.770E-06
  CGR          12          0          1   1.269E-06
  CGR          13          1          0   4.358E-07

    CGRSolver converged.

	-----------------------------------------------------------
	 ==================> DF-MP2 Energies <==================== 
	-----------------------------------------------------------
	 Reference Energy          =    -499.4427625893559934 [Eh]
	 Singles Energy            =      -0.0000000000000000 [Eh]
	 Same-Spin Energy          =      -0.5637697171336176 [Eh]
	 Opposite-Spin Energy      =      -1.7779628753376588 [Eh]
	 Correlation Energy        =      -2.3417325924712764 [Eh]
	 Total Energy              =    -501.7844951818272534 [Eh]
	-----------------------------------------------------------
	 ================> DF-SCS-MP2 Energies <================== 
	-----------------------------------------------------------
	 SCS Same-Spin Scale       =       0.3333333333333333 [-]
	 SCS Opposite-Spin Scale   =       1.2000000000000000 [-]
	 SCS Same-Spin Energy      =      -0.1879232390445392 [Eh]
	 SCS Opposite-Spin Energy  =      -2.1335554504051903 [Eh]
	 SCS Correlation Energy    =      -2.3214786894497297 [Eh]
	 SCS Total Energy          =    -501.7642412788057413 [Eh]
	-----------------------------------------------------------



Properties will be evaluated at  -0.000000,   0.000000,  -0.000000 [a0]

Properties computed using the MP2 density matrix

  Nuclear Dipole Moment: [e a0]
     X:     0.0333      Y:     0.0015      Z:     0.2366

  Electronic Dipole Moment: [e a0]
     X:    -0.0636      Y:    -0.0009      Z:    -0.2154

  Dipole Moment: [e a0]
     X:    -0.0304      Y:     0.0006      Z:     0.0212     Total:     0.0370

  Dipole Moment: [D]
     X:    -0.0772      Y:     0.0015      Z:     0.0538     Total:     0.0941


*** tstop() called on c445-114.stampede2.tacc.utexas.edu at Sat Mar 20 22:11:43 2021
Module time:
	user time   =    4479.77 seconds =      74.66 minutes
	system time =      95.77 seconds =       1.60 minutes
	total time  =        428 seconds =       7.13 minutes
Total time:
	user time   =    5822.87 seconds =      97.05 minutes
	system time =     161.15 seconds =       2.69 minutes
	total time  =        497 seconds =       8.28 minutes

    Psi4 stopped on: Saturday, 20 March 2021 10:11PM
    Psi4 wall time for execution: 0:08:18.60

*** Psi4 exiting successfully. Buy a developer a beer!
