
    -----------------------------------------------------------------------
          Psi4: An Open-Source Ab Initio Electronic Structure Package
                               Psi4 1.3.2 release

                         Git: Rev {HEAD} ecbda83 


    R. M. Parrish, L. A. Burns, D. G. A. Smith, A. C. Simmonett,
    A. E. DePrince III, E. G. Hohenstein, U. Bozkaya, A. Yu. Sokolov,
    R. Di Remigio, R. M. Richard, J. F. Gonthier, A. M. James,
    H. R. McAlexander, A. Kumar, M. Saitow, X. Wang, B. P. Pritchard,
    P. Verma, H. F. Schaefer III, K. Patkowski, R. A. King, E. F. Valeev,
    F. A. Evangelista, J. M. Turney, T. D. Crawford, and C. D. Sherrill,
    J. Chem. Theory Comput. 13(7) pp 3185--3197 (2017).
    (doi: 10.1021/acs.jctc.7b00174)


                         Additional Contributions by
    P. Kraus, H. Kruse, M. H. Lechner, M. C. Schieber, R. A. Shaw,
    A. Alenaizan, R. Galvelis, Z. L. Glick, S. Lehtola, and J. P. Misiewicz

    -----------------------------------------------------------------------


    Psi4 started on: Wednesday, 03 February 2021 05:00AM

    Process ID: 43003
    Host:       node142.bme.utexas.edu
    PSIDATADIR: /home/xy3866/psi4conda/share/psi4
    Memory:     500.0 MiB
    Threads:    8
    
  ==> Input File <==

--------------------------------------------------------------------------
#psi4
#
memory 32 gb

molecule  {
0 1
  C       -0.0598558     0.1305125     1.5786600
  C       -1.2520500    -0.0616820     0.6690270
  C        1.2520490     0.0607460     0.6690880
  C       -1.4240560    -1.1040230    -0.2532470
  C        1.4240080     1.1043180    -0.2518010
  C       -2.2519720     0.9105530     0.7796940
  C        2.2520300    -0.9115710     0.7784920
  C       -2.5726140    -1.1747650    -1.0400080
  C        2.5725550     1.1761430    -1.0384820
  C       -3.4033600     0.8449620    -0.0099780
  C        3.4034060    -0.8448920    -0.0111060
  C       -3.5670250    -0.1989710    -0.9208610
  C        3.5670250     0.2002580    -0.9206030
  H       -0.0499850     0.8761900     2.1725100
  H        0.0500080    -0.8791980     2.1713010
  H       -0.6441500    -1.8566960    -0.3590190
  H        0.6440540     1.8570770    -0.3565980
  H       -2.1304810     1.7254050     1.4919990
  H        2.1305710    -1.7273750     1.4897110
  H       -2.6925720    -1.9901910    -1.7497850
  H        2.6924780     1.9925180    -1.7471720
  H       -4.1706330     1.6097110     0.0875230
  H        4.1707290    -1.6097160     0.0854040
  H       -4.4617180    -0.2525870    -1.5364500
  H        4.4617050     0.2547150    -1.5361360
units angstrom
no_reorient  #important for SAPT in psi4, default
symmetry c1  #important for SAPT in psi4, default
}

set PROPERTIES_ORIGIN ["COM"]
properties('MP2/aug-cc-pvtz', properties = ['dipole'])
--------------------------------------------------------------------------

  Memory set to  29.802 GiB by Python driver.
    SCF Algorithm Type (re)set to DF.

*** tstart() called on node142.bme.utexas.edu
*** at Wed Feb  3 05:00:20 2021

   => Loading Basis Set <=

    Name: AUG-CC-PVTZ
    Role: ORBITAL
    Keyword: BASIS
    atoms 1-13  entry C          line   235 file /home/xy3866/psi4conda/share/psi4/basis/aug-cc-pvtz.gbs 
    atoms 14-25 entry H          line    36 file /home/xy3866/psi4conda/share/psi4/basis/aug-cc-pvtz.gbs 


         ---------------------------------------------------------
                                   SCF
               by Justin Turney, Rob Parrish, Andy Simmonett
                          and Daniel G. A. Smith
                              RHF Reference
                        8 Threads,  30517 MiB Core
         ---------------------------------------------------------

  ==> Geometry <==

    Molecular point group: c1
    Full point group: C1

    Geometry (in Angstrom), charge = 0, multiplicity = 1:

       Center              X                  Y                   Z               Mass       
    ------------   -----------------  -----------------  -----------------  -----------------
         C           -0.055582524459     0.121119453339     1.575319861041    12.000000000000
         C           -1.247776724459    -0.071075046661     0.665686861041    12.000000000000
         C            1.256322275541     0.051352953339     0.665747861041    12.000000000000
         C           -1.419782724459    -1.113416046661    -0.256587138959    12.000000000000
         C            1.428281275541     1.094924953339    -0.255141138959    12.000000000000
         C           -2.247698724459     0.901159953339     0.776353861041    12.000000000000
         C            2.256303275541    -0.920964046661     0.775151861041    12.000000000000
         C           -2.568340724459    -1.184158046661    -1.043348138959    12.000000000000
         C            2.576828275541     1.166749953339    -1.041822138959    12.000000000000
         C           -3.399086724459     0.835568953339    -0.013318138959    12.000000000000
         C            3.407679275541    -0.854285046661    -0.014446138959    12.000000000000
         C           -3.562751724459    -0.208364046661    -0.924201138959    12.000000000000
         C            3.571298275541     0.190864953339    -0.923943138959    12.000000000000
         H           -0.045711724459     0.866796953339     2.169169861041     1.007825032230
         H            0.054281275541    -0.888591046661     2.167960861041     1.007825032230
         H           -0.639876724459    -1.866089046661    -0.362359138959     1.007825032230
         H            0.648327275541     1.847683953339    -0.359938138959     1.007825032230
         H           -2.126207724459     1.716011953339     1.488658861041     1.007825032230
         H            2.134844275541    -1.736768046661     1.486370861041     1.007825032230
         H           -2.688298724459    -1.999584046661    -1.753125138959     1.007825032230
         H            2.696751275541     1.983124953339    -1.750512138959     1.007825032230
         H           -4.166359724459     1.600317953339     0.084182861041     1.007825032230
         H            4.175002275541    -1.619109046661     0.082063861041     1.007825032230
         H           -4.457444724459    -0.261980046661    -1.539790138959     1.007825032230
         H            4.465978275541     0.245321953339    -1.539476138959     1.007825032230

  Running in c1 symmetry.

  Rotational constants: A =      0.06566  B =      0.01434  C =      0.01427 [cm^-1]
  Rotational constants: A =   1968.51787  B =    429.76758  C =    427.94988 [MHz]
  Nuclear repulsion =  692.126540255332429

  Charge       = 0
  Multiplicity = 1
  Electrons    = 90
  Nalpha       = 45
  Nbeta        = 45

  ==> Algorithm <==

  SCF Algorithm Type is DF.
  DIIS enabled.
  MOM disabled.
  Fractional occupation disabled.
  Guess Type is SAD.
  Energy threshold   = 1.00e-10
  Density threshold  = 1.00e-10
  Integral threshold = 0.00e+00

  ==> Primary Basis <==

  Basis Set: AUG-CC-PVTZ
    Blend: AUG-CC-PVTZ
    Number of shells: 290
    Number of basis function: 874
    Number of Cartesian functions: 1015
    Spherical Harmonics?: true
    Max angular momentum: 3

   => Loading Basis Set <=

    Name: (AUG-CC-PVTZ AUX)
    Role: JKFIT
    Keyword: DF_BASIS_SCF
    atoms 1-13  entry C          line   162 file /home/xy3866/psi4conda/share/psi4/basis/aug-cc-pvtz-jkfit.gbs 
    atoms 14-25 entry H          line    70 file /home/xy3866/psi4conda/share/psi4/basis/aug-cc-pvtz-jkfit.gbs 

  ==> Pre-Iterations <==

   -------------------------------------------------------
    Irrep   Nso     Nmo     Nalpha   Nbeta   Ndocc  Nsocc
   -------------------------------------------------------
     A        874     874       0       0       0       0
   -------------------------------------------------------
    Total     874     874      45      45      45       0
   -------------------------------------------------------

  ==> Integral Setup <==

  DFHelper Memory: AOs need 10.031 GiB; user supplied 22.352 GiB. Using in-core AOs.

  ==> MemDFJK: Density-Fitted J/K Matrices <==

    J tasked:                   Yes
    K tasked:                   Yes
    wK tasked:                   No
    OpenMP threads:               8
    Memory [MiB]:             22888
    Algorithm:                 Disk
    Schwarz Cutoff:           1E-12
    Mask sparsity (%):       9.5214
    Fitting Condition:        1E-10

   => Auxiliary Basis Set <=

  Basis Set: (AUG-CC-PVTZ AUX)
    Blend: AUG-CC-PVTZ-JKFIT
    Number of shells: 558
    Number of basis function: 1904
    Number of Cartesian functions: 2363
    Spherical Harmonics?: true
    Max angular momentum: 4

  Minimum eigenvalue in the overlap matrix is 3.5980174876E-07.
  Using Symmetric Orthogonalization.

  SCF Guess: Superposition of Atomic Densities via on-the-fly atomic UHF.

  ==> Iterations <==

                           Total Energy        Delta E     RMS |[F,P]|

   @DF-RHF iter SAD:  -498.80879564793656   -4.98809e+02   0.00000e+00 
   @DF-RHF iter   1:  -499.04539454393370   -2.36599e-01   8.74109e-04 DIIS
   @DF-RHF iter   2:  -499.34521069053858   -2.99816e-01   4.05686e-04 DIIS
   @DF-RHF iter   3:  -499.40977227429556   -6.45616e-02   8.18975e-05 DIIS
   @DF-RHF iter   4:  -499.41357342592136   -3.80115e-03   2.60016e-05 DIIS
   @DF-RHF iter   5:  -499.41387554065284   -3.02115e-04   7.88109e-06 DIIS
   @DF-RHF iter   6:  -499.41390423990083   -2.86992e-05   2.25912e-06 DIIS
   @DF-RHF iter   7:  -499.41390741496423   -3.17506e-06   6.15426e-07 DIIS
   @DF-RHF iter   8:  -499.41390780730814   -3.92344e-07   2.42710e-07 DIIS
   @DF-RHF iter   9:  -499.41390789516447   -8.78563e-08   1.29835e-07 DIIS
   @DF-RHF iter  10:  -499.41390792802656   -3.28621e-08   5.43888e-08 DIIS
   @DF-RHF iter  11:  -499.41390793601721   -7.99065e-09   1.96071e-08 DIIS
   @DF-RHF iter  12:  -499.41390793670246   -6.85247e-10   8.08676e-09 DIIS
   @DF-RHF iter  13:  -499.41390793678636   -8.39009e-11   2.31805e-09 DIIS
   @DF-RHF iter  14:  -499.41390793679136   -5.00222e-12   9.98474e-10 DIIS
   @DF-RHF iter  15:  -499.41390793679534   -3.97904e-12   4.25327e-10 DIIS
   @DF-RHF iter  16:  -499.41390793679568   -3.41061e-13   1.80997e-10 DIIS
   @DF-RHF iter  17:  -499.41390793679420    1.47793e-12   9.18882e-11 DIIS
  Energy and wave function converged.


  ==> Post-Iterations <==

    Orbital Energies [Eh]
    ---------------------

    Doubly Occupied:                                                      

       1A    -11.246555     2A    -11.245016     3A    -11.239151  
       4A    -11.237089     5A    -11.236688     6A    -11.235545  
       7A    -11.234969     8A    -11.234379     9A    -11.233040  
      10A    -11.232659    11A    -11.231930    12A    -11.230516  
      13A    -11.229822    14A     -1.159639    15A     -1.144362  
      16A     -1.063786    17A     -1.012534    18A     -1.010954  
      19A     -1.004942    20A     -0.930735    21A     -0.828801  
      22A     -0.822953    23A     -0.811539    24A     -0.788706  
      25A     -0.696517    26A     -0.692626    27A     -0.651495  
      28A     -0.635715    29A     -0.629053    30A     -0.616240  
      31A     -0.590307    32A     -0.583607    33A     -0.581860  
      34A     -0.562341    35A     -0.543863    36A     -0.507971  
      37A     -0.497151    38A     -0.494607    39A     -0.490105  
      40A     -0.473081    41A     -0.463718    42A     -0.341056  
      43A     -0.335232    44A     -0.334012    45A     -0.313000  

    Virtual:                                                              

      46A      0.027739    47A      0.030370    48A      0.033644  
      49A      0.034223    50A      0.041135    51A      0.047135  
      52A      0.047365    53A      0.051041    54A      0.062580  
      55A      0.066160    56A      0.066967    57A      0.068090  
      58A      0.087209    59A      0.097221    60A      0.099409  
      61A      0.101929    62A      0.102333    63A      0.106856  
      64A      0.108297    65A      0.112577    66A      0.113030  
      67A      0.118724    68A      0.121283    69A      0.121941  
      70A      0.122980    71A      0.125472    72A      0.128413  
      73A      0.130643    74A      0.131870    75A      0.132142  
      76A      0.132913    77A      0.141975    78A      0.144936  
      79A      0.145733    80A      0.148234    81A      0.156207  
      82A      0.158081    83A      0.158597    84A      0.159947  
      85A      0.161848    86A      0.164626    87A      0.168446  
      88A      0.169768    89A      0.178294    90A      0.182741  
      91A      0.183942    92A      0.196403    93A      0.198006  
      94A      0.205031    95A      0.207392    96A      0.215911  
      97A      0.222702    98A      0.230616    99A      0.231579  
     100A      0.235679   101A      0.241340   102A      0.252234  
     103A      0.254097   104A      0.258001   105A      0.260379  
     106A      0.261121   107A      0.262567   108A      0.269116  
     109A      0.271090   110A      0.272934   111A      0.277973  
     112A      0.284183   113A      0.287894   114A      0.295369  
     115A      0.297739   116A      0.301882   117A      0.303306  
     118A      0.306387   119A      0.310483   120A      0.311392  
     121A      0.317703   122A      0.321413   123A      0.323043  
     124A      0.326293   125A      0.328108   126A      0.331083  
     127A      0.335866   128A      0.341825   129A      0.346748  
     130A      0.350377   131A      0.353663   132A      0.358227  
     133A      0.358344   134A      0.363692   135A      0.367328  
     136A      0.369332   137A      0.373661   138A      0.381241  
     139A      0.384558   140A      0.389827   141A      0.395828  
     142A      0.405750   143A      0.409950   144A      0.415720  
     145A      0.420476   146A      0.424060   147A      0.425158  
     148A      0.429830   149A      0.433182   150A      0.440207  
     151A      0.443780   152A      0.444979   153A      0.450935  
     154A      0.455437   155A      0.456258   156A      0.459421  
     157A      0.463514   158A      0.466880   159A      0.469140  
     160A      0.471571   161A      0.475879   162A      0.477210  
     163A      0.481826   164A      0.487234   165A      0.489262  
     166A      0.491313   167A      0.494763   168A      0.499099  
     169A      0.501624   170A      0.505531   171A      0.506259  
     172A      0.509306   173A      0.510543   174A      0.513347  
     175A      0.520880   176A      0.521557   177A      0.525736  
     178A      0.528976   179A      0.531032   180A      0.532640  
     181A      0.535116   182A      0.535916   183A      0.542195  
     184A      0.542913   185A      0.547879   186A      0.551335  
     187A      0.551788   188A      0.555940   189A      0.560945  
     190A      0.566731   191A      0.570190   192A      0.574214  
     193A      0.576151   194A      0.585718   195A      0.587767  
     196A      0.591681   197A      0.598744   198A      0.604028  
     199A      0.607492   200A      0.617235   201A      0.620331  
     202A      0.625940   203A      0.626998   204A      0.634026  
     205A      0.644127   206A      0.646666   207A      0.654156  
     208A      0.656358   209A      0.664954   210A      0.668095  
     211A      0.676040   212A      0.676913   213A      0.681981  
     214A      0.690381   215A      0.692628   216A      0.694921  
     217A      0.695529   218A      0.697599   219A      0.710157  
     220A      0.712260   221A      0.718183   222A      0.721028  
     223A      0.723550   224A      0.726461   225A      0.729357  
     226A      0.735592   227A      0.745386   228A      0.752134  
     229A      0.757244   230A      0.762254   231A      0.773238  
     232A      0.775853   233A      0.778933   234A      0.781243  
     235A      0.788029   236A      0.795077   237A      0.800912  
     238A      0.804761   239A      0.815177   240A      0.825741  
     241A      0.827923   242A      0.833629   243A      0.836546  
     244A      0.843665   245A      0.850143   246A      0.853585  
     247A      0.857088   248A      0.862890   249A      0.866420  
     250A      0.869126   251A      0.872282   252A      0.875826  
     253A      0.879636   254A      0.884044   255A      0.888638  
     256A      0.894498   257A      0.897436   258A      0.900223  
     259A      0.903796   260A      0.910007   261A      0.914283  
     262A      0.918395   263A      0.920883   264A      0.926444  
     265A      0.931164   266A      0.932505   267A      0.938044  
     268A      0.945576   269A      0.948077   270A      0.949789  
     271A      0.955443   272A      0.957182   273A      0.967284  
     274A      0.968759   275A      0.976573   276A      0.980895  
     277A      0.987527   278A      0.992025   279A      0.995502  
     280A      1.002683   281A      1.006545   282A      1.012306  
     283A      1.013122   284A      1.016244   285A      1.025369  
     286A      1.029155   287A      1.033122   288A      1.038017  
     289A      1.045721   290A      1.049382   291A      1.053309  
     292A      1.056677   293A      1.062421   294A      1.071887  
     295A      1.074299   296A      1.077071   297A      1.082585  
     298A      1.085474   299A      1.087497   300A      1.090200  
     301A      1.095162   302A      1.097217   303A      1.100763  
     304A      1.104754   305A      1.113443   306A      1.117053  
     307A      1.123750   308A      1.124402   309A      1.129976  
     310A      1.132834   311A      1.132979   312A      1.140772  
     313A      1.142869   314A      1.147352   315A      1.152632  
     316A      1.158537   317A      1.160444   318A      1.168968  
     319A      1.176141   320A      1.179104   321A      1.183110  
     322A      1.189409   323A      1.191505   324A      1.195331  
     325A      1.197047   326A      1.200171   327A      1.201567  
     328A      1.207037   329A      1.209925   330A      1.213906  
     331A      1.218403   332A      1.224746   333A      1.227871  
     334A      1.232342   335A      1.233407   336A      1.234735  
     337A      1.238890   338A      1.244841   339A      1.254055  
     340A      1.256989   341A      1.273626   342A      1.274288  
     343A      1.276303   344A      1.283819   345A      1.288319  
     346A      1.299005   347A      1.300733   348A      1.304297  
     349A      1.307486   350A      1.314981   351A      1.320327  
     352A      1.330936   353A      1.335988   354A      1.343708  
     355A      1.347202   356A      1.359179   357A      1.361506  
     358A      1.363472   359A      1.366191   360A      1.377003  
     361A      1.378073   362A      1.385523   363A      1.393062  
     364A      1.395894   365A      1.405864   366A      1.411476  
     367A      1.419564   368A      1.422298   369A      1.426489  
     370A      1.432698   371A      1.437026   372A      1.447835  
     373A      1.453466   374A      1.456202   375A      1.465821  
     376A      1.474116   377A      1.483018   378A      1.483701  
     379A      1.495805   380A      1.497481   381A      1.505587  
     382A      1.511325   383A      1.513935   384A      1.527062  
     385A      1.531932   386A      1.535404   387A      1.540841  
     388A      1.552606   389A      1.565476   390A      1.570060  
     391A      1.574415   392A      1.576867   393A      1.589038  
     394A      1.596330   395A      1.598699   396A      1.605932  
     397A      1.615321   398A      1.621938   399A      1.634137  
     400A      1.638636   401A      1.644018   402A      1.666530  
     403A      1.673508   404A      1.677773   405A      1.684655  
     406A      1.691180   407A      1.694404   408A      1.706444  
     409A      1.719363   410A      1.722307   411A      1.727423  
     412A      1.729456   413A      1.735956   414A      1.743250  
     415A      1.756819   416A      1.761075   417A      1.766350  
     418A      1.770773   419A      1.775145   420A      1.781534  
     421A      1.787590   422A      1.793088   423A      1.799810  
     424A      1.804571   425A      1.805847   426A      1.812508  
     427A      1.828459   428A      1.839573   429A      1.848230  
     430A      1.851752   431A      1.854698   432A      1.859028  
     433A      1.864772   434A      1.867110   435A      1.873722  
     436A      1.878809   437A      1.881399   438A      1.890346  
     439A      1.898971   440A      1.913759   441A      1.922125  
     442A      1.924287   443A      1.936310   444A      1.938215  
     445A      1.944328   446A      1.957253   447A      1.963056  
     448A      1.981799   449A      1.984408   450A      1.995109  
     451A      2.000371   452A      2.011462   453A      2.013250  
     454A      2.018868   455A      2.029587   456A      2.033655  
     457A      2.040205   458A      2.047258   459A      2.049972  
     460A      2.056289   461A      2.062189   462A      2.064385  
     463A      2.068483   464A      2.071449   465A      2.075922  
     466A      2.085837   467A      2.099096   468A      2.103339  
     469A      2.106491   470A      2.114955   471A      2.115294  
     472A      2.127334   473A      2.130937   474A      2.140475  
     475A      2.142936   476A      2.150845   477A      2.157489  
     478A      2.160632   479A      2.162999   480A      2.170487  
     481A      2.175593   482A      2.186516   483A      2.191646  
     484A      2.197352   485A      2.205407   486A      2.216829  
     487A      2.230304   488A      2.233988   489A      2.244592  
     490A      2.250663   491A      2.255370   492A      2.266718  
     493A      2.289458   494A      2.291771   495A      2.305552  
     496A      2.313750   497A      2.327462   498A      2.338123  
     499A      2.340814   500A      2.356457   501A      2.358659  
     502A      2.373397   503A      2.379091   504A      2.386946  
     505A      2.392307   506A      2.402644   507A      2.411050  
     508A      2.420101   509A      2.428751   510A      2.432503  
     511A      2.438549   512A      2.441735   513A      2.453300  
     514A      2.465748   515A      2.483444   516A      2.486154  
     517A      2.489907   518A      2.495803   519A      2.503223  
     520A      2.520098   521A      2.534010   522A      2.539655  
     523A      2.572340   524A      2.583845   525A      2.607995  
     526A      2.608711   527A      2.616860   528A      2.631981  
     529A      2.636481   530A      2.650782   531A      2.659839  
     532A      2.662043   533A      2.671678   534A      2.706031  
     535A      2.720793   536A      2.744987   537A      2.757501  
     538A      2.780268   539A      2.794413   540A      2.807868  
     541A      2.812758   542A      2.817150   543A      2.829572  
     544A      2.841776   545A      2.853644   546A      2.893229  
     547A      2.899256   548A      2.915752   549A      2.950852  
     550A      2.974225   551A      3.037130   552A      3.044771  
     553A      3.076890   554A      3.115184   555A      3.141100  
     556A      3.149744   557A      3.189614   558A      3.198412  
     559A      3.210115   560A      3.219937   561A      3.227526  
     562A      3.235186   563A      3.252563   564A      3.271356  
     565A      3.276061   566A      3.296261   567A      3.312943  
     568A      3.324506   569A      3.347315   570A      3.351430  
     571A      3.357685   572A      3.370547   573A      3.384293  
     574A      3.391646   575A      3.399490   576A      3.403309  
     577A      3.415511   578A      3.420324   579A      3.428709  
     580A      3.443159   581A      3.451708   582A      3.454130  
     583A      3.463432   584A      3.469509   585A      3.473109  
     586A      3.480520   587A      3.487875   588A      3.496015  
     589A      3.515397   590A      3.519993   591A      3.532304  
     592A      3.535754   593A      3.541687   594A      3.549450  
     595A      3.554352   596A      3.558448   597A      3.566100  
     598A      3.576708   599A      3.579151   600A      3.587265  
     601A      3.591370   602A      3.597656   603A      3.610349  
     604A      3.617409   605A      3.626291   606A      3.627096  
     607A      3.631178   608A      3.639231   609A      3.654260  
     610A      3.658462   611A      3.661071   612A      3.665161  
     613A      3.706503   614A      3.714991   615A      3.717760  
     616A      3.720678   617A      3.724601   618A      3.738540  
     619A      3.747734   620A      3.755513   621A      3.763118  
     622A      3.767032   623A      3.779403   624A      3.782412  
     625A      3.802459   626A      3.809073   627A      3.815772  
     628A      3.835351   629A      3.840686   630A      3.855314  
     631A      3.858743   632A      3.864642   633A      3.875248  
     634A      3.879949   635A      3.886616   636A      3.892129  
     637A      3.894082   638A      3.902001   639A      3.909333  
     640A      3.913173   641A      3.924378   642A      3.930989  
     643A      3.940954   644A      3.955599   645A      3.961119  
     646A      3.974697   647A      3.978415   648A      3.984764  
     649A      3.993037   650A      4.000621   651A      4.007537  
     652A      4.010459   653A      4.017595   654A      4.025974  
     655A      4.031793   656A      4.034176   657A      4.038059  
     658A      4.041564   659A      4.049728   660A      4.056008  
     661A      4.065920   662A      4.074153   663A      4.085378  
     664A      4.096850   665A      4.100872   666A      4.113209  
     667A      4.122177   668A      4.128099   669A      4.136266  
     670A      4.152717   671A      4.156419   672A      4.165886  
     673A      4.170368   674A      4.184239   675A      4.190091  
     676A      4.195102   677A      4.210042   678A      4.214162  
     679A      4.225736   680A      4.239520   681A      4.242483  
     682A      4.249793   683A      4.265981   684A      4.273904  
     685A      4.286450   686A      4.293196   687A      4.296366  
     688A      4.299483   689A      4.308050   690A      4.312040  
     691A      4.320939   692A      4.326928   693A      4.329610  
     694A      4.335512   695A      4.346103   696A      4.355062  
     697A      4.365610   698A      4.378422   699A      4.384970  
     700A      4.400172   701A      4.403652   702A      4.410384  
     703A      4.412043   704A      4.423497   705A      4.424628  
     706A      4.436180   707A      4.439696   708A      4.448939  
     709A      4.455412   710A      4.469048   711A      4.471017  
     712A      4.475256   713A      4.485473   714A      4.487157  
     715A      4.495840   716A      4.499099   717A      4.500381  
     718A      4.512695   719A      4.518025   720A      4.531284  
     721A      4.535108   722A      4.554525   723A      4.576655  
     724A      4.590859   725A      4.591432   726A      4.609141  
     727A      4.628224   728A      4.656964   729A      4.662931  
     730A      4.674661   731A      4.688731   732A      4.708754  
     733A      4.714291   734A      4.724286   735A      4.727318  
     736A      4.739467   737A      4.748136   738A      4.753200  
     739A      4.762819   740A      4.768126   741A      4.776269  
     742A      4.784789   743A      4.798574   744A      4.811144  
     745A      4.817075   746A      4.823839   747A      4.859753  
     748A      4.870362   749A      4.882618   750A      4.892567  
     751A      4.901461   752A      4.915481   753A      4.922006  
     754A      4.944711   755A      4.950344   756A      4.971399  
     757A      4.974101   758A      4.998301   759A      5.008424  
     760A      5.017672   761A      5.027650   762A      5.036060  
     763A      5.040759   764A      5.064106   765A      5.077816  
     766A      5.085112   767A      5.100015   768A      5.109112  
     769A      5.115467   770A      5.123856   771A      5.126083  
     772A      5.134525   773A      5.143519   774A      5.148142  
     775A      5.161633   776A      5.168082   777A      5.169775  
     778A      5.172573   779A      5.178735   780A      5.183881  
     781A      5.189869   782A      5.193263   783A      5.202420  
     784A      5.224817   785A      5.233824   786A      5.245663  
     787A      5.258731   788A      5.273159   789A      5.288417  
     790A      5.311302   791A      5.323733   792A      5.330109  
     793A      5.336830   794A      5.346669   795A      5.355325  
     796A      5.365690   797A      5.381522   798A      5.392487  
     799A      5.406396   800A      5.425942   801A      5.427942  
     802A      5.430949   803A      5.471463   804A      5.477408  
     805A      5.504035   806A      5.514490   807A      5.522011  
     808A      5.549054   809A      5.569546   810A      5.587855  
     811A      5.597400   812A      5.619181   813A      5.654961  
     814A      5.669999   815A      5.702424   816A      5.710977  
     817A      5.740791   818A      5.762169   819A      5.791408  
     820A      5.798392   821A      5.800823   822A      5.813155  
     823A      5.844529   824A      5.869901   825A      5.911215  
     826A      5.941434   827A      5.961235   828A      6.002015  
     829A      6.074179   830A      6.122207   831A      6.158090  
     832A      6.195308   833A      6.209569   834A      6.221273  
     835A      6.243965   836A      6.258666   837A      6.295637  
     838A      6.336722   839A      6.364477   840A      6.365587  
     841A      6.381745   842A      6.408266   843A      6.426374  
     844A      6.449824   845A      6.544393   846A      6.551018  
     847A      6.617514   848A      6.622195   849A      6.692186  
     850A      6.725200   851A      6.787215   852A      6.846743  
     853A      6.916110   854A      6.921854   855A      6.970922  
     856A      7.018250   857A      7.024543   858A      7.135272  
     859A      7.163870   860A      7.302660   861A      7.345256  
     862A     15.976360   863A     16.106256   864A     16.233066  
     865A     16.455382   866A     18.935471   867A     19.057463  
     868A     19.141445   869A     19.497037   870A     19.738255  
     871A     20.172219   872A     20.417601   873A     20.502570  
     874A     21.058129  

    Final Occupation by Irrep:
              A 
    DOCC [    45 ]

  @DF-RHF Final Energy:  -499.41390793679420

   => Energetics <=

    Nuclear Repulsion Energy =            692.1265402553324293
    One-Electron Energy =               -2047.7211647981027909
    Two-Electron Energy =                 856.1807166059761585
    Total Energy =                       -499.4139079367942031

Computation Completed

*** tstop() called on node142.bme.utexas.edu at Wed Feb  3 05:04:36 2021
Module time:
	user time   =    1129.22 seconds =      18.82 minutes
	system time =     125.05 seconds =       2.08 minutes
	total time  =        256 seconds =       4.27 minutes
Total time:
	user time   =    1129.22 seconds =      18.82 minutes
	system time =     125.05 seconds =       2.08 minutes
	total time  =        256 seconds =       4.27 minutes
   => Loading Basis Set <=

    Name: (AUG-CC-PVTZ AUX)
    Role: RIFIT
    Keyword: DF_BASIS_MP2
    atoms 1-13  entry C          line   148 file /home/xy3866/psi4conda/share/psi4/basis/aug-cc-pvtz-ri.gbs 
    atoms 14-25 entry H          line    30 file /home/xy3866/psi4conda/share/psi4/basis/aug-cc-pvtz-ri.gbs 


*** tstart() called on node142.bme.utexas.edu
*** at Wed Feb  3 05:04:36 2021


  //>>>>>>>>>>>>>>>>>>>>>>>>>>>>>>>>>>>//
  //               DFMP2               //
  //<<<<<<<<<<<<<<<<<<<<<<<<<<<<<<<<<<<//

	 --------------------------------------------------------
	                          DF-MP2                         
	      2nd-Order Density-Fitted Moller-Plesset Theory     
	              RMP2 Wavefunction,   8 Threads             
	                                                         
	        Rob Parrish, Justin Turney, Andy Simmonett,      
	           Ed Hohenstein, and C. David Sherrill          
	 --------------------------------------------------------

   => Auxiliary Basis Set <=

  Basis Set: (AUG-CC-PVTZ AUX)
    Blend: AUG-CC-PVTZ-RI
    Number of shells: 532
    Number of basis function: 1930
    Number of Cartesian functions: 2428
    Spherical Harmonics?: true
    Max angular momentum: 4

	 --------------------------------------------------------
	                 NBF =   874, NAUX =  1930
	 --------------------------------------------------------
	   CLASS    FOCC     OCC    AOCC    AVIR     VIR    FVIR
	   PAIRS       0      45      45     829     829       0
	 --------------------------------------------------------

  DFHelper Memory: AOs need 10.031 GiB; user supplied 22.352 GiB. Using in-core AOs.


         ------------------------------------------------------------
                                     CPHF                           
                                  Rob Parrish                       
         ------------------------------------------------------------

  ==> Geometry <==

    Molecular point group: c1
    Full point group: C1

    Geometry (in Angstrom), charge = 0, multiplicity = 1:

       Center              X                  Y                   Z               Mass       
    ------------   -----------------  -----------------  -----------------  -----------------
         C           -0.055582524459     0.121119453339     1.575319861041    12.000000000000
         C           -1.247776724459    -0.071075046661     0.665686861041    12.000000000000
         C            1.256322275541     0.051352953339     0.665747861041    12.000000000000
         C           -1.419782724459    -1.113416046661    -0.256587138959    12.000000000000
         C            1.428281275541     1.094924953339    -0.255141138959    12.000000000000
         C           -2.247698724459     0.901159953339     0.776353861041    12.000000000000
         C            2.256303275541    -0.920964046661     0.775151861041    12.000000000000
         C           -2.568340724459    -1.184158046661    -1.043348138959    12.000000000000
         C            2.576828275541     1.166749953339    -1.041822138959    12.000000000000
         C           -3.399086724459     0.835568953339    -0.013318138959    12.000000000000
         C            3.407679275541    -0.854285046661    -0.014446138959    12.000000000000
         C           -3.562751724459    -0.208364046661    -0.924201138959    12.000000000000
         C            3.571298275541     0.190864953339    -0.923943138959    12.000000000000
         H           -0.045711724459     0.866796953339     2.169169861041     1.007825032230
         H            0.054281275541    -0.888591046661     2.167960861041     1.007825032230
         H           -0.639876724459    -1.866089046661    -0.362359138959     1.007825032230
         H            0.648327275541     1.847683953339    -0.359938138959     1.007825032230
         H           -2.126207724459     1.716011953339     1.488658861041     1.007825032230
         H            2.134844275541    -1.736768046661     1.486370861041     1.007825032230
         H           -2.688298724459    -1.999584046661    -1.753125138959     1.007825032230
         H            2.696751275541     1.983124953339    -1.750512138959     1.007825032230
         H           -4.166359724459     1.600317953339     0.084182861041     1.007825032230
         H            4.175002275541    -1.619109046661     0.082063861041     1.007825032230
         H           -4.457444724459    -0.261980046661    -1.539790138959     1.007825032230
         H            4.465978275541     0.245321953339    -1.539476138959     1.007825032230

  Nuclear repulsion =  692.126540255332429
  Reference energy  = -499.413907936794203

  ==> Basis Set <==

  Basis Set: AUG-CC-PVTZ
    Blend: AUG-CC-PVTZ
    Number of shells: 290
    Number of basis function: 874
    Number of Cartesian functions: 1015
    Spherical Harmonics?: true
    Max angular momentum: 3

  ==> CGRSolver (by Rob Parrish) <==

   Number of roots    =         1
   Preconditioning    =    JACOBI
   Convergence cutoff =     1E-06
   Maximum iterations =       100

  ==> CPHFRHamiltonian (by Rob Parrish) <== 

  ==> MemDFJK: Density-Fitted J/K Matrices <==

    J tasked:                   Yes
    K tasked:                   Yes
    wK tasked:                   No
    OpenMP threads:               8
    Memory [MiB]:             22888
    Algorithm:                 Disk
    Schwarz Cutoff:           1E-12
    Mask sparsity (%):       9.5214
    Fitting Condition:        1E-10

   => Auxiliary Basis Set <=

  Basis Set: (AUG-CC-PVTZ AUX)
    Blend: AUG-CC-PVTZ-JKFIT
    Number of shells: 558
    Number of basis function: 1904
    Number of Cartesian functions: 2363
    Spherical Harmonics?: true
    Max angular momentum: 4

  ==> CPHF Iterations <==

  => Iterations <=

             Iter  Converged  Remaining    Residual
  CGR           1          0          1   7.578E-02
  CGR           2          0          1   1.635E-02
  CGR           3          0          1   7.498E-03
  CGR           4          0          1   4.789E-03
  CGR           5          0          1   1.933E-03
  CGR           6          0          1   6.736E-04
  CGR           7          0          1   1.999E-04
  CGR           8          0          1   7.182E-05
  CGR           9          0          1   2.407E-05
  CGR          10          0          1   9.098E-06
  CGR          11          0          1   5.057E-06
  CGR          12          0          1   1.485E-06
  CGR          13          1          0   5.439E-07

    CGRSolver converged.

	-----------------------------------------------------------
	 ==================> DF-MP2 Energies <==================== 
	-----------------------------------------------------------
	 Reference Energy          =    -499.4139079367942031 [Eh]
	 Singles Energy            =      -0.0000000000000000 [Eh]
	 Same-Spin Energy          =      -0.5642202366420854 [Eh]
	 Opposite-Spin Energy      =      -1.7796159646688157 [Eh]
	 Correlation Energy        =      -2.3438362013109009 [Eh]
	 Total Energy              =    -501.7577441381051244 [Eh]
	-----------------------------------------------------------
	 ================> DF-SCS-MP2 Energies <================== 
	-----------------------------------------------------------
	 SCS Same-Spin Scale       =       0.3333333333333333 [-]
	 SCS Opposite-Spin Scale   =       1.2000000000000000 [-]
	 SCS Same-Spin Energy      =      -0.1880734122140285 [Eh]
	 SCS Opposite-Spin Energy  =      -2.1355391576025786 [Eh]
	 SCS Correlation Energy    =      -2.3236125698166070 [Eh]
	 SCS Total Energy          =    -501.7375205066107924 [Eh]
	-----------------------------------------------------------



Properties will be evaluated at   0.000000,  -0.000000,  -0.000000 [a0]

Properties computed using the MP2 density matrix

  Nuclear Dipole Moment: [e a0]
     X:     0.0481      Y:    -0.1058      Z:     0.1624

  Electronic Dipole Moment: [e a0]
     X:    -0.0272      Y:     0.1359      Z:    -0.1307

  Dipole Moment: [e a0]
     X:     0.0209      Y:     0.0301      Z:     0.0316     Total:     0.0484

  Dipole Moment: [D]
     X:     0.0531      Y:     0.0766      Z:     0.0804     Total:     0.1231


*** tstop() called on node142.bme.utexas.edu at Wed Feb  3 05:15:39 2021
Module time:
	user time   =    4163.54 seconds =      69.39 minutes
	system time =     153.43 seconds =       2.56 minutes
	total time  =        663 seconds =      11.05 minutes
Total time:
	user time   =    5293.15 seconds =      88.22 minutes
	system time =     278.49 seconds =       4.64 minutes
	total time  =        919 seconds =      15.32 minutes

    Psi4 stopped on: Wednesday, 03 February 2021 05:15AM
    Psi4 wall time for execution: 0:15:20.27

*** Psi4 exiting successfully. Buy a developer a beer!
