146_AcrylicAcid Gaussian SP Calculation on g2-node38.bme.utexas.edu     
Freq      RMP2-FC                                                     6-31G(d)            
Number of atoms                            I                9
Info1-9                                    I   N=           9
          20          19        1002           0           0         100
           6           2           1
Charge                                     I                0
Multiplicity                               I                1
Number of electrons                        I               38
Number of alpha electrons                  I               19
Number of beta electrons                   I               19
Number of basis functions                  I               83
Number of independent functions            I               83
Number of point charges in /Mol/           I                0
Number of translation vectors              I                0
Atomic numbers                             I   N=           9
           8           8           6           6           6           1
           1           1           1
Nuclear charges                            R   N=           9
  8.00000000E+00  8.00000000E+00  6.00000000E+00  6.00000000E+00  6.00000000E+00
  1.00000000E+00  1.00000000E+00  1.00000000E+00  1.00000000E+00
Current cartesian coordinates              R   N=          27
  2.88777553E+00 -1.45152533E+00  2.51684343E-05  1.16040180E+00  2.47128459E+00
 -1.84393720E-05 -1.53211447E+00 -1.20676356E+00 -3.24389590E-05  8.98692661E-01
  1.79884734E-01 -1.01509732E-05 -3.71617583E+00  6.97149598E-02  2.53415510E-05
 -1.44957295E+00 -3.25545021E+00 -8.66841972E-05 -5.52447616E+00 -8.94279986E-01
  1.64535419E-05 -3.71500759E+00  2.12055740E+00  8.02228261E-05  4.40122395E+00
 -3.85918107E-01  3.96656182E-05
Force Field                                I                0
Int Atom Types                             I   N=           9
           0           0           0           0           0           0
           0           0           0
MM charges                                 R   N=           9
  0.00000000E+00  0.00000000E+00  0.00000000E+00  0.00000000E+00  0.00000000E+00
  0.00000000E+00  0.00000000E+00  0.00000000E+00  0.00000000E+00
Integer atomic weights                     I   N=           9
          16          16          12          12          12           1
           1           1           1
Real atomic weights                        R   N=           9
  1.59949146E+01  1.59949146E+01  1.20000000E+01  1.20000000E+01  1.20000000E+01
  1.00782504E+00  1.00782504E+00  1.00782504E+00  1.00782504E+00
Atom fragment info                         I   N=           9
           0           0           0           0           0           0
           0           0           0
Atom residue num                           I   N=           9
           0           0           0           0           0           0
           0           0           0
Nuclear spins                              I   N=           9
           0           0           0           0           0           1
           1           1           1
Nuclear ZEff                               R   N=           9
 -5.60000000E+00 -5.60000000E+00 -3.60000000E+00 -3.60000000E+00 -3.60000000E+00
 -1.00000000E+00 -1.00000000E+00 -1.00000000E+00 -1.00000000E+00
Nuclear QMom                               R   N=           9
  0.00000000E+00  0.00000000E+00  0.00000000E+00  0.00000000E+00  0.00000000E+00
  0.00000000E+00  0.00000000E+00  0.00000000E+00  0.00000000E+00
Nuclear GFac                               R   N=           9
  0.00000000E+00  0.00000000E+00  0.00000000E+00  0.00000000E+00  0.00000000E+00
  2.79284600E+00  2.79284600E+00  2.79284600E+00  2.79284600E+00
MicOpt                                     I   N=           9
          -1          -1          -1          -1          -1          -1
          -1          -1          -1
Number of contracted shells                I               28
Number of primitive shells                 I               71
Pure/Cartesian d shells                    I                1
Pure/Cartesian f shells                    I                0
Highest angular momentum                   I                2
Largest degree of contraction              I                6
Shell types                                I   N=          28
           0          -1          -1           2           0          -1
          -1           2           0          -1          -1           2
           0          -1          -1           2           0          -1
          -1           2           0           0           0           0
           0           0           0           0
Number of primitives per shell             I   N=          28
           6           3           1           1           6           3
           1           1           6           3           1           1
           6           3           1           1           6           3
           1           1           3           1           3           1
           3           1           3           1
Shell to atom map                          I   N=          28
           1           1           1           1           2           2
           2           2           3           3           3           3
           4           4           4           4           5           5
           5           5           6           6           7           7
           8           8           9           9
Primitive exponents                        R   N=          71
  5.48467166E+03  8.25234946E+02  1.88046958E+02  5.29645000E+01  1.68975704E+01
  5.79963534E+00  1.55396162E+01  3.59993359E+00  1.01376175E+00  2.70005823E-01
  8.00000000E-01  5.48467166E+03  8.25234946E+02  1.88046958E+02  5.29645000E+01
  1.68975704E+01  5.79963534E+00  1.55396162E+01  3.59993359E+00  1.01376175E+00
  2.70005823E-01  8.00000000E-01  3.04752488E+03  4.57369518E+02  1.03948685E+02
  2.92101553E+01  9.28666296E+00  3.16392696E+00  7.86827235E+00  1.88128854E+00
  5.44249258E-01  1.68714478E-01  8.00000000E-01  3.04752488E+03  4.57369518E+02
  1.03948685E+02  2.92101553E+01  9.28666296E+00  3.16392696E+00  7.86827235E+00
  1.88128854E+00  5.44249258E-01  1.68714478E-01  8.00000000E-01  3.04752488E+03
  4.57369518E+02  1.03948685E+02  2.92101553E+01  9.28666296E+00  3.16392696E+00
  7.86827235E+00  1.88128854E+00  5.44249258E-01  1.68714478E-01  8.00000000E-01
  1.87311370E+01  2.82539436E+00  6.40121692E-01  1.61277759E-01  1.87311370E+01
  2.82539436E+00  6.40121692E-01  1.61277759E-01  1.87311370E+01  2.82539436E+00
  6.40121692E-01  1.61277759E-01  1.87311370E+01  2.82539436E+00  6.40121692E-01
  1.61277759E-01
Contraction coefficients                   R   N=          71
  1.83107443E-03  1.39501722E-02  6.84450781E-02  2.32714336E-01  4.70192898E-01
  3.58520853E-01 -1.10777550E-01 -1.48026263E-01  1.13076702E+00  1.00000000E+00
  1.00000000E+00  1.83107443E-03  1.39501722E-02  6.84450781E-02  2.32714336E-01
  4.70192898E-01  3.58520853E-01 -1.10777550E-01 -1.48026263E-01  1.13076702E+00
  1.00000000E+00  1.00000000E+00  1.83473713E-03  1.40373228E-02  6.88426223E-02
  2.32184443E-01  4.67941348E-01  3.62311985E-01 -1.19332420E-01 -1.60854152E-01
  1.14345644E+00  1.00000000E+00  1.00000000E+00  1.83473713E-03  1.40373228E-02
  6.88426223E-02  2.32184443E-01  4.67941348E-01  3.62311985E-01 -1.19332420E-01
 -1.60854152E-01  1.14345644E+00  1.00000000E+00  1.00000000E+00  1.83473713E-03
  1.40373228E-02  6.88426223E-02  2.32184443E-01  4.67941348E-01  3.62311985E-01
 -1.19332420E-01 -1.60854152E-01  1.14345644E+00  1.00000000E+00  1.00000000E+00
  3.34946043E-02  2.34726953E-01  8.13757326E-01  1.00000000E+00  3.34946043E-02
  2.34726953E-01  8.13757326E-01  1.00000000E+00  3.34946043E-02  2.34726953E-01
  8.13757326E-01  1.00000000E+00  3.34946043E-02  2.34726953E-01  8.13757326E-01
  1.00000000E+00
P(S=P) Contraction coefficients            R   N=          71
  0.00000000E+00  0.00000000E+00  0.00000000E+00  0.00000000E+00  0.00000000E+00
  0.00000000E+00  7.08742682E-02  3.39752839E-01  7.27158577E-01  1.00000000E+00
  0.00000000E+00  0.00000000E+00  0.00000000E+00  0.00000000E+00  0.00000000E+00
  0.00000000E+00  0.00000000E+00  7.08742682E-02  3.39752839E-01  7.27158577E-01
  1.00000000E+00  0.00000000E+00  0.00000000E+00  0.00000000E+00  0.00000000E+00
  0.00000000E+00  0.00000000E+00  0.00000000E+00  6.89990666E-02  3.16423961E-01
  7.44308291E-01  1.00000000E+00  0.00000000E+00  0.00000000E+00  0.00000000E+00
  0.00000000E+00  0.00000000E+00  0.00000000E+00  0.00000000E+00  6.89990666E-02
  3.16423961E-01  7.44308291E-01  1.00000000E+00  0.00000000E+00  0.00000000E+00
  0.00000000E+00  0.00000000E+00  0.00000000E+00  0.00000000E+00  0.00000000E+00
  6.89990666E-02  3.16423961E-01  7.44308291E-01  1.00000000E+00  0.00000000E+00
  0.00000000E+00  0.00000000E+00  0.00000000E+00  0.00000000E+00  0.00000000E+00
  0.00000000E+00  0.00000000E+00  0.00000000E+00  0.00000000E+00  0.00000000E+00
  0.00000000E+00  0.00000000E+00  0.00000000E+00  0.00000000E+00  0.00000000E+00
  0.00000000E+00
Coordinates of each shell                  R   N=          84
  2.88777553E+00 -1.45152533E+00  2.51684343E-05  2.88777553E+00 -1.45152533E+00
  2.51684343E-05  2.88777553E+00 -1.45152533E+00  2.51684343E-05  2.88777553E+00
 -1.45152533E+00  2.51684343E-05  1.16040180E+00  2.47128459E+00 -1.84393720E-05
  1.16040180E+00  2.47128459E+00 -1.84393720E-05  1.16040180E+00  2.47128459E+00
 -1.84393720E-05  1.16040180E+00  2.47128459E+00 -1.84393720E-05 -1.53211447E+00
 -1.20676356E+00 -3.24389590E-05 -1.53211447E+00 -1.20676356E+00 -3.24389590E-05
 -1.53211447E+00 -1.20676356E+00 -3.24389590E-05 -1.53211447E+00 -1.20676356E+00
 -3.24389590E-05  8.98692661E-01  1.79884734E-01 -1.01509732E-05  8.98692661E-01
  1.79884734E-01 -1.01509732E-05  8.98692661E-01  1.79884734E-01 -1.01509732E-05
  8.98692661E-01  1.79884734E-01 -1.01509732E-05 -3.71617583E+00  6.97149598E-02
  2.53415510E-05 -3.71617583E+00  6.97149598E-02  2.53415510E-05 -3.71617583E+00
  6.97149598E-02  2.53415510E-05 -3.71617583E+00  6.97149598E-02  2.53415510E-05
 -1.44957295E+00 -3.25545021E+00 -8.66841972E-05 -1.44957295E+00 -3.25545021E+00
 -8.66841972E-05 -5.52447616E+00 -8.94279986E-01  1.64535419E-05 -5.52447616E+00
 -8.94279986E-01  1.64535419E-05 -3.71500759E+00  2.12055740E+00  8.02228261E-05
 -3.71500759E+00  2.12055740E+00  8.02228261E-05  4.40122395E+00 -3.85918107E-01
  3.96656182E-05  4.40122395E+00 -3.85918107E-01  3.96656182E-05
Constraint Structure                       R   N=          27
  2.88777553E+00 -1.45152533E+00  2.51684343E-05  1.16040180E+00  2.47128459E+00
 -1.84393720E-05 -1.53211447E+00 -1.20676356E+00 -3.24389590E-05  8.98692661E-01
  1.79884734E-01 -1.01509732E-05 -3.71617583E+00  6.97149598E-02  2.53415510E-05
 -1.44957295E+00 -3.25545021E+00 -8.66841972E-05 -5.52447616E+00 -8.94279986E-01
  1.64535419E-05 -3.71500759E+00  2.12055740E+00  8.02228261E-05  4.40122395E+00
 -3.85918107E-01  3.96656182E-05
Num ILSW                                   I              100
ILSW                                       I   N=         100
           0           1           0           1           2           0
           0           0           0           0           0          -1
           0           0           0           0           0           0
           0           0           0           0           1           0
           1           0           0           0           0           0
           0           0      100000           0          -1           0
           0           0           0           0           0           0
           0           0           0           1           1           0
           0           0           1           0           0           0
           0           0           4          40           0           0
           0           0           0           0           0           0
           0           0           0           0           0           0
           0           0           0           0           0           0
           0           0           0           0           0           0
           0           0           0           0           0           0
           0           0           0           0           0           0
           0           0           0           0
Num RLSW                                   I               40
RLSW                                       R   N=          40
  1.00000000E+00  1.00000000E+00  1.00000000E+00  1.00000000E+00  1.00000000E+00
  0.00000000E+00  0.00000000E+00  1.00000000E+00  0.00000000E+00  0.00000000E+00
  0.00000000E+00  0.00000000E+00  1.00000000E+00  0.00000000E+00  0.00000000E+00
  0.00000000E+00  0.00000000E+00  1.00000000E+00  0.00000000E+00  0.00000000E+00
  0.00000000E+00  0.00000000E+00  1.00000000E+00  0.00000000E+00  0.00000000E+00
  0.00000000E+00  0.00000000E+00  1.00000000E+00  0.00000000E+00  0.00000000E+00
  0.00000000E+00  0.00000000E+00  0.00000000E+00  0.00000000E+00  0.00000000E+00
  0.00000000E+00  0.00000000E+00  0.00000000E+00  1.00000000E+00  1.00000000E+00
MxBond                                     I                3
NBond                                      I   N=           9
           2           1           3           3           3           1
           1           1           1
IBond                                      I   N=          27
           4           9           0           4           0           0
           4           5           6           1           2           3
           3           7           8           3           0           0
           5           0           0           5           0           0
           1           0           0
RBond                                      R   N=          27
  1.50000000E+00  1.00000000E+00  0.00000000E+00  2.00000000E+00  0.00000000E+00
  0.00000000E+00  1.00000000E+00  2.00000000E+00  1.00000000E+00  1.50000000E+00
  2.00000000E+00  1.00000000E+00  2.00000000E+00  1.00000000E+00  1.00000000E+00
  1.00000000E+00  0.00000000E+00  0.00000000E+00  1.00000000E+00  0.00000000E+00
  0.00000000E+00  1.00000000E+00  0.00000000E+00  0.00000000E+00  1.00000000E+00
  0.00000000E+00  0.00000000E+00
Virial Ratio                               R      2.003183052904145E+00
SCF Energy                                 R     -2.656499922858617E+02
MP2 Energy                                 R     -2.663805655769647E+02
Total Energy                               R     -2.663805655769647E+02
Post-SCF wavefunction norm                 R      1.569035598881136E+00
RMS Force                                  R      2.140732269186192E-07
RMS Density                                R      2.708287706645502E-09
External E-field                           R   N=          35
  0.00000000E+00  0.00000000E+00  0.00000000E+00  0.00000000E+00  0.00000000E+00
  0.00000000E+00  0.00000000E+00  0.00000000E+00  0.00000000E+00  0.00000000E+00
  0.00000000E+00  0.00000000E+00  0.00000000E+00  0.00000000E+00  0.00000000E+00
  0.00000000E+00  0.00000000E+00  0.00000000E+00  0.00000000E+00  0.00000000E+00
  0.00000000E+00  0.00000000E+00  0.00000000E+00  0.00000000E+00  0.00000000E+00
  0.00000000E+00  0.00000000E+00  0.00000000E+00  0.00000000E+00  0.00000000E+00
  0.00000000E+00  0.00000000E+00  0.00000000E+00  0.00000000E+00  0.00000000E+00
IOpCl                                      I                0
IROHF                                      I                0
Alpha Orbital Energies                     R   N=          83
 -2.06200229E+01 -2.05543927E+01 -1.13945011E+01 -1.12666457E+01 -1.12552271E+01
 -1.45589794E+00 -1.35161282E+00 -1.07747365E+00 -9.01475884E-01 -7.66685244E-01
 -7.09202331E-01 -6.92643512E-01 -6.23978914E-01 -6.17278869E-01 -5.93240496E-01
 -5.46487259E-01 -4.82630718E-01 -4.51811966E-01 -3.94419404E-01  1.00340482E-01
  2.29880524E-01  2.58119728E-01  2.73720178E-01  2.87182912E-01  3.33822408E-01
  4.48631918E-01  4.74022086E-01  5.05648620E-01  5.08818771E-01  7.32463677E-01
  7.40273730E-01  7.66425569E-01  8.18338781E-01  8.25124819E-01  8.82197614E-01
  8.83436990E-01  9.48220679E-01  9.94349828E-01  1.07237496E+00  1.10003296E+00
  1.11691226E+00  1.14494887E+00  1.16190413E+00  1.19879495E+00  1.20265865E+00
  1.27121887E+00  1.32771946E+00  1.34022850E+00  1.40578959E+00  1.48073984E+00
  1.57484929E+00  1.59090629E+00  1.63833655E+00  1.72804359E+00  1.75577990E+00
  1.92039293E+00  1.98014249E+00  2.02264580E+00  2.05176578E+00  2.10370247E+00
  2.11126374E+00  2.19194040E+00  2.23495928E+00  2.34330237E+00  2.34838800E+00
  2.37112243E+00  2.47623128E+00  2.63229204E+00  2.63374229E+00  2.75495103E+00
  2.82829354E+00  2.84813768E+00  2.99575488E+00  3.00502634E+00  3.10465923E+00
  3.26398512E+00  3.41343705E+00  3.49536870E+00  4.22715166E+00  4.46510184E+00
  4.57755164E+00  4.71319147E+00  4.88917854E+00
Alpha MO coefficients                      R   N=        6889
  9.94640295E-01  2.11769556E-02  4.26007109E-05  1.27286858E-03 -6.93287219E-09
  4.00248310E-03 -1.60534652E-04 -6.36159174E-04  1.58847017E-09 -4.15463835E-03
 -4.08043094E-03 -3.94747560E-03 -6.38081157E-06 -3.07476177E-09  9.48855512E-10
 -2.63415022E-04  1.55218179E-05 -2.64845874E-05  3.50181133E-05 -8.97830202E-10
 -2.11434329E-04 -7.73877988E-05  6.25453477E-05  1.02470316E-10  1.42189402E-05
 -3.67077773E-05 -1.50258782E-05  6.48460280E-05  1.72765084E-11  8.02993550E-10
 -8.61050391E-06  4.84470453E-06  1.84536929E-05 -1.31049301E-05  3.15208615E-10
  7.44211685E-04 -3.24115077E-04  3.29197209E-04  6.34268086E-09 -8.04881939E-05
 -1.18192842E-05 -2.66204868E-05 -9.03327682E-06 -2.22987398E-09  5.83038387E-10
 -2.76650718E-06  3.81602385E-04  2.39325065E-04 -2.06295272E-04  4.21972147E-09
 -1.56429347E-04  2.97453397E-04  3.17356422E-04 -6.86659621E-10 -5.27761950E-05
 -2.63842608E-05 -5.45812527E-05  5.36130592E-05 -6.54043167E-11  8.23100126E-10
  5.28101843E-06  3.24345919E-05 -1.32526818E-05 -1.99948077E-07 -7.97335199E-10
 -5.86352632E-04 -2.35547663E-04  1.22564858E-04  9.42230745E-09 -6.86436775E-06
  1.35140347E-05  7.92807180E-06 -4.43676061E-06  3.86978182E-10  2.88603197E-10
  4.88028516E-05 -3.20882929E-05  1.37470949E-05 -2.75640770E-06  1.56703810E-05
 -1.02476313E-05  4.33995709E-04 -2.45867537E-04  2.57251372E-04 -5.45100991E-05
  9.47310747E-06 -3.92789298E-05  4.77934797E-10  2.04800256E-04 -6.53211715E-05
  7.66461691E-05 -1.66402910E-09  5.72943684E-05 -1.04820406E-04 -7.89343446E-05
 -1.94534419E-06  2.22529985E-09  1.71816208E-10  9.94688933E-01  2.09828142E-02
 -1.50715336E-04 -1.56612159E-03  7.28968121E-09  4.54301530E-03  2.30486580E-05
  1.50238103E-05  4.05904445E-10 -3.91942618E-03 -3.60617047E-03 -4.12698483E-03
  3.70774172E-05  3.61597083E-09 -2.67278843E-09  2.96230304E-06 -4.40794303E-06
  6.12767480E-06 -1.63209786E-05  7.46000634E-10 -4.63667356E-05 -2.94561497E-04
  2.43833530E-05  8.84662842E-10  9.28532472E-05 -5.21943646E-05 -7.11711712E-06
 -4.30614973E-05  3.92377723E-10 -1.12932777E-10 -5.30355569E-06  4.93043188E-04
 -7.60828663E-06 -5.03210207E-05 -7.46486940E-12 -3.26397106E-04 -2.60511284E-04
 -5.28446437E-04 -6.93933023E-10 -6.97912143E-05 -8.17267781E-04 -3.78499840E-05
 -8.44274525E-05 -2.85514691E-10  3.50853701E-09  8.65317347E-07  9.14954006E-06
 -5.31656427E-06  1.74286078E-05  3.75549703E-10 -1.38797746E-04 -1.50855693E-04
  1.19242777E-04  6.53915153E-09 -1.47515483E-05 -2.15277542E-05  8.76923101E-06
  3.05808345E-05  1.71776860E-09 -1.64591185E-09  2.57750494E-05 -1.82701296E-05
 -2.37157098E-06 -3.95427979E-05  3.17301049E-05 -1.39021740E-04 -1.80599395E-05
 -6.11703285E-06 -8.99619583E-05  6.15466762E-04 -6.43425161E-05  1.65136728E-04
 -1.96007295E-09 -1.21504403E-03  5.09126938E-04 -1.64464072E-03  1.53366256E-08
 -3.08451931E-04 -2.49310712E-04  5.21388522E-04  5.05501342E-04 -1.57530352E-08
  1.11934747E-08 -2.33641164E-04  8.13344951E-04  1.03573720E-05 -3.14177087E-04
  2.87726184E-09 -4.33729233E-03 -5.08723336E-04  2.05909881E-03 -2.16857331E-08
  3.40082985E-04  1.20522337E-04  5.11517101E-04  1.60210102E-04 -3.08580844E-09
  4.66721067E-09  2.39873873E-03  7.73645810E-05 -9.72210503E-05 -3.37854231E-05
 -1.40918958E-09  4.05276490E-03  3.34760262E-03  7.11755217E-05 -9.94387109E-09
 -5.55296568E-04 -2.63137181E-04 -1.79867140E-04 -8.62636260E-05  1.21690924E-10
 -7.85623295E-10  9.95904667E-01  2.59032287E-02  8.79638442E-04 -2.20661157E-04
  1.27055987E-08 -6.35256939E-03  3.59510256E-03  4.03194173E-03  3.45832414E-08
 -1.13733130E-03 -4.62750127E-04 -2.26935549E-03 -8.53284329E-05  1.66204676E-08
 -1.28983783E-08 -2.49799659E-05 -2.42724725E-04 -2.06484288E-05 -6.85483491E-05
 -2.84975686E-09  1.52241991E-03  9.41375932E-04 -4.54608615E-04 -2.39680131E-08
  1.10388548E-04  6.46720912E-05 -1.04052364E-04 -7.52024077E-05 -4.95515913E-09
  7.66851609E-09 -2.28670991E-04 -3.06438811E-04 -2.84677511E-05  3.20897356E-04
 -1.02498797E-04  1.78717618E-04  2.88265146E-04  8.39455587E-06 -3.33077858E-05
 -1.53712369E-04  2.08195094E-05  1.53280174E-06  1.84626470E-09  8.95909916E-04
 -3.15795694E-04  8.70616273E-05 -1.16393836E-08 -5.22498373E-05 -1.06694519E-04
 -9.84180029E-05 -1.00179517E-05  2.16896000E-09 -4.14342945E-11  2.18478289E-05
  8.79615093E-05  2.22726518E-06 -8.65039525E-07  9.24843676E-10 -6.51312568E-04
  1.62920789E-04  8.50097758E-05 -3.98027559E-09  4.81642163E-05  7.76103759E-05
  3.51673348E-05 -8.24981527E-06  4.80434739E-10  4.69443600E-10  7.06889249E-02
  1.70823854E-03  2.09684881E-04 -1.02638002E-04 -4.70295284E-09  3.07370737E-03
 -1.40896073E-03  3.76022369E-04  2.89499564E-08 -4.30162056E-04 -4.32823387E-04
 -2.33693092E-04 -2.10991492E-05  2.95276941E-09 -5.65527283E-09 -2.10784501E-04
 -1.40706235E-04  1.65750086E-05 -5.80333678E-06 -8.42152007E-10  2.67176699E-04
 -6.30955021E-04  6.50339918E-04 -1.69344216E-09  5.52965304E-05 -4.80675999E-05
 -3.55561846E-05  2.15209206E-05 -1.89311314E-09  1.95348933E-09  9.93081557E-01
  2.73016540E-02  7.50941424E-05 -9.36977508E-05 -2.46254370E-10 -1.11112089E-02
 -5.74866032E-04  3.41408489E-04  1.47645430E-08 -1.67275158E-03 -1.87766740E-03
 -2.54908535E-03 -1.86096864E-04 -1.60384091E-08  2.37768324E-08 -9.33489779E-05
 -8.78356503E-05 -1.60573207E-04  2.04535456E-03 -1.11499488E-04  2.01785471E-03
  6.65775791E-07  7.01972507E-05  1.38268386E-05 -5.76735512E-05  2.15623184E-05
 -3.89179627E-06 -2.54313408E-09 -1.63587940E-04 -2.95188183E-05 -1.09717989E-05
  6.45452290E-09  1.18173002E-04  4.10835092E-05 -2.38115478E-05  7.18744284E-06
  4.54207778E-10 -1.91770194E-09  2.91478844E-05  6.40698397E-05  1.79169921E-05
 -4.26037136E-05  3.28480521E-09 -7.62576181E-04  2.01348336E-04  1.23004755E-04
 -5.43714568E-09  1.03885556E-04  1.89995396E-04 -1.43386672E-05 -2.03370694E-05
  2.76251997E-09 -1.49574892E-09  9.93115251E-01  2.77778020E-02  2.27217509E-04
  3.69964629E-04  1.40138875E-08 -1.36610466E-02 -5.78425684E-05 -2.09323550E-03
 -6.43384720E-08 -1.55270090E-03 -1.83928203E-03 -2.37211004E-03 -1.79425357E-04
 -1.29557674E-08  1.87694614E-08 -2.77166491E-03  4.80636355E-05  7.62612910E-05
  4.80773889E-05  2.14566922E-09  4.35631075E-03 -1.72426330E-03 -3.22284997E-04
 -1.07348882E-08 -5.48614915E-04 -4.62187110E-04 -1.40826307E-04 -2.50539267E-04
 -4.37611603E-09 -5.89625219E-09 -7.13319861E-02 -2.26547641E-03 -1.63956682E-04
  8.09366006E-05  3.96994249E-09  5.59813503E-03  1.99153724E-03 -3.79204474E-04
 -3.06914412E-08 -1.58427544E-04 -1.60056414E-04  1.26917119E-04  4.78260603E-05
  4.58483726E-09 -1.01241807E-08 -1.66931526E-04  1.51262406E-03 -6.56394243E-06
 -2.94885766E-05 -1.08484962E-04 -5.46556932E-04  6.97725881E-06  1.20697953E-04
 -1.62582478E-01  3.65814327E-01 -2.37489123E-02  8.50821631E-02 -7.81761806E-07
  3.43579012E-01 -1.18325576E-02  5.12450490E-02 -4.77436427E-07  1.70210678E-02
  1.47855862E-02 -1.74420278E-03 -6.31619588E-04  3.03041606E-07 -1.09938986E-07
 -1.01553155E-01  2.23584224E-01  1.45538547E-04 -8.40133830E-02  4.46947720E-07
  1.98414456E-01  6.26427209E-03 -3.43658398E-02  3.05048369E-07 -2.09035459E-03
  1.21371091E-02 -9.03160107E-04 -9.29132521E-04 -2.72877781E-08 -9.46859704E-08
 -1.72078546E-02  3.27177341E-02  2.36716143E-02  1.21076809E-02  2.59465891E-07
  1.12035490E-02 -6.34139947E-04  3.22916123E-03  1.79013138E-07  6.14904537E-03
  1.44656836E-03 -1.46335216E-03  3.92182059E-03  4.66944453E-08  9.83655825E-08
 -1.12114717E-01  2.17584919E-01  8.21682649E-02  2.62125528E-02  9.78663956E-07
  4.34635507E-02 -2.10640413E-02 -6.84877628E-03 -2.39674790E-07  1.47772350E-03
  1.75659233E-02 -1.82507096E-02 -1.21167459E-02  3.54279658E-07 -3.64204681E-07
 -3.84966223E-03  8.93245308E-03  6.21744852E-03 -2.87026755E-04 -7.71815066E-08
 -2.10705587E-03 -6.57634641E-03 -2.84048636E-03  1.03452066E-08  6.60558405E-04
 -8.97121819E-05  1.50321424E-04  4.36895446E-05 -9.78363648E-09 -6.62527727E-09
  6.18469273E-03  1.98164853E-03  3.96914779E-04 -3.73274786E-03  2.88145708E-03
  2.15970298E-03  8.66516980E-02 -4.27202801E-03  1.26733829E-01 -2.83340693E-01
 -6.40231458E-03 -3.47557033E-02  1.16974756E-07 -2.99949203E-01  3.70091555E-05
 -2.05656168E-02  1.78957513E-07 -1.13592274E-02 -3.62928053E-03  1.46725239E-03
 -6.60974674E-03 -1.74560742E-07 -5.11519797E-08 -1.70074684E-01  3.68354793E-01
 -2.10718602E-02 -1.03454503E-01  2.66082703E-07  3.75022409E-01 -1.11811264E-02
 -4.80005048E-02  2.00019189E-07 -2.95953369E-03  1.21844709E-02 -4.65000110E-03
  3.84920582E-03 -1.37562959E-08 -6.36789740E-08 -6.78912873E-03  1.26071410E-02
  1.40894270E-03  1.48410914E-02  5.91704194E-08  1.70006760E-03 -2.21439814E-02
  1.78399744E-02  1.20607572E-07  6.08176931E-05  2.14839029E-03 -6.57858970E-04
  2.69499906E-03 -5.34710365E-08  1.47120450E-08 -5.21069957E-02  1.01998691E-01
 -4.80210680E-02  2.13883677E-01 -1.69357676E-06  3.23548954E-02  3.21979492E-03
 -4.03502007E-02  8.82539723E-08 -2.31003221E-02  2.34603642E-02 -8.34249340E-03
  2.01638093E-02 -3.38292839E-07  9.23310968E-08 -5.18815137E-03  9.07386164E-03
  5.66003505E-03  2.01955398E-04 -1.29816223E-07 -1.31250760E-02 -6.67885092E-04
  6.13090878E-03  2.87218897E-07  1.05937583E-03  2.06732781E-04 -7.19488775E-04
 -4.21322532E-06 -2.95424606E-08  1.89945028E-08  4.95821434E-04  4.60812554E-03
  1.54189499E-03  2.97218082E-03  3.35110012E-03  2.27522009E-03 -7.06066240E-02
  5.37810748E-03  1.81607668E-02 -4.30246273E-02 -5.51244615E-02 -1.54157796E-02
 -5.58423800E-07 -4.42868065E-02 -2.75940364E-02 -6.24388006E-03 -3.73515042E-07
 -7.42631420E-04 -3.40233732E-03 -3.73944582E-04 -5.62300361E-03  2.48578058E-08
 -5.21357272E-08  3.55214721E-02 -7.77866234E-02 -2.84054295E-02 -1.23910778E-04
 -1.53029861E-07 -9.55011737E-02 -9.92619042E-03  1.52757242E-03 -5.46641579E-08
  6.32754502E-04 -9.92023934E-04  8.86790602E-04  2.67512570E-03 -3.12072954E-08
  2.87794226E-08 -1.60566737E-01  3.07616252E-01 -4.91999255E-02  6.22568224E-02
  2.61627739E-06  2.28048401E-01 -3.16237823E-03 -4.71948362E-03  7.74641418E-08
  1.24124183E-02  7.92728927E-03 -1.19832812E-02 -5.54605302E-03 -4.03029259E-07
  7.63160926E-07 -4.43064377E-02  9.66740787E-02 -1.13589078E-01 -8.81215086E-02
 -5.85621756E-07  5.92578427E-02 -2.67441749E-02 -4.73399037E-03 -4.54842389E-08
  1.13381173E-02 -3.39901658E-03 -3.29110361E-03  8.17069625E-03  9.44944388E-08
  9.91383166E-08 -1.38115704E-01  2.65351495E-01  9.28618694E-02 -4.84808242E-02
 -2.27324742E-06  2.00687756E-01  3.80826481E-03 -8.86515688E-04  2.95272539E-08
  1.34387874E-02  6.78928087E-03 -1.14113147E-02 -5.83247541E-03 -4.30050562E-07
  6.46803786E-07  7.92839633E-02  5.87260781E-03  6.82717717E-02  8.67820252E-03
  7.02776525E-02  5.55131277E-03 -3.45582519E-02 -4.20483115E-03 -3.22407767E-02
  7.64024121E-02  2.48044947E-01  7.01489520E-06  3.59927121E-06  9.74244626E-02
  1.39470180E-01  8.77318547E-04  2.04415759E-06  2.72699739E-03  4.19823411E-03
  7.33971678E-04  2.37210903E-02 -1.21838934E-07  3.15572993E-07 -3.99893247E-02
  9.04351510E-02  2.48709442E-02  4.96802341E-02  4.94425392E-07  1.13443865E-01
  9.90996853E-03  2.75245542E-02  2.06755713E-07  2.13611663E-03 -3.00474894E-03
 -3.56744146E-04 -2.23654979E-03  3.65210477E-08 -5.20333982E-08  4.06972335E-02
 -8.20832268E-02 -2.15452430E-01  2.25554830E-02  1.99025113E-06 -8.69935708E-02
 -3.72768656E-02  4.07355523E-03  4.45835997E-07 -6.37923325E-03 -5.48470042E-03
  4.30012998E-03 -1.49197493E-02 -3.36509290E-07 -2.49334055E-07  1.03431885E-01
 -2.30224645E-01  7.56390061E-02  1.51592568E-01  8.74282497E-07 -1.46710095E-01
  3.16472048E-02  3.41367514E-02  4.88240731E-07 -4.51107396E-03 -4.87768574E-03
  8.72101406E-03 -1.82294855E-03 -2.66741000E-07  3.17495628E-08 -1.21118648E-01
  2.34221421E-01 -3.49355382E-02 -2.43350954E-03  4.70193300E-08  2.33767792E-01
 -9.72226985E-03  1.28739673E-03 -7.86389068E-08  8.27059524E-03  1.25734454E-02
 -1.11459935E-02  3.23673978E-03 -1.71965786E-07  7.32872199E-07 -4.62200165E-02
 -1.25036144E-02  1.07834526E-01  3.91023839E-02  9.16878272E-02  3.12166212E-02
  1.20768052E-01  3.17890017E-02 -1.93972143E-02  4.93370164E-02  3.13168502E-01
 -1.05413621E-01  4.00558388E-06  5.31714961E-02  1.95906957E-01 -6.39126292E-02
  2.47474308E-06  9.15997992E-03 -4.36218233E-03  3.04332347E-03  2.89035352E-02
 -4.80223232E-08  3.85677328E-07 -3.03646533E-02  6.65820416E-02 -5.76055481E-02
  9.12561458E-02 -2.07326654E-06  1.10345069E-01 -3.48411011E-02  4.81877153E-02
 -1.28346101E-06  3.09358052E-03 -8.46336876E-03 -8.93817679E-05  6.50116628E-03
  3.18819297E-08  2.28488888E-07 -9.42315280E-02  1.84844420E-01 -7.33386727E-03
 -7.74038652E-02 -3.05482026E-06  1.72486292E-01  2.00947575E-02 -5.41924320E-02
 -2.08527122E-06 -4.14343378E-03  1.50055848E-02 -6.50680038E-03 -6.12570672E-04
 -1.26587873E-07  5.73802072E-07  5.85006396E-02 -1.30614464E-01 -1.86170082E-01