164_22-Dimethylbutane Gaussian OPT Calculation on node144.bme.utexas.edu
Freq      RMP2-FC                                                     6-31G(d)            
Number of atoms                            I               20
Info1-9                                    I   N=           9
          30          30        1002           0           0         100
           6           2           1
Charge                                     I                0
Multiplicity                               I                1
Number of electrons                        I               50
Number of alpha electrons                  I               25
Number of beta electrons                   I               25
Number of basis functions                  I              118
Number of independent functions            I              118
Number of point charges in /Mol/           I                0
Number of translation vectors              I                0
Atomic numbers                             I   N=          20
           6           6           6           6           6           6
           1           1           1           1           1           1
           1           1           1           1           1           1
           1           1
Nuclear charges                            R   N=          20
  6.00000000E+00  6.00000000E+00  6.00000000E+00  6.00000000E+00  6.00000000E+00
  6.00000000E+00  1.00000000E+00  1.00000000E+00  1.00000000E+00  1.00000000E+00
  1.00000000E+00  1.00000000E+00  1.00000000E+00  1.00000000E+00  1.00000000E+00
  1.00000000E+00  1.00000000E+00  1.00000000E+00  1.00000000E+00  1.00000000E+00
Current cartesian coordinates              R   N=          60
  8.17430229E-01  1.90505972E-05 -3.06562809E-06 -1.63873034E+00  1.55819826E+00
 -1.01688460E-04  9.79924449E-01 -1.66122534E+00  2.36203498E+00  3.04713870E+00
  1.84448207E+00 -2.61611140E-04  9.79791143E-01 -1.66174413E+00 -2.36167839E+00
 -4.11093203E+00  6.60971871E-02  1.82984886E-06 -1.60671480E+00  2.80582806E+00
  1.65901044E+00 -1.60673290E+00  2.80559798E+00 -1.65938826E+00 -5.11569849E-01
 -3.09240558E+00  2.39647646E+00  8.16370065E-01 -5.17817793E-01  4.08109099E+00
  2.79788133E+00 -2.64974916E+00  2.42533743E+00  2.99999853E+00  3.05999162E+00
 -1.67573318E+00  3.00002974E+00  3.06042331E+00  1.67489720E+00  4.84872638E+00
  8.24333671E-01 -1.47339580E-04 -5.11635200E-01 -3.09300722E+00 -2.39566372E+00
  2.79779092E+00 -2.65019340E+00 -2.42492793E+00  8.16023045E-01 -5.18737665E-01
 -4.08098237E+00 -4.28224978E+00 -1.13500704E+00  1.67188101E+00 -5.72331798E+00
  1.36085409E+00  1.69758610E-05 -4.28233247E+00 -1.13507354E+00 -1.67182007E+00
Force Field                                I                0
Int Atom Types                             I   N=          20
           0           0           0           0           0           0
           0           0           0           0           0           0
           0           0           0           0           0           0
           0           0
MM charges                                 R   N=          20
  0.00000000E+00  0.00000000E+00  0.00000000E+00  0.00000000E+00  0.00000000E+00
  0.00000000E+00  0.00000000E+00  0.00000000E+00  0.00000000E+00  0.00000000E+00
  0.00000000E+00  0.00000000E+00  0.00000000E+00  0.00000000E+00  0.00000000E+00
  0.00000000E+00  0.00000000E+00  0.00000000E+00  0.00000000E+00  0.00000000E+00
Integer atomic weights                     I   N=          20
          12          12          12          12          12          12
           1           1           1           1           1           1
           1           1           1           1           1           1
           1           1
Real atomic weights                        R   N=          20
  1.20000000E+01  1.20000000E+01  1.20000000E+01  1.20000000E+01  1.20000000E+01
  1.20000000E+01  1.00782504E+00  1.00782504E+00  1.00782504E+00  1.00782504E+00
  1.00782504E+00  1.00782504E+00  1.00782504E+00  1.00782504E+00  1.00782504E+00
  1.00782504E+00  1.00782504E+00  1.00782504E+00  1.00782504E+00  1.00782504E+00
Atom fragment info                         I   N=          20
           0           0           0           0           0           0
           0           0           0           0           0           0
           0           0           0           0           0           0
           0           0
Atom residue num                           I   N=          20
           0           0           0           0           0           0
           0           0           0           0           0           0
           0           0           0           0           0           0
           0           0
Nuclear spins                              I   N=          20
           0           0           0           0           0           0
           1           1           1           1           1           1
           1           1           1           1           1           1
           1           1
Nuclear ZEff                               R   N=          20
 -3.60000000E+00 -3.60000000E+00 -3.60000000E+00 -3.60000000E+00 -3.60000000E+00
 -3.60000000E+00 -1.00000000E+00 -1.00000000E+00 -1.00000000E+00 -1.00000000E+00
 -1.00000000E+00 -1.00000000E+00 -1.00000000E+00 -1.00000000E+00 -1.00000000E+00
 -1.00000000E+00 -1.00000000E+00 -1.00000000E+00 -1.00000000E+00 -1.00000000E+00
Nuclear QMom                               R   N=          20
  0.00000000E+00  0.00000000E+00  0.00000000E+00  0.00000000E+00  0.00000000E+00
  0.00000000E+00  0.00000000E+00  0.00000000E+00  0.00000000E+00  0.00000000E+00
  0.00000000E+00  0.00000000E+00  0.00000000E+00  0.00000000E+00  0.00000000E+00
  0.00000000E+00  0.00000000E+00  0.00000000E+00  0.00000000E+00  0.00000000E+00
Nuclear GFac                               R   N=          20
  0.00000000E+00  0.00000000E+00  0.00000000E+00  0.00000000E+00  0.00000000E+00
  0.00000000E+00  2.79284600E+00  2.79284600E+00  2.79284600E+00  2.79284600E+00
  2.79284600E+00  2.79284600E+00  2.79284600E+00  2.79284600E+00  2.79284600E+00
  2.79284600E+00  2.79284600E+00  2.79284600E+00  2.79284600E+00  2.79284600E+00
MicOpt                                     I   N=          20
          -1          -1          -1          -1          -1          -1
          -1          -1          -1          -1          -1          -1
          -1          -1          -1          -1          -1          -1
          -1          -1
Number of contracted shells                I               52
Number of primitive shells                 I              122
Pure/Cartesian d shells                    I                1
Pure/Cartesian f shells                    I                0
Highest angular momentum                   I                2
Largest degree of contraction              I                6
Shell types                                I   N=          52
           0          -1          -1           2           0          -1
          -1           2           0          -1          -1           2
           0          -1          -1           2           0          -1
          -1           2           0          -1          -1           2
           0           0           0           0           0           0
           0           0           0           0           0           0
           0           0           0           0           0           0
           0           0           0           0           0           0
           0           0           0           0
Number of primitives per shell             I   N=          52
           6           3           1           1           6           3
           1           1           6           3           1           1
           6           3           1           1           6           3
           1           1           6           3           1           1
           3           1           3           1           3           1
           3           1           3           1           3           1
           3           1           3           1           3           1
           3           1           3           1           3           1
           3           1           3           1
Shell to atom map                          I   N=          52
           1           1           1           1           2           2
           2           2           3           3           3           3
           4           4           4           4           5           5
           5           5           6           6           6           6
           7           7           8           8           9           9
          10          10          11          11          12          12
          13          13          14          14          15          15
          16          16          17          17          18          18
          19          19          20          20
Primitive exponents                        R   N=         122
  3.04752488E+03  4.57369518E+02  1.03948685E+02  2.92101553E+01  9.28666296E+00
  3.16392696E+00  7.86827235E+00  1.88128854E+00  5.44249258E-01  1.68714478E-01
  8.00000000E-01  3.04752488E+03  4.57369518E+02  1.03948685E+02  2.92101553E+01
  9.28666296E+00  3.16392696E+00  7.86827235E+00  1.88128854E+00  5.44249258E-01
  1.68714478E-01  8.00000000E-01  3.04752488E+03  4.57369518E+02  1.03948685E+02
  2.92101553E+01  9.28666296E+00  3.16392696E+00  7.86827235E+00  1.88128854E+00
  5.44249258E-01  1.68714478E-01  8.00000000E-01  3.04752488E+03  4.57369518E+02
  1.03948685E+02  2.92101553E+01  9.28666296E+00  3.16392696E+00  7.86827235E+00
  1.88128854E+00  5.44249258E-01  1.68714478E-01  8.00000000E-01  3.04752488E+03
  4.57369518E+02  1.03948685E+02  2.92101553E+01  9.28666296E+00  3.16392696E+00
  7.86827235E+00  1.88128854E+00  5.44249258E-01  1.68714478E-01  8.00000000E-01
  3.04752488E+03  4.57369518E+02  1.03948685E+02  2.92101553E+01  9.28666296E+00
  3.16392696E+00  7.86827235E+00  1.88128854E+00  5.44249258E-01  1.68714478E-01
  8.00000000E-01  1.87311370E+01  2.82539436E+00  6.40121692E-01  1.61277759E-01
  1.87311370E+01  2.82539436E+00  6.40121692E-01  1.61277759E-01  1.87311370E+01
  2.82539436E+00  6.40121692E-01  1.61277759E-01  1.87311370E+01  2.82539436E+00
  6.40121692E-01  1.61277759E-01  1.87311370E+01  2.82539436E+00  6.40121692E-01
  1.61277759E-01  1.87311370E+01  2.82539436E+00  6.40121692E-01  1.61277759E-01
  1.87311370E+01  2.82539436E+00  6.40121692E-01  1.61277759E-01  1.87311370E+01
  2.82539436E+00  6.40121692E-01  1.61277759E-01  1.87311370E+01  2.82539436E+00
  6.40121692E-01  1.61277759E-01  1.87311370E+01  2.82539436E+00  6.40121692E-01
  1.61277759E-01  1.87311370E+01  2.82539436E+00  6.40121692E-01  1.61277759E-01
  1.87311370E+01  2.82539436E+00  6.40121692E-01  1.61277759E-01  1.87311370E+01
  2.82539436E+00  6.40121692E-01  1.61277759E-01  1.87311370E+01  2.82539436E+00
  6.40121692E-01  1.61277759E-01
Contraction coefficients                   R   N=         122
  1.83473713E-03  1.40373228E-02  6.88426223E-02  2.32184443E-01  4.67941348E-01
  3.62311985E-01 -1.19332420E-01 -1.60854152E-01  1.14345644E+00  1.00000000E+00
  1.00000000E+00  1.83473713E-03  1.40373228E-02  6.88426223E-02  2.32184443E-01
  4.67941348E-01  3.62311985E-01 -1.19332420E-01 -1.60854152E-01  1.14345644E+00
  1.00000000E+00  1.00000000E+00  1.83473713E-03  1.40373228E-02  6.88426223E-02
  2.32184443E-01  4.67941348E-01  3.62311985E-01 -1.19332420E-01 -1.60854152E-01
  1.14345644E+00  1.00000000E+00  1.00000000E+00  1.83473713E-03  1.40373228E-02
  6.88426223E-02  2.32184443E-01  4.67941348E-01  3.62311985E-01 -1.19332420E-01
 -1.60854152E-01  1.14345644E+00  1.00000000E+00  1.00000000E+00  1.83473713E-03
  1.40373228E-02  6.88426223E-02  2.32184443E-01  4.67941348E-01  3.62311985E-01
 -1.19332420E-01 -1.60854152E-01  1.14345644E+00  1.00000000E+00  1.00000000E+00
  1.83473713E-03  1.40373228E-02  6.88426223E-02  2.32184443E-01  4.67941348E-01
  3.62311985E-01 -1.19332420E-01 -1.60854152E-01  1.14345644E+00  1.00000000E+00
  1.00000000E+00  3.34946043E-02  2.34726953E-01  8.13757326E-01  1.00000000E+00
  3.34946043E-02  2.34726953E-01  8.13757326E-01  1.00000000E+00  3.34946043E-02
  2.34726953E-01  8.13757326E-01  1.00000000E+00  3.34946043E-02  2.34726953E-01
  8.13757326E-01  1.00000000E+00  3.34946043E-02  2.34726953E-01  8.13757326E-01
  1.00000000E+00  3.34946043E-02  2.34726953E-01  8.13757326E-01  1.00000000E+00
  3.34946043E-02  2.34726953E-01  8.13757326E-01  1.00000000E+00  3.34946043E-02
  2.34726953E-01  8.13757326E-01  1.00000000E+00  3.34946043E-02  2.34726953E-01
  8.13757326E-01  1.00000000E+00  3.34946043E-02  2.34726953E-01  8.13757326E-01
  1.00000000E+00  3.34946043E-02  2.34726953E-01  8.13757326E-01  1.00000000E+00
  3.34946043E-02  2.34726953E-01  8.13757326E-01  1.00000000E+00  3.34946043E-02
  2.34726953E-01  8.13757326E-01  1.00000000E+00  3.34946043E-02  2.34726953E-01
  8.13757326E-01  1.00000000E+00
P(S=P) Contraction coefficients            R   N=         122
  0.00000000E+00  0.00000000E+00  0.00000000E+00  0.00000000E+00  0.00000000E+00
  0.00000000E+00  6.89990666E-02  3.16423961E-01  7.44308291E-01  1.00000000E+00
  0.00000000E+00  0.00000000E+00  0.00000000E+00  0.00000000E+00  0.00000000E+00
  0.00000000E+00  0.00000000E+00  6.89990666E-02  3.16423961E-01  7.44308291E-01
  1.00000000E+00  0.00000000E+00  0.00000000E+00  0.00000000E+00  0.00000000E+00
  0.00000000E+00  0.00000000E+00  0.00000000E+00  6.89990666E-02  3.16423961E-01
  7.44308291E-01  1.00000000E+00  0.00000000E+00  0.00000000E+00  0.00000000E+00
  0.00000000E+00  0.00000000E+00  0.00000000E+00  0.00000000E+00  6.89990666E-02
  3.16423961E-01  7.44308291E-01  1.00000000E+00  0.00000000E+00  0.00000000E+00
  0.00000000E+00  0.00000000E+00  0.00000000E+00  0.00000000E+00  0.00000000E+00
  6.89990666E-02  3.16423961E-01  7.44308291E-01  1.00000000E+00  0.00000000E+00
  0.00000000E+00  0.00000000E+00  0.00000000E+00  0.00000000E+00  0.00000000E+00
  0.00000000E+00  6.89990666E-02  3.16423961E-01  7.44308291E-01  1.00000000E+00
  0.00000000E+00  0.00000000E+00  0.00000000E+00  0.00000000E+00  0.00000000E+00
  0.00000000E+00  0.00000000E+00  0.00000000E+00  0.00000000E+00  0.00000000E+00
  0.00000000E+00  0.00000000E+00  0.00000000E+00  0.00000000E+00  0.00000000E+00
  0.00000000E+00  0.00000000E+00  0.00000000E+00  0.00000000E+00  0.00000000E+00
  0.00000000E+00  0.00000000E+00  0.00000000E+00  0.00000000E+00  0.00000000E+00
  0.00000000E+00  0.00000000E+00  0.00000000E+00  0.00000000E+00  0.00000000E+00
  0.00000000E+00  0.00000000E+00  0.00000000E+00  0.00000000E+00  0.00000000E+00
  0.00000000E+00  0.00000000E+00  0.00000000E+00  0.00000000E+00  0.00000000E+00
  0.00000000E+00  0.00000000E+00  0.00000000E+00  0.00000000E+00  0.00000000E+00
  0.00000000E+00  0.00000000E+00  0.00000000E+00  0.00000000E+00  0.00000000E+00
  0.00000000E+00  0.00000000E+00  0.00000000E+00  0.00000000E+00  0.00000000E+00
  0.00000000E+00  0.00000000E+00
Coordinates of each shell                  R   N=         156
  8.17430229E-01  1.90505972E-05 -3.06562809E-06  8.17430229E-01  1.90505972E-05
 -3.06562809E-06  8.17430229E-01  1.90505972E-05 -3.06562809E-06  8.17430229E-01
  1.90505972E-05 -3.06562809E-06 -1.63873034E+00  1.55819826E+00 -1.01688460E-04
 -1.63873034E+00  1.55819826E+00 -1.01688460E-04 -1.63873034E+00  1.55819826E+00
 -1.01688460E-04 -1.63873034E+00  1.55819826E+00 -1.01688460E-04  9.79924449E-01
 -1.66122534E+00  2.36203498E+00  9.79924449E-01 -1.66122534E+00  2.36203498E+00
  9.79924449E-01 -1.66122534E+00  2.36203498E+00  9.79924449E-01 -1.66122534E+00
  2.36203498E+00  3.04713870E+00  1.84448207E+00 -2.61611140E-04  3.04713870E+00
  1.84448207E+00 -2.61611140E-04  3.04713870E+00  1.84448207E+00 -2.61611140E-04
  3.04713870E+00  1.84448207E+00 -2.61611140E-04  9.79791143E-01 -1.66174413E+00
 -2.36167839E+00  9.79791143E-01 -1.66174413E+00 -2.36167839E+00  9.79791143E-01
 -1.66174413E+00 -2.36167839E+00  9.79791143E-01 -1.66174413E+00 -2.36167839E+00
 -4.11093203E+00  6.60971871E-02  1.82984886E-06 -4.11093203E+00  6.60971871E-02
  1.82984886E-06 -4.11093203E+00  6.60971871E-02  1.82984886E-06 -4.11093203E+00
  6.60971871E-02  1.82984886E-06 -1.60671480E+00  2.80582806E+00  1.65901044E+00
 -1.60671480E+00  2.80582806E+00  1.65901044E+00 -1.60673290E+00  2.80559798E+00
 -1.65938826E+00 -1.60673290E+00  2.80559798E+00 -1.65938826E+00 -5.11569849E-01
 -3.09240558E+00  2.39647646E+00 -5.11569849E-01 -3.09240558E+00  2.39647646E+00
  8.16370065E-01 -5.17817793E-01  4.08109099E+00  8.16370065E-01 -5.17817793E-01
  4.08109099E+00  2.79788133E+00 -2.64974916E+00  2.42533743E+00  2.79788133E+00
 -2.64974916E+00  2.42533743E+00  2.99999853E+00  3.05999162E+00 -1.67573318E+00
  2.99999853E+00  3.05999162E+00 -1.67573318E+00  3.00002974E+00  3.06042331E+00
  1.67489720E+00  3.00002974E+00  3.06042331E+00  1.67489720E+00  4.84872638E+00
  8.24333671E-01 -1.47339580E-04  4.84872638E+00  8.24333671E-01 -1.47339580E-04
 -5.11635200E-01 -3.09300722E+00 -2.39566372E+00 -5.11635200E-01 -3.09300722E+00
 -2.39566372E+00  2.79779092E+00 -2.65019340E+00 -2.42492793E+00  2.79779092E+00
 -2.65019340E+00 -2.42492793E+00  8.16023045E-01 -5.18737665E-01 -4.08098237E+00
  8.16023045E-01 -5.18737665E-01 -4.08098237E+00 -4.28224978E+00 -1.13500704E+00
  1.67188101E+00 -4.28224978E+00 -1.13500704E+00  1.67188101E+00 -5.72331798E+00
  1.36085409E+00  1.69758610E-05 -5.72331798E+00  1.36085409E+00  1.69758610E-05
 -4.28233247E+00 -1.13507354E+00 -1.67182007E+00 -4.28233247E+00 -1.13507354E+00
 -1.67182007E+00
Constraint Structure                       R   N=          60
  8.17430229E-01  1.90505972E-05 -3.06562809E-06 -1.63873034E+00  1.55819826E+00
 -1.01688460E-04  9.79924449E-01 -1.66122534E+00  2.36203498E+00  3.04713870E+00
  1.84448207E+00 -2.61611140E-04  9.79791143E-01 -1.66174413E+00 -2.36167839E+00
 -4.11093203E+00  6.60971871E-02  1.82984886E-06 -1.60671480E+00  2.80582806E+00
  1.65901044E+00 -1.60673290E+00  2.80559798E+00 -1.65938826E+00 -5.11569849E-01
 -3.09240558E+00  2.39647646E+00  8.16370065E-01 -5.17817793E-01  4.08109099E+00
  2.79788133E+00 -2.64974916E+00  2.42533743E+00  2.99999853E+00  3.05999162E+00
 -1.67573318E+00  3.00002974E+00  3.06042331E+00  1.67489720E+00  4.84872638E+00
  8.24333671E-01 -1.47339580E-04 -5.11635200E-01 -3.09300722E+00 -2.39566372E+00
  2.79779092E+00 -2.65019340E+00 -2.42492793E+00  8.16023045E-01 -5.18737665E-01
 -4.08098237E+00 -4.28224978E+00 -1.13500704E+00  1.67188101E+00 -5.72331798E+00
  1.36085409E+00  1.69758610E-05 -4.28233247E+00 -1.13507354E+00 -1.67182007E+00
Num ILSW                                   I              100
ILSW                                       I   N=         100
           0           1           0           1           2           0
           0           0           0           0           0          -1
           0           0           0           0           0           0
           0           0           0           0           1           0
           1           0           0           0           0           0
           0           0      100000           0          -1           0
           0           0           0           0           0           0
           0           0           0           1           1           0
           0           0           1           0           0           0
           0           0           4          40           0           0
           0           0           0           0           0           0
           0           0           0           0           0           0
           0           0           0           0           0           0
           0           0           0           0           0           0
           0           0           0           0           0           0
           0           0           0           0           0           0
           0           0           0           0
Num RLSW                                   I               40
RLSW                                       R   N=          40
  1.00000000E+00  1.00000000E+00  1.00000000E+00  1.00000000E+00  1.00000000E+00
  0.00000000E+00  0.00000000E+00  1.00000000E+00  0.00000000E+00  0.00000000E+00
  0.00000000E+00  0.00000000E+00  1.00000000E+00  0.00000000E+00  0.00000000E+00
  0.00000000E+00  0.00000000E+00  1.00000000E+00  0.00000000E+00  0.00000000E+00
  0.00000000E+00  0.00000000E+00  1.00000000E+00  0.00000000E+00  0.00000000E+00
  0.00000000E+00  0.00000000E+00  1.00000000E+00  0.00000000E+00  0.00000000E+00
  0.00000000E+00  0.00000000E+00  0.00000000E+00  0.00000000E+00  0.00000000E+00
  0.00000000E+00  0.00000000E+00  0.00000000E+00  1.00000000E+00  1.00000000E+00
MxBond                                     I                4
NBond                                      I   N=          20
           4           4           4           4           4           4
           1           1           1           1           1           1
           1           1           1           1           1           1
           1           1
IBond                                      I   N=          80
           2           3           4           5           1           6
           7           8           1           9          10          11
           1          12          13          14           1          15
          16          17           2          18          19          20
           2           0           0           0           2           0
           0           0           3           0           0           0
           3           0           0           0           3           0
           0           0           4           0           0           0
           4           0           0           0           4           0
           0           0           5           0           0           0
           5           0           0           0           5           0
           0           0           6           0           0           0
           6           0           0           0           6           0
           0           0
RBond                                      R   N=          80
  1.00000000E+00  1.00000000E+00  1.00000000E+00  1.00000000E+00  1.00000000E+00
  1.00000000E+00  1.00000000E+00  1.00000000E+00  1.00000000E+00  1.00000000E+00
  1.00000000E+00  1.00000000E+00  1.00000000E+00  1.00000000E+00  1.00000000E+00
  1.00000000E+00  1.00000000E+00  1.00000000E+00  1.00000000E+00  1.00000000E+00
  1.00000000E+00  1.00000000E+00  1.00000000E+00  1.00000000E+00  1.00000000E+00
  0.00000000E+00  0.00000000E+00  0.00000000E+00  1.00000000E+00  0.00000000E+00
  0.00000000E+00  0.00000000E+00  1.00000000E+00  0.00000000E+00  0.00000000E+00
  0.00000000E+00  1.00000000E+00  0.00000000E+00  0.00000000E+00  0.00000000E+00
  1.00000000E+00  0.00000000E+00  0.00000000E+00  0.00000000E+00  1.00000000E+00
  0.00000000E+00  0.00000000E+00  0.00000000E+00  1.00000000E+00  0.00000000E+00
  0.00000000E+00  0.00000000E+00  1.00000000E+00  0.00000000E+00  0.00000000E+00
  0.00000000E+00  1.00000000E+00  0.00000000E+00  0.00000000E+00  0.00000000E+00
  1.00000000E+00  0.00000000E+00  0.00000000E+00  0.00000000E+00  1.00000000E+00
  0.00000000E+00  0.00000000E+00  0.00000000E+00  1.00000000E+00  0.00000000E+00
  0.00000000E+00  0.00000000E+00  1.00000000E+00  0.00000000E+00  0.00000000E+00
  0.00000000E+00  1.00000000E+00  0.00000000E+00  0.00000000E+00  0.00000000E+00
Virial Ratio                               R      2.000858906466278E+00
SCF Energy                                 R     -2.353635892168742E+02
MP2 Energy                                 R     -2.361625388010499E+02
Total Energy                               R     -2.361625388010499E+02
Post-SCF wavefunction norm                 R      1.592374484784973E+00
RMS Force                                  R      2.821688070047906E-06
RMS Density                                R      5.001540339140647E-10
External E-field                           R   N=          35
  0.00000000E+00  0.00000000E+00  0.00000000E+00  0.00000000E+00  0.00000000E+00
  0.00000000E+00  0.00000000E+00  0.00000000E+00  0.00000000E+00  0.00000000E+00
  0.00000000E+00  0.00000000E+00  0.00000000E+00  0.00000000E+00  0.00000000E+00
  0.00000000E+00  0.00000000E+00  0.00000000E+00  0.00000000E+00  0.00000000E+00
  0.00000000E+00  0.00000000E+00  0.00000000E+00  0.00000000E+00  0.00000000E+00
  0.00000000E+00  0.00000000E+00  0.00000000E+00  0.00000000E+00  0.00000000E+00
  0.00000000E+00  0.00000000E+00  0.00000000E+00  0.00000000E+00  0.00000000E+00
IOpCl                                      I                0
IROHF                                      I                0
Alpha Orbital Energies                     R   N=         118
 -1.12276230E+01 -1.12145350E+01 -1.12098646E+01 -1.12077374E+01 -1.12077304E+01
 -1.12076983E+01 -1.10951517E+00 -9.95866244E-01 -9.26592393E-01 -9.26261776E-01
 -8.48538731E-01 -7.21312197E-01 -6.23724679E-01 -6.22272181E-01 -5.96047349E-01
 -5.80641559E-01 -5.49849225E-01 -5.29465827E-01 -5.23549123E-01 -5.07895626E-01
 -4.99562574E-01 -4.83903950E-01 -4.46909417E-01 -4.44129816E-01 -4.37270189E-01
  2.11902328E-01  2.67074399E-01  2.80297837E-01  2.82530581E-01  2.90018632E-01
  2.92662742E-01  3.09728874E-01  3.25452584E-01  3.30679862E-01  3.54802008E-01
  3.61870932E-01  3.66665604E-01  3.86561950E-01  3.93077857E-01  4.08675884E-01
  4.25683875E-01  4.37863246E-01  4.37947666E-01  4.45589073E-01  6.96806467E-01
  7.07230936E-01  7.16717491E-01  7.31497058E-01  7.37406835E-01  8.09243409E-01
  8.11516697E-01  8.73448363E-01  9.00035574E-01  9.39257033E-01  9.46611673E-01
  9.64576328E-01  1.03098696E+00  1.04483130E+00  1.07988577E+00  1.12456816E+00
  1.14656678E+00  1.15190122E+00  1.16120302E+00  1.17013770E+00  1.17108543E+00
  1.18028232E+00  1.19278325E+00  1.19455506E+00  1.20257194E+00  1.22091075E+00
  1.22877602E+00  1.23323671E+00  1.25471480E+00  1.26636733E+00  1.26963118E+00
  1.29619511E+00  1.29777431E+00  1.55474426E+00  1.66317613E+00  1.67550035E+00
  1.75728738E+00  1.78130861E+00  1.88635353E+00  1.92097225E+00  1.97578108E+00
  1.98462929E+00  2.02999416E+00  2.11951801E+00  2.19727382E+00  2.20908913E+00
  2.24234182E+00  2.25039666E+00  2.30177039E+00  2.41945504E+00  2.42696095E+00
  2.42865789E+00  2.43798446E+00  2.46389234E+00  2.59007631E+00  2.59125268E+00
  2.60042479E+00  2.61469215E+00  2.61693898E+00  2.65096820E+00  2.70078252E+00
  2.70740848E+00  2.83923399E+00  2.94425418E+00  3.05465044E+00  3.08172174E+00
  3.10894914E+00  3.12886890E+00  4.57418553E+00  4.69132630E+00  4.74658974E+00
  4.74752270E+00  4.88346709E+00  5.12062178E+00
Alpha MO coefficients                      R   N=       13924
  9.95574588E-01  2.88857132E-02  3.19462606E-05 -2.54541162E-05 -3.50461151E-10
 -2.31065945E-02  1.08238120E-05  2.07824458E-05 -1.34292249E-08 -1.05242406E-03
 -1.03572685E-03 -1.03735507E-03  1.18157934E-05 -1.66396359E-09  3.94808524E-09
  2.20132853E-02  6.60378445E-04  1.94313145E-04 -1.11027332E-04  9.62376689E-09
  4.67913402E-03  1.95561214E-03 -1.16701030E-03  7.23693484E-08 -3.80953103E-04
 -2.36878505E-04 -1.27346515E-04  1.71078143E-04 -1.12541212E-08  6.59566653E-09
  1.49135591E-02  4.62443535E-04 -1.13293494E-05  1.18248147E-04 -1.80658691E-04
  4.97796977E-03 -1.69393948E-04  1.29937330E-03 -1.78730779E-03 -1.09981575E-04
 -2.34718656E-04 -3.66338217E-04  1.19338861E-05 -1.36500092E-05  2.10118479E-04
  1.48954571E-02  4.99436968E-04 -1.75127110E-04 -1.39095177E-04  2.08698461E-08
  4.83725740E-03 -1.61337635E-03 -1.37662418E-03  1.84879447E-07 -3.32937288E-04
 -2.58813145E-04 -1.00125947E-04 -2.22464313E-04  3.18561544E-08  2.55565656E-08
  1.49137805E-02  4.62451916E-04 -1.13181114E-05  1.18285987E-04  1.80630652E-04
  4.97796509E-03 -1.69293000E-04  1.29976108E-03  1.78702184E-03 -1.09979787E-04
 -2.34798273E-04 -3.66261048E-04  1.19255452E-05  1.36326633E-05 -2.10156615E-04
 -6.82580493E-05 -1.81008479E-04 -1.39117180E-04  3.54768436E-05  7.04674555E-09
  5.22830920E-04  1.97128587E-04 -2.98013557E-04 -3.14822568E-08 -7.66380706E-05
 -3.60858996E-05 -1.16363292E-04 -3.51514007E-05  7.18972526E-09 -9.12416626E-09
 -1.56763296E-04 -6.66319531E-05 -1.56767750E-04 -6.66337887E-05 -1.86613147E-04
 -6.56651110E-05 -1.80744099E-04 -1.10723230E-04 -1.64809041E-04 -7.62848853E-05
 -1.62386324E-04 -9.87061023E-05 -1.62383873E-04 -9.87021320E-05 -1.68681144E-04
 -1.17516447E-04 -1.86611420E-04 -6.56703669E-05 -1.64807618E-04 -7.62877544E-05
 -1.80748010E-04 -1.10712923E-04 -2.36009394E-05 -3.28385793E-04 -2.69969130E-05
  3.42460530E-04 -2.35857005E-05 -3.28471545E-04 -2.21505170E-02 -4.02753160E-04
 -1.62383339E-04  8.59649596E-05 -8.29251250E-10  3.04615207E-03 -1.27555311E-03
  8.62686204E-04 -1.36218863E-07 -2.56960561E-04 -2.13568191E-04 -1.01505545E-04
  1.67756256E-04 -1.08779814E-08  1.05738023E-08  9.93623134E-01  2.84588862E-02
 -2.82157525E-05 -1.13761874E-04  1.09227760E-08 -1.69908761E-02 -9.00037478E-05
  8.88980974E-04 -6.41928938E-08 -1.53504093E-03 -1.56450152E-03 -1.47893096E-03
  6.92290456E-06  2.78983973E-09  6.67946367E-09 -2.10416254E-03 -3.82765799E-04
  1.06928574E-04 -9.56909592E-05  3.74268842E-05  9.59460086E-04 -6.64781417E-04
  4.06567423E-04 -1.57354614E-05 -6.76549850E-05 -6.39067258E-05 -8.01768196E-05
 -6.45423936E-05  1.53174069E-05 -3.93475962E-05 -1.88714227E-03 -2.90417090E-04
  6.98045423E-05 -1.98256499E-05  4.24544642E-09  6.21219462E-04 -2.84062221E-04
  3.67695906E-04 -4.30936326E-08  4.36432242E-05 -5.13901260E-05 -8.33979442E-05
 -3.39383803E-05 -5.88170925E-09 -2.03578012E-09 -2.10415253E-03 -3.82745681E-04
  1.06921872E-04 -9.56925116E-05 -3.74196953E-05  9.59298803E-04 -6.64759165E-04
  4.06467383E-04  1.57051913E-05 -6.76527424E-05 -6.38841783E-05 -8.01825024E-05