
    -----------------------------------------------------------------------
          Psi4: An Open-Source Ab Initio Electronic Structure Package
                               Psi4 1.3.2 release

                         Git: Rev {HEAD} ecbda83 


    R. M. Parrish, L. A. Burns, D. G. A. Smith, A. C. Simmonett,
    A. E. DePrince III, E. G. Hohenstein, U. Bozkaya, A. Yu. Sokolov,
    R. Di Remigio, R. M. Richard, J. F. Gonthier, A. M. James,
    H. R. McAlexander, A. Kumar, M. Saitow, X. Wang, B. P. Pritchard,
    P. Verma, H. F. Schaefer III, K. Patkowski, R. A. King, E. F. Valeev,
    F. A. Evangelista, J. M. Turney, T. D. Crawford, and C. D. Sherrill,
    J. Chem. Theory Comput. 13(7) pp 3185--3197 (2017).
    (doi: 10.1021/acs.jctc.7b00174)


                         Additional Contributions by
    P. Kraus, H. Kruse, M. H. Lechner, M. C. Schieber, R. A. Shaw,
    A. Alenaizan, R. Galvelis, Z. L. Glick, S. Lehtola, and J. P. Misiewicz

    -----------------------------------------------------------------------


    Psi4 started on: Friday, 05 February 2021 06:37PM

    Process ID: 1681921
    Host:       node56.bme.utexas.edu
    PSIDATADIR: /home/xy3866/psi4conda/share/psi4
    Memory:     500.0 MiB
    Threads:    8
    
  ==> Input File <==

--------------------------------------------------------------------------
#psi4
#
memory 32 gb

molecule  {
0 1
  O        0.1371160     2.1442200    -0.7498900
  N       -0.9613894     0.2902259    -0.1065606
  C       -2.2101840     0.8219870    -0.4048790
  C       -3.1715160    -0.2856370    -0.8447810
  C       -3.2543810    -1.4343410     0.1597440
  C       -1.8582660    -1.9851710     0.4427670
  C       -0.9333470    -0.8668740     0.9054230
  C       -2.7330240     1.6830710     0.7442420
  C        0.2088310     0.9821600    -0.3252730
  C        1.5466860     0.3366220    -0.1329200
  C        1.8387470    -0.9259720    -0.6670270
  C        2.5575830     1.0808050     0.4866160
  C        3.1278360    -1.4488340    -0.5554450
  C        3.8398480     0.5472150     0.6113220
  C        4.1275660    -0.7178550     0.0911790
  H       -2.0189590     1.4850890    -1.2525130
  H       -2.8205670    -0.6804150    -1.8065990
  H       -4.1624350     0.1514200    -1.0190010
  H       -3.9082830    -2.2246930    -0.2264870
  H       -3.7050990    -1.0869340     1.0980480
  H       -1.8940300    -2.7681710     1.2100160
  H       -1.4444710    -2.4355870    -0.4683360
  H       -1.2866520    -0.4768830     1.8722860
  H        0.0828400    -1.2295020     1.0584050
  H       -3.6731810     2.1637340     0.4547800
  H       -2.9192060     1.1010660     1.6506870
  H       -2.0023200     2.4636420     0.9693550
  H        1.0609540    -1.4829580    -1.1859370
  H        2.3266460     2.0767070     0.8563740
  H        3.3548360    -2.4238320    -0.9804540
  H        4.6199280     1.1225680     1.1042590
  H        5.1302370    -1.1288490     0.1814620
units angstrom
no_reorient  #important for SAPT in psi4, default
symmetry c1  #important for SAPT in psi4, default
}

set PROPERTIES_ORIGIN ["COM"]
properties('MP2/aug-cc-pvtz', properties = ['dipole'])
--------------------------------------------------------------------------

  Memory set to  29.802 GiB by Python driver.
    SCF Algorithm Type (re)set to DF.

*** tstart() called on node56.bme.utexas.edu
*** at Fri Feb  5 18:37:13 2021

   => Loading Basis Set <=

    Name: AUG-CC-PVTZ
    Role: ORBITAL
    Keyword: BASIS
    atoms 1     entry O          line   327 file /home/xy3866/psi4conda/share/psi4/basis/aug-cc-pvtz.gbs 
    atoms 2     entry N          line   281 file /home/xy3866/psi4conda/share/psi4/basis/aug-cc-pvtz.gbs 
    atoms 3-15  entry C          line   235 file /home/xy3866/psi4conda/share/psi4/basis/aug-cc-pvtz.gbs 
    atoms 16-32 entry H          line    36 file /home/xy3866/psi4conda/share/psi4/basis/aug-cc-pvtz.gbs 


         ---------------------------------------------------------
                                   SCF
               by Justin Turney, Rob Parrish, Andy Simmonett
                          and Daniel G. A. Smith
                              RHF Reference
                        8 Threads,  30517 MiB Core
         ---------------------------------------------------------

  ==> Geometry <==

    Molecular point group: c1
    Full point group: C1

    Geometry (in Angstrom), charge = 0, multiplicity = 1:

       Center              X                  Y                   Z               Mass       
    ------------   -----------------  -----------------  -----------------  -----------------
         O            0.076053046205     2.112756877395    -0.731128089149    15.994914619570
         N           -1.022452353795     0.258762777395    -0.087798689149    14.003074004430
         C           -2.271246953795     0.790523877395    -0.386117089149    12.000000000000
         C           -3.232578953795    -0.317100122605    -0.826019089149    12.000000000000
         C           -3.315443953795    -1.465804122605     0.178505910851    12.000000000000
         C           -1.919328953795    -2.016634122605     0.461528910851    12.000000000000
         C           -0.994409953795    -0.898337122605     0.924184910851    12.000000000000
         C           -2.794086953795     1.651607877395     0.763003910851    12.000000000000
         C            0.147768046205     0.950696877395    -0.306511089149    12.000000000000
         C            1.485623046205     0.305158877395    -0.114158089149    12.000000000000
         C            1.777684046205    -0.957435122605    -0.648265089149    12.000000000000
         C            2.496520046205     1.049341877395     0.505377910851    12.000000000000
         C            3.066773046205    -1.480297122605    -0.536683089149    12.000000000000
         C            3.778785046205     0.515751877395     0.630083910851    12.000000000000
         C            4.066503046205    -0.749318122605     0.109940910851    12.000000000000
         H           -2.080021953795     1.453625877395    -1.233751089149     1.007825032230
         H           -2.881629953795    -0.711878122605    -1.787837089149     1.007825032230
         H           -4.223497953795     0.119956877395    -1.000239089149     1.007825032230
         H           -3.969345953795    -2.256156122605    -0.207725089149     1.007825032230
         H           -3.766161953795    -1.118397122605     1.116809910851     1.007825032230
         H           -1.955092953795    -2.799634122605     1.228777910851     1.007825032230
         H           -1.505533953795    -2.467050122605    -0.449574089149     1.007825032230
         H           -1.347714953795    -0.508346122605     1.891047910851     1.007825032230
         H            0.021777046205    -1.260965122605     1.077166910851     1.007825032230
         H           -3.734243953795     2.132270877395     0.473541910851     1.007825032230
         H           -2.980268953795     1.069602877395     1.669448910851     1.007825032230
         H           -2.063382953795     2.432178877395     0.988116910851     1.007825032230
         H            0.999891046205    -1.514421122605    -1.167175089149     1.007825032230
         H            2.265583046205     2.045243877395     0.875135910851     1.007825032230
         H            3.293773046205    -2.455295122605    -0.961692089149     1.007825032230
         H            4.558865046205     1.091104877395     1.123020910851     1.007825032230
         H            5.069174046205    -1.160312122605     0.200223910851     1.007825032230

  Running in c1 symmetry.

  Rotational constants: A =      0.04206  B =      0.01254  C =      0.01061 [cm^-1]
  Rotational constants: A =   1260.99276  B =    375.94857  C =    318.18730 [MHz]
  Nuclear repulsion =  998.712783254776468

  Charge       = 0
  Multiplicity = 1
  Electrons    = 110
  Nalpha       = 55
  Nbeta        = 55

  ==> Algorithm <==

  SCF Algorithm Type is DF.
  DIIS enabled.
  MOM disabled.
  Fractional occupation disabled.
  Guess Type is SAD.
  Energy threshold   = 1.00e-10
  Density threshold  = 1.00e-10
  Integral threshold = 0.00e+00

  ==> Primary Basis <==

  Basis Set: AUG-CC-PVTZ
    Blend: AUG-CC-PVTZ
    Number of shells: 363
    Number of basis function: 1081
    Number of Cartesian functions: 1250
    Spherical Harmonics?: true
    Max angular momentum: 3

   => Loading Basis Set <=

    Name: (AUG-CC-PVTZ AUX)
    Role: JKFIT
    Keyword: DF_BASIS_SCF
    atoms 1     entry O          line   286 file /home/xy3866/psi4conda/share/psi4/basis/aug-cc-pvtz-jkfit.gbs 
    atoms 2     entry N          line   224 file /home/xy3866/psi4conda/share/psi4/basis/aug-cc-pvtz-jkfit.gbs 
    atoms 3-15  entry C          line   162 file /home/xy3866/psi4conda/share/psi4/basis/aug-cc-pvtz-jkfit.gbs 
    atoms 16-32 entry H          line    70 file /home/xy3866/psi4conda/share/psi4/basis/aug-cc-pvtz-jkfit.gbs 

  ==> Pre-Iterations <==

   -------------------------------------------------------
    Irrep   Nso     Nmo     Nalpha   Nbeta   Ndocc  Nsocc
   -------------------------------------------------------
     A       1081    1081       0       0       0       0
   -------------------------------------------------------
    Total    1081    1081      55      55      55       0
   -------------------------------------------------------

  ==> Integral Setup <==

  DFHelper Memory: AOs need 18.412 GiB; user supplied 22.352 GiB. Using in-core AOs.

  ==> MemDFJK: Density-Fitted J/K Matrices <==

    J tasked:                   Yes
    K tasked:                   Yes
    wK tasked:                   No
    OpenMP threads:               8
    Memory [MiB]:             22888
    Algorithm:                 Disk
    Schwarz Cutoff:           1E-12
    Mask sparsity (%):      11.3964
    Fitting Condition:        1E-10

   => Auxiliary Basis Set <=

  Basis Set: (AUG-CC-PVTZ AUX)
    Blend: AUG-CC-PVTZ-JKFIT
    Number of shells: 688
    Number of basis function: 2342
    Number of Cartesian functions: 2900
    Spherical Harmonics?: true
    Max angular momentum: 4

  Minimum eigenvalue in the overlap matrix is 4.3780498294E-07.
  Using Symmetric Orthogonalization.

  SCF Guess: Superposition of Atomic Densities via on-the-fly atomic UHF.

  ==> Iterations <==

                           Total Energy        Delta E     RMS |[F,P]|

   @DF-RHF iter SAD:  -631.72417634975716   -6.31724e+02   0.00000e+00 
   @DF-RHF iter   1:  -631.22350265617570    5.00674e-01   8.51014e-04 DIIS
   @DF-RHF iter   2:  -631.60530582517424   -3.81803e-01   4.61549e-04 DIIS
   @DF-RHF iter   3:  -631.71185687853415   -1.06551e-01   9.68309e-05 DIIS
   @DF-RHF iter   4:  -631.71870085271030   -6.84397e-03   3.88343e-05 DIIS
   @DF-RHF iter   5:  -631.71967547123313   -9.74619e-04   9.48055e-06 DIIS
   @DF-RHF iter   6:  -631.71976149270188   -8.60215e-05   4.03587e-06 DIIS
   @DF-RHF iter   7:  -631.71977882184672   -1.73291e-05   1.37227e-06 DIIS
   @DF-RHF iter   8:  -631.71978292116853   -4.09932e-06   7.38688e-07 DIIS
   @DF-RHF iter   9:  -631.71978385325974   -9.32091e-07   2.53532e-07 DIIS
   @DF-RHF iter  10:  -631.71978397670716   -1.23447e-07   8.96550e-08 DIIS
   @DF-RHF iter  11:  -631.71978398922943   -1.25223e-08   3.40430e-08 DIIS
   @DF-RHF iter  12:  -631.71978399100726   -1.77783e-09   1.56569e-08 DIIS
   @DF-RHF iter  13:  -631.71978399159900   -5.91740e-10   6.36293e-09 DIIS
   @DF-RHF iter  14:  -631.71978399171178   -1.12777e-10   2.87215e-09 DIIS
   @DF-RHF iter  15:  -631.71978399173281   -2.10321e-11   1.34557e-09 DIIS
   @DF-RHF iter  16:  -631.71978399174088   -8.07177e-12   5.25366e-10 DIIS
   @DF-RHF iter  17:  -631.71978399174589   -5.00222e-12   1.92263e-10 DIIS
   @DF-RHF iter  18:  -631.71978399173736    8.52651e-12   7.55745e-11 DIIS
  Energy and wave function converged.


  ==> Post-Iterations <==

    Orbital Energies [Eh]
    ---------------------

    Doubly Occupied:                                                      

       1A    -20.509642     2A    -15.577128     3A    -11.347718  
       4A    -11.269737     5A    -11.254313     6A    -11.251634  
       7A    -11.250132     8A    -11.249153     9A    -11.247497  
      10A    -11.246675    11A    -11.244698    12A    -11.230962  
      13A    -11.226230    14A    -11.221890    15A    -11.206679  
      16A     -1.368987    17A     -1.246848    18A     -1.162865  
      19A     -1.083005    20A     -1.055205    21A     -1.029699  
      22A     -1.024534    23A     -0.957259    24A     -0.895511  
      25A     -0.871742    26A     -0.839412    27A     -0.832751  
      28A     -0.790918    29A     -0.730106    30A     -0.716508  
      31A     -0.682692    32A     -0.651191    33A     -0.639143  
      34A     -0.628478    35A     -0.625874    36A     -0.609394  
      37A     -0.600024    38A     -0.595342    39A     -0.591090  
      40A     -0.570607    41A     -0.564264    42A     -0.541130  
      43A     -0.526059    44A     -0.518458    45A     -0.508484  
      46A     -0.504096    47A     -0.494048    48A     -0.492545  
      49A     -0.470853    50A     -0.466595    51A     -0.444132  
      52A     -0.421231    53A     -0.361331    54A     -0.346111  
      55A     -0.343412  

    Virtual:                                                              

      56A      0.023274    57A      0.028457    58A      0.031975  
      59A      0.034657    60A      0.040437    61A      0.040968  
      62A      0.048624    63A      0.051975    64A      0.054754  
      65A      0.055332    66A      0.058086    67A      0.069335  
      68A      0.072843    69A      0.074699    70A      0.076460  
      71A      0.081458    72A      0.083427    73A      0.087112  
      74A      0.096449    75A      0.097712    76A      0.106840  
      77A      0.108093    78A      0.113227    79A      0.113335  
      80A      0.118118    81A      0.120119    82A      0.122144  
      83A      0.122249    84A      0.127312    85A      0.128763  
      86A      0.130140    87A      0.132650    88A      0.135274  
      89A      0.137566    90A      0.139596    91A      0.143696  
      92A      0.145151    93A      0.149730    94A      0.152987  
      95A      0.156356    96A      0.157574    97A      0.159826  
      98A      0.162379    99A      0.163449   100A      0.168373  
     101A      0.172590   102A      0.178030   103A      0.178298  
     104A      0.182978   105A      0.184629   106A      0.191144  
     107A      0.194230   108A      0.199295   109A      0.202894  
     110A      0.206258   111A      0.208561   112A      0.214962  
     113A      0.220483   114A      0.225753   115A      0.231094  
     116A      0.234794   117A      0.238772   118A      0.240989  
     119A      0.241916   120A      0.247829   121A      0.251226  
     122A      0.255908   123A      0.257629   124A      0.262023  
     125A      0.264554   126A      0.271089   127A      0.275296  
     128A      0.281747   129A      0.282615   130A      0.286775  
     131A      0.289662   132A      0.292424   133A      0.295022  
     134A      0.299258   135A      0.304138   136A      0.306462  
     137A      0.308582   138A      0.312536   139A      0.314797  
     140A      0.318408   141A      0.321604   142A      0.325622  
     143A      0.327722   144A      0.328346   145A      0.330460  
     146A      0.332889   147A      0.337376   148A      0.341112  
     149A      0.343033   150A      0.347013   151A      0.347472  
     152A      0.353396   153A      0.354511   154A      0.360914  
     155A      0.364800   156A      0.367424   157A      0.368437  
     158A      0.372966   159A      0.375942   160A      0.382034  
     161A      0.383686   162A      0.389248   163A      0.394630  
     164A      0.395812   165A      0.404351   166A      0.404961  
     167A      0.410919   168A      0.411674   169A      0.417007  
     170A      0.421816   171A      0.424507   172A      0.427532  
     173A      0.428996   174A      0.430874   175A      0.434257  
     176A      0.438310   177A      0.441237   178A      0.445620  
     179A      0.447159   180A      0.450241   181A      0.453253  
     182A      0.460237   183A      0.461424   184A      0.463650  
     185A      0.467161   186A      0.468393   187A      0.471452  
     188A      0.472516   189A      0.474190   190A      0.481277  
     191A      0.482336   192A      0.485479   193A      0.488607  
     194A      0.489640   195A      0.494850   196A      0.496530  
     197A      0.498985   198A      0.500992   199A      0.505216  
     200A      0.510972   201A      0.514052   202A      0.515616  
     203A      0.518337   204A      0.520979   205A      0.523300  
     206A      0.525839   207A      0.527097   208A      0.529798  
     209A      0.533554   210A      0.536949   211A      0.539370  
     212A      0.542218   213A      0.544744   214A      0.547190  
     215A      0.548130   216A      0.550580   217A      0.556264  
     218A      0.561193   219A      0.565729   220A      0.567993  
     221A      0.572042   222A      0.575014   223A      0.576332  
     224A      0.581084   225A      0.584774   226A      0.587938  
     227A      0.592221   228A      0.597132   229A      0.601576  
     230A      0.603849   231A      0.610722   232A      0.615411  
     233A      0.618847   234A      0.624272   235A      0.626106  
     236A      0.629620   237A      0.631251   238A      0.634133  
     239A      0.638248   240A      0.641005   241A      0.645121  
     242A      0.649784   243A      0.651494   244A      0.655454  
     245A      0.657744   246A      0.665478   247A      0.668622  
     248A      0.672658   249A      0.679011   250A      0.680056  
     251A      0.684973   252A      0.688745   253A      0.693969  
     254A      0.695833   255A      0.700732   256A      0.704472  
     257A      0.710216   258A      0.712900   259A      0.714295  
     260A      0.720018   261A      0.723438   262A      0.726611  
     263A      0.734149   264A      0.737760   265A      0.741053  
     266A      0.741608   267A      0.749395   268A      0.753988  
     269A      0.756892   270A      0.761063   271A      0.767461  
     272A      0.771102   273A      0.775903   274A      0.781038  
     275A      0.787343   276A      0.793452   277A      0.801347  
     278A      0.805619   279A      0.809693   280A      0.810448  
     281A      0.812881   282A      0.815343   283A      0.824040  
     284A      0.826456   285A      0.837791   286A      0.838301  
     287A      0.841650   288A      0.845960   289A      0.846911  
     290A      0.854047   291A      0.857270   292A      0.859643  
     293A      0.870413   294A      0.874296   295A      0.877738  
     296A      0.880310   297A      0.883255   298A      0.886708  
     299A      0.891400   300A      0.893420   301A      0.898875  
     302A      0.902067   303A      0.906166   304A      0.909991  
     305A      0.913444   306A      0.917871   307A      0.921019  
     308A      0.925947   309A      0.928736   310A      0.929504  
     311A      0.939253   312A      0.939908   313A      0.943983  
     314A      0.947059   315A      0.954055   316A      0.957450  
     317A      0.960427   318A      0.964980   319A      0.967205  
     320A      0.975262   321A      0.978608   322A      0.982941  
     323A      0.984124   324A      0.986008   325A      0.988956  
     326A      0.990011   327A      0.996864   328A      0.999173  
     329A      1.007146   330A      1.012652   331A      1.018591  
     332A      1.019545   333A      1.022319   334A      1.031575  
     335A      1.035265   336A      1.038192   337A      1.040151  
     338A      1.045664   339A      1.047167   340A      1.051670  
     341A      1.057973   342A      1.060259   343A      1.064445  
     344A      1.069664   345A      1.077017   346A      1.078453  
     347A      1.081893   348A      1.085389   349A      1.086769  
     350A      1.093410   351A      1.096420   352A      1.100317  
     353A      1.101529   354A      1.103809   355A      1.111113  
     356A      1.112722   357A      1.117819   358A      1.123535  
     359A      1.127496   360A      1.129069   361A      1.134698  
     362A      1.135919   363A      1.139165   364A      1.145285  
     365A      1.147685   366A      1.149071   367A      1.155047  
     368A      1.161605   369A      1.164987   370A      1.169585  
     371A      1.171089   372A      1.173954   373A      1.180170  
     374A      1.182486   375A      1.189337   376A      1.191606  
     377A      1.194004   378A      1.197508   379A      1.202906  
     380A      1.205584   381A      1.206348   382A      1.211052  
     383A      1.214044   384A      1.219475   385A      1.224959  
     386A      1.234672   387A      1.235596   388A      1.236854  
     389A      1.244092   390A      1.248325   391A      1.249162  
     392A      1.252518   393A      1.259005   394A      1.263539  
     395A      1.268235   396A      1.273679   397A      1.278955  
     398A      1.285522   399A      1.288651   400A      1.293022  
     401A      1.295830   402A      1.298955   403A      1.305763  
     404A      1.310677   405A      1.315003   406A      1.317295  
     407A      1.326203   408A      1.329182   409A      1.331415  
     410A      1.335780   411A      1.345785   412A      1.347989  
     413A      1.348977   414A      1.357363   415A      1.363027  
     416A      1.369070   417A      1.378909   418A      1.380831  
     419A      1.386696   420A      1.392067   421A      1.396326  
     422A      1.399837   423A      1.402836   424A      1.408533  
     425A      1.413607   426A      1.415587   427A      1.418239  
     428A      1.434021   429A      1.438761   430A      1.441020  
     431A      1.448139   432A      1.456996   433A      1.463373  
     434A      1.465195   435A      1.468603   436A      1.470227  
     437A      1.476392   438A      1.479699   439A      1.487123  
     440A      1.491386   441A      1.493811   442A      1.499674  
     443A      1.505219   444A      1.515251   445A      1.518864  
     446A      1.522517   447A      1.525834   448A      1.532085  
     449A      1.545644   450A      1.548295   451A      1.551423  
     452A      1.556437   453A      1.560469   454A      1.565619  
     455A      1.567590   456A      1.577903   457A      1.583200  
     458A      1.587080   459A      1.587921   460A      1.599873  
     461A      1.601226   462A      1.605888   463A      1.615249  
     464A      1.616663   465A      1.617582   466A      1.626868  
     467A      1.633289   468A      1.637677   469A      1.647482  
     470A      1.648914   471A      1.653053   472A      1.657573  
     473A      1.660163   474A      1.664037   475A      1.672794  
     476A      1.677227   477A      1.684966   478A      1.688122  
     479A      1.694069   480A      1.696848   481A      1.705851  
     482A      1.709785   483A      1.714951   484A      1.717590  
     485A      1.729024   486A      1.733645   487A      1.736590  
     488A      1.740102   489A      1.742733   490A      1.752540  
     491A      1.754120   492A      1.759506   493A      1.763745  
     494A      1.773991   495A      1.776465   496A      1.785847  
     497A      1.795292   498A      1.797138   499A      1.802622  
     500A      1.806614   501A      1.811915   502A      1.815579  
     503A      1.819526   504A      1.824711   505A      1.831835  
     506A      1.835558   507A      1.844700   508A      1.848899  
     509A      1.851588   510A      1.853928   511A      1.856942  
     512A      1.862339   513A      1.866479   514A      1.868885  
     515A      1.876542   516A      1.882014   517A      1.885958  
     518A      1.890454   519A      1.893932   520A      1.901917  
     521A      1.906654   522A      1.912333   523A      1.913830  
     524A      1.924772   525A      1.932464   526A      1.935972  
     527A      1.941541   528A      1.955346   529A      1.959389  
     530A      1.960240   531A      1.966214   532A      1.968848  
     533A      1.973980   534A      1.979692   535A      1.982320  
     536A      1.989770   537A      1.995873   538A      2.000197  
     539A      2.010359   540A      2.012245   541A      2.019844  
     542A      2.025894   543A      2.027951   544A      2.030119  
     545A      2.036185   546A      2.037919   547A      2.045191  
     548A      2.046476   549A      2.052224   550A      2.054094  
     551A      2.060302   552A      2.063379   553A      2.072822  
     554A      2.077353   555A      2.081878   556A      2.090372  
     557A      2.101491   558A      2.103630   559A      2.107246  
     560A      2.107644   561A      2.126279   562A      2.128085  
     563A      2.130718   564A      2.139324   565A      2.142453  
     566A      2.146039   567A      2.155442   568A      2.159405  
     569A      2.163245   570A      2.167276   571A      2.176479  
     572A      2.185932   573A      2.187330   574A      2.189580  
     575A      2.196079   576A      2.208188   577A      2.212662  
     578A      2.217379   579A      2.224898   580A      2.230956  
     581A      2.235722   582A      2.247270   583A      2.255060  
     584A      2.258025   585A      2.262264   586A      2.279145  
     587A      2.288275   588A      2.292039   589A      2.299383  
     590A      2.309707   591A      2.317704   592A      2.324621  
     593A      2.332934   594A      2.334367   595A      2.341936  
     596A      2.345557   597A      2.350108   598A      2.366217  
     599A      2.368283   600A      2.374885   601A      2.382293  
     602A      2.396369   603A      2.399590   604A      2.408569  
     605A      2.413519   606A      2.416907   607A      2.418649  
     608A      2.425384   609A      2.430470   610A      2.433540  
     611A      2.445275   612A      2.453631   613A      2.460825  
     614A      2.464786   615A      2.476032   616A      2.480434  
     617A      2.488107   618A      2.494936   619A      2.505278  
     620A      2.514608   621A      2.520783   622A      2.529842  
     623A      2.543336   624A      2.556238   625A      2.561953  
     626A      2.573585   627A      2.579331   628A      2.582708  
     629A      2.590365   630A      2.595400   631A      2.608566  
     632A      2.609947   633A      2.626514   634A      2.631927  
     635A      2.642167   636A      2.648311   637A      2.662487  
     638A      2.664449   639A      2.672796   640A      2.693346  
     641A      2.699987   642A      2.703160   643A      2.711142  
     644A      2.721101   645A      2.732936   646A      2.739716  
     647A      2.753311   648A      2.764543   649A      2.769566  
     650A      2.782671   651A      2.786716   652A      2.798592  
     653A      2.807860   654A      2.814100   655A      2.824837  
     656A      2.837673   657A      2.847324   658A      2.868743  
     659A      2.874919   660A      2.890563   661A      2.895276  
     662A      2.924278   663A      2.928208   664A      2.940238  
     665A      2.957430   666A      2.985150   667A      2.989930  
     668A      3.002667   669A      3.023976   670A      3.059638  
     671A      3.068421   672A      3.099059   673A      3.108432  
     674A      3.118711   675A      3.139803   676A      3.153542  
     677A      3.157532   678A      3.164050   679A      3.206386  
     680A      3.211661   681A      3.226567   682A      3.235820  
     683A      3.247187   684A      3.259287   685A      3.282116  
     686A      3.290654   687A      3.306532   688A      3.324036  
     689A      3.335630   690A      3.360421   691A      3.363845  
     692A      3.387030   693A      3.392639   694A      3.399585  
     695A      3.408284   696A      3.415037   697A      3.441279  
     698A      3.452286   699A      3.459771   700A      3.478040  
     701A      3.484909   702A      3.488238   703A      3.493655  
     704A      3.505185   705A      3.516116   706A      3.525740  
     707A      3.532726   708A      3.537147   709A      3.550168  
     710A      3.562939   711A      3.565651   712A      3.570525  
     713A      3.577104   714A      3.594099   715A      3.598721  
     716A      3.604234   717A      3.614757   718A      3.624207  
     719A      3.629621   720A      3.632201   721A      3.643069  
     722A      3.646194   723A      3.655324   724A      3.659905  
     725A      3.665180   726A      3.682478   727A      3.684657  
     728A      3.689328   729A      3.696989   730A      3.711561  
     731A      3.718656   732A      3.731576   733A      3.742499  
     734A      3.748613   735A      3.755717   736A      3.764516  
     737A      3.768847   738A      3.777641   739A      3.786153  
     740A      3.790518   741A      3.796934   742A      3.800574  
     743A      3.808586   744A      3.813420   745A      3.823923  
     746A      3.828905   747A      3.840564   748A      3.847038  
     749A      3.857215   750A      3.858709   751A      3.865806  
     752A      3.870864   753A      3.882347   754A      3.887924  
     755A      3.891238   756A      3.895089   757A      3.903320  
     758A      3.908929   759A      3.914668   760A      3.920439  
     761A      3.923377   762A      3.931938   763A      3.936390  
     764A      3.947062   765A      3.951050   766A      3.958302  
     767A      3.968256   768A      3.974581   769A      3.983090  
     770A      3.985513   771A      3.994334   772A      4.001273  
     773A      4.005020   774A      4.010754   775A      4.014677  
     776A      4.017199   777A      4.021342   778A      4.025431  
     779A      4.032246   780A      4.039024   781A      4.040890  
     782A      4.046434   783A      4.051580   784A      4.054530  
     785A      4.061841   786A      4.064322   787A      4.076133  
     788A      4.087644   789A      4.092387   790A      4.098735  
     791A      4.104621   792A      4.119249   793A      4.121482  
     794A      4.131999   795A      4.134212   796A      4.139820  
     797A      4.154610   798A      4.160780   799A      4.161663  
     800A      4.164990   801A      4.167560   802A      4.179517  
     803A      4.188015   804A      4.189012   805A      4.202528  
     806A      4.208081   807A      4.212821   808A      4.225594  
     809A      4.228015   810A      4.238856   811A      4.240974  
     812A      4.251617   813A      4.254617   814A      4.262948  
     815A      4.269161   816A      4.280376   817A      4.282049  
     818A      4.287174   819A      4.291812   820A      4.301420  
     821A      4.307249   822A      4.311762   823A      4.318081  
     824A      4.324624   825A      4.333080   826A      4.346024  
     827A      4.352997   828A      4.355363   829A      4.364256  
     830A      4.370708   831A      4.377690   832A      4.381160  
     833A      4.385063   834A      4.399869   835A      4.404734  
     836A      4.410184   837A      4.414502   838A      4.422536  
     839A      4.428961   840A      4.439694   841A      4.447264  
     842A      4.453152   843A      4.455172   844A      4.467293  
     845A      4.472689   846A      4.482689   847A      4.486875  
     848A      4.492601   849A      4.495650   850A      4.502346  
     851A      4.507257   852A      4.515026   853A      4.530168  
     854A      4.539264   855A      4.546256   856A      4.553097  
     857A      4.565423   858A      4.576948   859A      4.584893  
     860A      4.589716   861A      4.591088   862A      4.601761  
     863A      4.607354   864A      4.618539   865A      4.638168  
     866A      4.660998   867A      4.669216   868A      4.677657  
     869A      4.685826   870A      4.698799   871A      4.704066  
     872A      4.717497   873A      4.723454   874A      4.730954  
     875A      4.741448   876A      4.746939   877A      4.753099  
     878A      4.760129   879A      4.763016   880A      4.765118  
     881A      4.788318   882A      4.794421   883A      4.800490  
     884A      4.803943   885A      4.810515   886A      4.821184  
     887A      4.826188   888A      4.846954   889A      4.850602  
     890A      4.866821   891A      4.882800   892A      4.894021  
     893A      4.900954   894A      4.908036   895A      4.916436  
     896A      4.925653   897A      4.936864   898A      4.945985  
     899A      4.950308   900A      4.965156   901A      4.965790  
     902A      4.975598   903A      4.983236   904A      4.989475  
     905A      4.997742   906A      5.003082   907A      5.013289  
     908A      5.019330   909A      5.030487   910A      5.048005  
     911A      5.059109   912A      5.067416   913A      5.076216  
     914A      5.086274   915A      5.097064   916A      5.109774  
     917A      5.113212   918A      5.115649   919A      5.129046  
     920A      5.140761   921A      5.148393   922A      5.158563  
     923A      5.164450   924A      5.169335   925A      5.178003  
     926A      5.183166   927A      5.187279   928A      5.195921  
     929A      5.202883   930A      5.211863   931A      5.216057  
     932A      5.219529   933A      5.231984   934A      5.257794  
     935A      5.264719   936A      5.272702   937A      5.285806  
     938A      5.293332   939A      5.299291   940A      5.304633  
     941A      5.312838   942A      5.322719   943A      5.324607  
     944A      5.335237   945A      5.347954   946A      5.359513  
     947A      5.362866   948A      5.371169   949A      5.376691  
     950A      5.388034   951A      5.400310   952A      5.406665  
     953A      5.407064   954A      5.429516   955A      5.434053  
     956A      5.442764   957A      5.454186   958A      5.470138  
     959A      5.481149   960A      5.489631   961A      5.501914  
     962A      5.511415   963A      5.519414   964A      5.536237  
     965A      5.538433   966A      5.542238   967A      5.557767  
     968A      5.578221   969A      5.579323   970A      5.603929  
     971A      5.605815   972A      5.612043   973A      5.621440  
     974A      5.635807   975A      5.652125   976A      5.662131  
     977A      5.668621   978A      5.680392   979A      5.681471  
     980A      5.711475   981A      5.725990   982A      5.735031  
     983A      5.752098   984A      5.761075   985A      5.780645  
     986A      5.788556   987A      5.800903   988A      5.812807  
     989A      5.816054   990A      5.848833   991A      5.859490  
     992A      5.870197   993A      5.882824   994A      5.890697  
     995A      5.893456   996A      5.920405   997A      5.931264  
     998A      5.960081   999A      5.972715  1000A      5.989037  
    1001A      6.002486  1002A      6.021706  1003A      6.046517  
    1004A      6.056445  1005A      6.086554  1006A      6.099469  
    1007A      6.130420  1008A      6.150162  1009A      6.181931  
    1010A      6.186037  1011A      6.199340  1012A      6.205852  
    1013A      6.223151  1014A      6.232782  1015A      6.250509  
    1016A      6.265641  1017A      6.282600  1018A      6.297823  
    1019A      6.330757  1020A      6.344319  1021A      6.356216  
    1022A      6.363652  1023A      6.383248  1024A      6.386720  
    1025A      6.404806  1026A      6.418803  1027A      6.426968  
    1028A      6.499666  1029A      6.511822  1030A      6.541480  
    1031A      6.566595  1032A      6.615371  1033A      6.642185  
    1034A      6.671127  1035A      6.708081  1036A      6.755400  
    1037A      6.766322  1038A      6.779773  1039A      6.809444  
    1040A      6.858961  1041A      6.893451  1042A      6.929909  
    1043A      6.935017  1044A      6.968291  1045A      6.985541  
    1046A      6.999519  1047A      7.001038  1048A      7.012353  
    1049A      7.064860  1050A      7.084049  1051A      7.100672  
    1052A      7.143802  1053A      7.160343  1054A      7.169006  
    1055A      7.192462  1056A      7.291984  1057A      7.316158  
    1058A      7.324658  1059A      7.361823  1060A      7.555575  
    1061A      7.577532  1062A      7.710322  1063A      7.822126  
    1064A      7.857316  1065A      8.067249  1066A      8.151588  
    1067A     15.671930  1068A     16.232090  1069A     16.939635  
    1070A     17.974551  1071A     18.281814  1072A     18.575610  
    1073A     18.810290  1074A     19.225582  1075A     19.454522  
    1076A     19.529844  1077A     19.798143  1078A     20.114439  
    1079A     20.312408  1080A     21.056075  1081A     22.380202  

    Final Occupation by Irrep:
              A 
    DOCC [    55 ]

  @DF-RHF Final Energy:  -631.71978399173736

   => Energetics <=

    Nuclear Repulsion Energy =            998.7127832547764683
    One-Electron Energy =               -2840.5930872385151815
    Two-Electron Energy =                1210.1605199920013547
    Total Energy =                       -631.7197839917373585

Computation Completed

*** tstop() called on node56.bme.utexas.edu at Fri Feb  5 18:43:13 2021
Module time:
	user time   =    1497.18 seconds =      24.95 minutes
	system time =     183.25 seconds =       3.05 minutes
	total time  =        360 seconds =       6.00 minutes
Total time:
	user time   =    1497.18 seconds =      24.95 minutes
	system time =     183.25 seconds =       3.05 minutes
	total time  =        360 seconds =       6.00 minutes
   => Loading Basis Set <=

    Name: (AUG-CC-PVTZ AUX)
    Role: RIFIT
    Keyword: DF_BASIS_MP2
    atoms 1     entry O          line   264 file /home/xy3866/psi4conda/share/psi4/basis/aug-cc-pvtz-ri.gbs 
    atoms 2     entry N          line   206 file /home/xy3866/psi4conda/share/psi4/basis/aug-cc-pvtz-ri.gbs 
    atoms 3-15  entry C          line   148 file /home/xy3866/psi4conda/share/psi4/basis/aug-cc-pvtz-ri.gbs 
    atoms 16-32 entry H          line    30 file /home/xy3866/psi4conda/share/psi4/basis/aug-cc-pvtz-ri.gbs 


*** tstart() called on node56.bme.utexas.edu
*** at Fri Feb  5 18:43:13 2021


  //>>>>>>>>>>>>>>>>>>>>>>>>>>>>>>>>>>>//
  //               DFMP2               //
  //<<<<<<<<<<<<<<<<<<<<<<<<<<<<<<<<<<<//

	 --------------------------------------------------------
	                          DF-MP2                         
	      2nd-Order Density-Fitted Moller-Plesset Theory     
	              RMP2 Wavefunction,   8 Threads             
	                                                         
	        Rob Parrish, Justin Turney, Andy Simmonett,      
	           Ed Hohenstein, and C. David Sherrill          
	 --------------------------------------------------------

   => Auxiliary Basis Set <=

  Basis Set: (AUG-CC-PVTZ AUX)
    Blend: AUG-CC-PVTZ-RI
    Number of shells: 658
    Number of basis function: 2372
    Number of Cartesian functions: 2975
    Spherical Harmonics?: true
    Max angular momentum: 4

	 --------------------------------------------------------
	                 NBF =  1081, NAUX =  2372
	 --------------------------------------------------------
	   CLASS    FOCC     OCC    AOCC    AVIR     VIR    FVIR
	   PAIRS       0      55      55    1026    1026       0
	 --------------------------------------------------------

  DFHelper Memory: AOs need 18.412 GiB; user supplied 22.352 GiB. Using in-core AOs.


         ------------------------------------------------------------
                                     CPHF                           
                                  Rob Parrish                       
         ------------------------------------------------------------

  ==> Geometry <==

    Molecular point group: c1
    Full point group: C1

    Geometry (in Angstrom), charge = 0, multiplicity = 1:

       Center              X                  Y                   Z               Mass       
    ------------   -----------------  -----------------  -----------------  -----------------
         O            0.076053046205     2.112756877395    -0.731128089149    15.994914619570
         N           -1.022452353795     0.258762777395    -0.087798689149    14.003074004430
         C           -2.271246953795     0.790523877395    -0.386117089149    12.000000000000
         C           -3.232578953795    -0.317100122605    -0.826019089149    12.000000000000
         C           -3.315443953795    -1.465804122605     0.178505910851    12.000000000000
         C           -1.919328953795    -2.016634122605     0.461528910851    12.000000000000
         C           -0.994409953795    -0.898337122605     0.924184910851    12.000000000000
         C           -2.794086953795     1.651607877395     0.763003910851    12.000000000000
         C            0.147768046205     0.950696877395    -0.306511089149    12.000000000000
         C            1.485623046205     0.305158877395    -0.114158089149    12.000000000000
         C            1.777684046205    -0.957435122605    -0.648265089149    12.000000000000
         C            2.496520046205     1.049341877395     0.505377910851    12.000000000000
         C            3.066773046205    -1.480297122605    -0.536683089149    12.000000000000
         C            3.778785046205     0.515751877395     0.630083910851    12.000000000000
         C            4.066503046205    -0.749318122605     0.109940910851    12.000000000000
         H           -2.080021953795     1.453625877395    -1.233751089149     1.007825032230
         H           -2.881629953795    -0.711878122605    -1.787837089149     1.007825032230
         H           -4.223497953795     0.119956877395    -1.000239089149     1.007825032230
         H           -3.969345953795    -2.256156122605    -0.207725089149     1.007825032230
         H           -3.766161953795    -1.118397122605     1.116809910851     1.007825032230
         H           -1.955092953795    -2.799634122605     1.228777910851     1.007825032230
         H           -1.505533953795    -2.467050122605    -0.449574089149     1.007825032230
         H           -1.347714953795    -0.508346122605     1.891047910851     1.007825032230
         H            0.021777046205    -1.260965122605     1.077166910851     1.007825032230
         H           -3.734243953795     2.132270877395     0.473541910851     1.007825032230
         H           -2.980268953795     1.069602877395     1.669448910851     1.007825032230
         H           -2.063382953795     2.432178877395     0.988116910851     1.007825032230
         H            0.999891046205    -1.514421122605    -1.167175089149     1.007825032230
         H            2.265583046205     2.045243877395     0.875135910851     1.007825032230
         H            3.293773046205    -2.455295122605    -0.961692089149     1.007825032230
         H            4.558865046205     1.091104877395     1.123020910851     1.007825032230
         H            5.069174046205    -1.160312122605     0.200223910851     1.007825032230

  Nuclear repulsion =  998.712783254776582
  Reference energy  = -631.719783991737359

  ==> Basis Set <==

  Basis Set: AUG-CC-PVTZ
    Blend: AUG-CC-PVTZ
    Number of shells: 363
    Number of basis function: 1081
    Number of Cartesian functions: 1250
    Spherical Harmonics?: true
    Max angular momentum: 3

  ==> CGRSolver (by Rob Parrish) <==

   Number of roots    =         1
   Preconditioning    =    JACOBI
   Convergence cutoff =     1E-06
   Maximum iterations =       100

  ==> CPHFRHamiltonian (by Rob Parrish) <== 

  ==> MemDFJK: Density-Fitted J/K Matrices <==

    J tasked:                   Yes
    K tasked:                   Yes
    wK tasked:                   No
    OpenMP threads:               8
    Memory [MiB]:             22888
    Algorithm:                 Disk
    Schwarz Cutoff:           1E-12
    Mask sparsity (%):      11.3964
    Fitting Condition:        1E-10

   => Auxiliary Basis Set <=

  Basis Set: (AUG-CC-PVTZ AUX)
    Blend: AUG-CC-PVTZ-JKFIT
    Number of shells: 688
    Number of basis function: 2342
    Number of Cartesian functions: 2900
    Spherical Harmonics?: true
    Max angular momentum: 4

  ==> CPHF Iterations <==

  => Iterations <=

             Iter  Converged  Remaining    Residual
  CGR           1          0          1   1.132E-01
  CGR           2          0          1   3.358E-02
  CGR           3          0          1   1.487E-02
  CGR           4          0          1   5.599E-03
  CGR           5          0          1   2.442E-03
  CGR           6          0          1   1.261E-03
  CGR           7          0          1   4.725E-04
  CGR           8          0          1   1.856E-04
  CGR           9          0          1   6.152E-05
  CGR          10          0          1   2.179E-05
  CGR          11          0          1   1.021E-05
  CGR          12          0          1   3.754E-06
  CGR          13          0          1   1.629E-06
  CGR          14          1          0   5.223E-07

    CGRSolver converged.

	-----------------------------------------------------------
	 ==================> DF-MP2 Energies <==================== 
	-----------------------------------------------------------
	 Reference Energy          =    -631.7197839917373585 [Eh]
	 Singles Energy            =      -0.0000000000000000 [Eh]
	 Same-Spin Energy          =      -0.6889166680549641 [Eh]
	 Opposite-Spin Energy      =      -2.2120482789471376 [Eh]
	 Correlation Energy        =      -2.9009649470021017 [Eh]
	 Total Energy              =    -634.6207489387394389 [Eh]
	-----------------------------------------------------------
	 ================> DF-SCS-MP2 Energies <================== 
	-----------------------------------------------------------
	 SCS Same-Spin Scale       =       0.3333333333333333 [-]
	 SCS Opposite-Spin Scale   =       1.2000000000000000 [-]
	 SCS Same-Spin Energy      =      -0.2296388893516547 [Eh]
	 SCS Opposite-Spin Energy  =      -2.6544579347365649 [Eh]
	 SCS Correlation Energy    =      -2.8840968240882194 [Eh]
	 SCS Total Energy          =    -634.6038808158256188 [Eh]
	-----------------------------------------------------------



Properties will be evaluated at   0.000000,  -0.000000,   0.000000 [a0]

Properties computed using the MP2 density matrix

  Nuclear Dipole Moment: [e a0]
     X:   -13.4004      Y:    -5.5296      Z:     3.5922

  Electronic Dipole Moment: [e a0]
     X:    13.1442      Y:     4.2151      Z:    -2.9941

  Dipole Moment: [e a0]
     X:    -0.2562      Y:    -1.3145      Z:     0.5981     Total:     1.4667

  Dipole Moment: [D]
     X:    -0.6513      Y:    -3.3411      Z:     1.5202     Total:     3.7280


*** tstop() called on node56.bme.utexas.edu at Fri Feb  5 19:00:15 2021
Module time:
	user time   =    6050.36 seconds =     100.84 minutes
	system time =     357.20 seconds =       5.95 minutes
	total time  =       1022 seconds =      17.03 minutes
Total time:
	user time   =    7547.82 seconds =     125.80 minutes
	system time =     540.45 seconds =       9.01 minutes
	total time  =       1382 seconds =      23.03 minutes

    Psi4 stopped on: Friday, 05 February 2021 07:00PM
    Psi4 wall time for execution: 0:23:02.70

*** Psi4 exiting successfully. Buy a developer a beer!
