opt=(Tight,CalcAll)                                                     
Freq      RMP2-FC                                                     6-31G(d)            
Number of atoms                            I               18
Info1-9                                    I   N=           9
          27          27        1002           0           0         100
           6           2           1
Charge                                     I                0
Multiplicity                               I                1
Number of electrons                        I               68
Number of alpha electrons                  I               34
Number of beta electrons                   I               34
Number of basis functions                  I              166
Number of independent functions            I              166
Number of point charges in /Mol/           I                0
Number of translation vectors              I                0
Atomic numbers                             I   N=          18
           6           6           6           6           6           6
           6           6           6           6           1           1
           1           1           1           1           1           1
Nuclear charges                            R   N=          18
  6.00000000E+00  6.00000000E+00  6.00000000E+00  6.00000000E+00  6.00000000E+00
  6.00000000E+00  6.00000000E+00  6.00000000E+00  6.00000000E+00  6.00000000E+00
  1.00000000E+00  1.00000000E+00  1.00000000E+00  1.00000000E+00  1.00000000E+00
  1.00000000E+00  1.00000000E+00  1.00000000E+00
Current cartesian coordinates              R   N=          54
 -2.34607563E+00 -2.65211895E+00 -7.32400436E-03 -4.59660648E+00 -1.33661035E+00
  5.49947163E-03 -4.59660648E+00  1.33661035E+00 -5.49789840E-03 -2.34607563E+00
  2.65211895E+00  7.32562942E-03 -1.73011121E-09  1.35340226E+00 -1.64626486E-02
  2.34607562E+00  2.65211895E+00  7.32568385E-03  4.59660648E+00  1.33661035E+00
 -5.49779213E-03  4.59660648E+00 -1.33661035E+00  5.49957789E-03  2.34607562E+00
 -2.65211895E+00 -7.32394992E-03 -1.73011121E-09 -1.35340226E+00  1.64643281E-02
 -2.34435631E+00 -4.71029139E+00  3.37327862E-03 -6.38185059E+00 -2.35490566E+00
 -6.34449560E-03 -6.38185059E+00  2.35490566E+00  6.34602819E-03 -2.34435631E+00
  4.71029139E+00 -3.37165286E-03  2.34435631E+00  4.71029139E+00 -3.37159912E-03
  6.38185059E+00  2.35490566E+00  6.34617510E-03  6.38185059E+00 -2.35490566E+00
 -6.34434869E-03  2.34435631E+00 -4.71029139E+00  3.37333235E-03
Force Field                                I                0
Int Atom Types                             I   N=          18
           0           0           0           0           0           0
           0           0           0           0           0           0
           0           0           0           0           0           0
MM charges                                 R   N=          18
  0.00000000E+00  0.00000000E+00  0.00000000E+00  0.00000000E+00  0.00000000E+00
  0.00000000E+00  0.00000000E+00  0.00000000E+00  0.00000000E+00  0.00000000E+00
  0.00000000E+00  0.00000000E+00  0.00000000E+00  0.00000000E+00  0.00000000E+00
  0.00000000E+00  0.00000000E+00  0.00000000E+00
Integer atomic weights                     I   N=          18
          12          12          12          12          12          12
          12          12          12          12           1           1
           1           1           1           1           1           1
Real atomic weights                        R   N=          18
  1.20000000E+01  1.20000000E+01  1.20000000E+01  1.20000000E+01  1.20000000E+01
  1.20000000E+01  1.20000000E+01  1.20000000E+01  1.20000000E+01  1.20000000E+01
  1.00782504E+00  1.00782504E+00  1.00782504E+00  1.00782504E+00  1.00782504E+00
  1.00782504E+00  1.00782504E+00  1.00782504E+00
Atom fragment info                         I   N=          18
           0           0           0           0           0           0
           0           0           0           0           0           0
           0           0           0           0           0           0
Atom residue num                           I   N=          18
           0           0           0           0           0           0
           0           0           0           0           0           0
           0           0           0           0           0           0
Nuclear spins                              I   N=          18
           0           0           0           0           0           0
           0           0           0           0           1           1
           1           1           1           1           1           1
Nuclear ZEff                               R   N=          18
 -3.60000000E+00 -3.60000000E+00 -3.60000000E+00 -3.60000000E+00 -3.60000000E+00
 -3.60000000E+00 -3.60000000E+00 -3.60000000E+00 -3.60000000E+00 -3.60000000E+00
 -1.00000000E+00 -1.00000000E+00 -1.00000000E+00 -1.00000000E+00 -1.00000000E+00
 -1.00000000E+00 -1.00000000E+00 -1.00000000E+00
Nuclear QMom                               R   N=          18
  0.00000000E+00  0.00000000E+00  0.00000000E+00  0.00000000E+00  0.00000000E+00
  0.00000000E+00  0.00000000E+00  0.00000000E+00  0.00000000E+00  0.00000000E+00
  0.00000000E+00  0.00000000E+00  0.00000000E+00  0.00000000E+00  0.00000000E+00
  0.00000000E+00  0.00000000E+00  0.00000000E+00
Nuclear GFac                               R   N=          18
  0.00000000E+00  0.00000000E+00  0.00000000E+00  0.00000000E+00  0.00000000E+00
  0.00000000E+00  0.00000000E+00  0.00000000E+00  0.00000000E+00  0.00000000E+00
  2.79284600E+00  2.79284600E+00  2.79284600E+00  2.79284600E+00  2.79284600E+00
  2.79284600E+00  2.79284600E+00  2.79284600E+00
MicOpt                                     I   N=          18
          -1          -1          -1          -1          -1          -1
          -1          -1          -1          -1          -1          -1
          -1          -1          -1          -1          -1          -1
Number of contracted shells                I               56
Number of primitive shells                 I              142
Pure/Cartesian d shells                    I                1
Pure/Cartesian f shells                    I                0
Highest angular momentum                   I                2
Largest degree of contraction              I                6
Shell types                                I   N=          56
           0          -1          -1           2           0          -1
          -1           2           0          -1          -1           2
           0          -1          -1           2           0          -1
          -1           2           0          -1          -1           2
           0          -1          -1           2           0          -1
          -1           2           0          -1          -1           2
           0          -1          -1           2           0           0
           0           0           0           0           0           0
           0           0           0           0           0           0
           0           0
Number of primitives per shell             I   N=          56
           6           3           1           1           6           3
           1           1           6           3           1           1
           6           3           1           1           6           3
           1           1           6           3           1           1
           6           3           1           1           6           3
           1           1           6           3           1           1
           6           3           1           1           3           1
           3           1           3           1           3           1
           3           1           3           1           3           1
           3           1
Shell to atom map                          I   N=          56
           1           1           1           1           2           2
           2           2           3           3           3           3
           4           4           4           4           5           5
           5           5           6           6           6           6
           7           7           7           7           8           8
           8           8           9           9           9           9
          10          10          10          10          11          11
          12          12          13          13          14          14
          15          15          16          16          17          17
          18          18
Primitive exponents                        R   N=         142
  3.04752488E+03  4.57369518E+02  1.03948685E+02  2.92101553E+01  9.28666296E+00
  3.16392696E+00  7.86827235E+00  1.88128854E+00  5.44249258E-01  1.68714478E-01
  8.00000000E-01  3.04752488E+03  4.57369518E+02  1.03948685E+02  2.92101553E+01
  9.28666296E+00  3.16392696E+00  7.86827235E+00  1.88128854E+00  5.44249258E-01
  1.68714478E-01  8.00000000E-01  3.04752488E+03  4.57369518E+02  1.03948685E+02
  2.92101553E+01  9.28666296E+00  3.16392696E+00  7.86827235E+00  1.88128854E+00
  5.44249258E-01  1.68714478E-01  8.00000000E-01  3.04752488E+03  4.57369518E+02
  1.03948685E+02  2.92101553E+01  9.28666296E+00  3.16392696E+00  7.86827235E+00
  1.88128854E+00  5.44249258E-01  1.68714478E-01  8.00000000E-01  3.04752488E+03
  4.57369518E+02  1.03948685E+02  2.92101553E+01  9.28666296E+00  3.16392696E+00
  7.86827235E+00  1.88128854E+00  5.44249258E-01  1.68714478E-01  8.00000000E-01
  3.04752488E+03  4.57369518E+02  1.03948685E+02  2.92101553E+01  9.28666296E+00
  3.16392696E+00  7.86827235E+00  1.88128854E+00  5.44249258E-01  1.68714478E-01
  8.00000000E-01  3.04752488E+03  4.57369518E+02  1.03948685E+02  2.92101553E+01
  9.28666296E+00  3.16392696E+00  7.86827235E+00  1.88128854E+00  5.44249258E-01
  1.68714478E-01  8.00000000E-01  3.04752488E+03  4.57369518E+02  1.03948685E+02
  2.92101553E+01  9.28666296E+00  3.16392696E+00  7.86827235E+00  1.88128854E+00
  5.44249258E-01  1.68714478E-01  8.00000000E-01  3.04752488E+03  4.57369518E+02
  1.03948685E+02  2.92101553E+01  9.28666296E+00  3.16392696E+00  7.86827235E+00
  1.88128854E+00  5.44249258E-01  1.68714478E-01  8.00000000E-01  3.04752488E+03
  4.57369518E+02  1.03948685E+02  2.92101553E+01  9.28666296E+00  3.16392696E+00
  7.86827235E+00  1.88128854E+00  5.44249258E-01  1.68714478E-01  8.00000000E-01
  1.87311370E+01  2.82539436E+00  6.40121692E-01  1.61277759E-01  1.87311370E+01
  2.82539436E+00  6.40121692E-01  1.61277759E-01  1.87311370E+01  2.82539436E+00
  6.40121692E-01  1.61277759E-01  1.87311370E+01  2.82539436E+00  6.40121692E-01
  1.61277759E-01  1.87311370E+01  2.82539436E+00  6.40121692E-01  1.61277759E-01
  1.87311370E+01  2.82539436E+00  6.40121692E-01  1.61277759E-01  1.87311370E+01
  2.82539436E+00  6.40121692E-01  1.61277759E-01  1.87311370E+01  2.82539436E+00
  6.40121692E-01  1.61277759E-01
Contraction coefficients                   R   N=         142
  1.83473713E-03  1.40373228E-02  6.88426223E-02  2.32184443E-01  4.67941348E-01
  3.62311985E-01 -1.19332420E-01 -1.60854152E-01  1.14345644E+00  1.00000000E+00
  1.00000000E+00  1.83473713E-03  1.40373228E-02  6.88426223E-02  2.32184443E-01
  4.67941348E-01  3.62311985E-01 -1.19332420E-01 -1.60854152E-01  1.14345644E+00
  1.00000000E+00  1.00000000E+00  1.83473713E-03  1.40373228E-02  6.88426223E-02
  2.32184443E-01  4.67941348E-01  3.62311985E-01 -1.19332420E-01 -1.60854152E-01
  1.14345644E+00  1.00000000E+00  1.00000000E+00  1.83473713E-03  1.40373228E-02
  6.88426223E-02  2.32184443E-01  4.67941348E-01  3.62311985E-01 -1.19332420E-01
 -1.60854152E-01  1.14345644E+00  1.00000000E+00  1.00000000E+00  1.83473713E-03
  1.40373228E-02  6.88426223E-02  2.32184443E-01  4.67941348E-01  3.62311985E-01
 -1.19332420E-01 -1.60854152E-01  1.14345644E+00  1.00000000E+00  1.00000000E+00
  1.83473713E-03  1.40373228E-02  6.88426223E-02  2.32184443E-01  4.67941348E-01
  3.62311985E-01 -1.19332420E-01 -1.60854152E-01  1.14345644E+00  1.00000000E+00
  1.00000000E+00  1.83473713E-03  1.40373228E-02  6.88426223E-02  2.32184443E-01
  4.67941348E-01  3.62311985E-01 -1.19332420E-01 -1.60854152E-01  1.14345644E+00
  1.00000000E+00  1.00000000E+00  1.83473713E-03  1.40373228E-02  6.88426223E-02
  2.32184443E-01  4.67941348E-01  3.62311985E-01 -1.19332420E-01 -1.60854152E-01
  1.14345644E+00  1.00000000E+00  1.00000000E+00  1.83473713E-03  1.40373228E-02
  6.88426223E-02  2.32184443E-01  4.67941348E-01  3.62311985E-01 -1.19332420E-01
 -1.60854152E-01  1.14345644E+00  1.00000000E+00  1.00000000E+00  1.83473713E-03
  1.40373228E-02  6.88426223E-02  2.32184443E-01  4.67941348E-01  3.62311985E-01
 -1.19332420E-01 -1.60854152E-01  1.14345644E+00  1.00000000E+00  1.00000000E+00
  3.34946043E-02  2.34726953E-01  8.13757326E-01  1.00000000E+00  3.34946043E-02
  2.34726953E-01  8.13757326E-01  1.00000000E+00  3.34946043E-02  2.34726953E-01
  8.13757326E-01  1.00000000E+00  3.34946043E-02  2.34726953E-01  8.13757326E-01
  1.00000000E+00  3.34946043E-02  2.34726953E-01  8.13757326E-01  1.00000000E+00
  3.34946043E-02  2.34726953E-01  8.13757326E-01  1.00000000E+00  3.34946043E-02
  2.34726953E-01  8.13757326E-01  1.00000000E+00  3.34946043E-02  2.34726953E-01
  8.13757326E-01  1.00000000E+00
P(S=P) Contraction coefficients            R   N=         142
  0.00000000E+00  0.00000000E+00  0.00000000E+00  0.00000000E+00  0.00000000E+00
  0.00000000E+00  6.89990666E-02  3.16423961E-01  7.44308291E-01  1.00000000E+00
  0.00000000E+00  0.00000000E+00  0.00000000E+00  0.00000000E+00  0.00000000E+00
  0.00000000E+00  0.00000000E+00  6.89990666E-02  3.16423961E-01  7.44308291E-01
  1.00000000E+00  0.00000000E+00  0.00000000E+00  0.00000000E+00  0.00000000E+00
  0.00000000E+00  0.00000000E+00  0.00000000E+00  6.89990666E-02  3.16423961E-01
  7.44308291E-01  1.00000000E+00  0.00000000E+00  0.00000000E+00  0.00000000E+00
  0.00000000E+00  0.00000000E+00  0.00000000E+00  0.00000000E+00  6.89990666E-02
  3.16423961E-01  7.44308291E-01  1.00000000E+00  0.00000000E+00  0.00000000E+00
  0.00000000E+00  0.00000000E+00  0.00000000E+00  0.00000000E+00  0.00000000E+00
  6.89990666E-02  3.16423961E-01  7.44308291E-01  1.00000000E+00  0.00000000E+00
  0.00000000E+00  0.00000000E+00  0.00000000E+00  0.00000000E+00  0.00000000E+00
  0.00000000E+00  6.89990666E-02  3.16423961E-01  7.44308291E-01  1.00000000E+00
  0.00000000E+00  0.00000000E+00  0.00000000E+00  0.00000000E+00  0.00000000E+00
  0.00000000E+00  0.00000000E+00  6.89990666E-02  3.16423961E-01  7.44308291E-01
  1.00000000E+00  0.00000000E+00  0.00000000E+00  0.00000000E+00  0.00000000E+00
  0.00000000E+00  0.00000000E+00  0.00000000E+00  6.89990666E-02  3.16423961E-01
  7.44308291E-01  1.00000000E+00  0.00000000E+00  0.00000000E+00  0.00000000E+00
  0.00000000E+00  0.00000000E+00  0.00000000E+00  0.00000000E+00  6.89990666E-02
  3.16423961E-01  7.44308291E-01  1.00000000E+00  0.00000000E+00  0.00000000E+00
  0.00000000E+00  0.00000000E+00  0.00000000E+00  0.00000000E+00  0.00000000E+00
  6.89990666E-02  3.16423961E-01  7.44308291E-01  1.00000000E+00  0.00000000E+00
  0.00000000E+00  0.00000000E+00  0.00000000E+00  0.00000000E+00  0.00000000E+00
  0.00000000E+00  0.00000000E+00  0.00000000E+00  0.00000000E+00  0.00000000E+00
  0.00000000E+00  0.00000000E+00  0.00000000E+00  0.00000000E+00  0.00000000E+00
  0.00000000E+00  0.00000000E+00  0.00000000E+00  0.00000000E+00  0.00000000E+00
  0.00000000E+00  0.00000000E+00  0.00000000E+00  0.00000000E+00  0.00000000E+00
  0.00000000E+00  0.00000000E+00  0.00000000E+00  0.00000000E+00  0.00000000E+00
  0.00000000E+00  0.00000000E+00
Coordinates of each shell                  R   N=         168
 -2.34607563E+00 -2.65211895E+00 -7.32484410E-03 -2.34607563E+00 -2.65211895E+00
 -7.32484410E-03 -2.34607563E+00 -2.65211895E+00 -7.32484410E-03 -2.34607563E+00
 -2.65211895E+00 -7.32484410E-03 -4.59660648E+00 -1.33661035E+00  5.49863188E-03
 -4.59660648E+00 -1.33661035E+00  5.49863188E-03 -4.59660648E+00 -1.33661035E+00
  5.49863188E-03 -4.59660648E+00 -1.33661035E+00  5.49863188E-03 -4.59660648E+00
  1.33661035E+00 -5.49873814E-03 -4.59660648E+00  1.33661035E+00 -5.49873814E-03
 -4.59660648E+00  1.33661035E+00 -5.49873814E-03 -4.59660648E+00  1.33661035E+00
 -5.49873814E-03 -2.34607562E+00  2.65211895E+00  7.32478967E-03 -2.34607562E+00
  2.65211895E+00  7.32478967E-03 -2.34607562E+00  2.65211895E+00  7.32478967E-03
 -2.34607562E+00  2.65211895E+00  7.32478967E-03  0.00000000E+00  1.35340226E+00
 -1.64634883E-02  0.00000000E+00  1.35340226E+00 -1.64634883E-02  0.00000000E+00
  1.35340226E+00 -1.64634883E-02  0.00000000E+00  1.35340226E+00 -1.64634883E-02
  2.34607563E+00  2.65211895E+00  7.32484410E-03  2.34607563E+00  2.65211895E+00
  7.32484410E-03  2.34607563E+00  2.65211895E+00  7.32484410E-03  2.34607563E+00
  2.65211895E+00  7.32484410E-03  4.59660648E+00  1.33661035E+00 -5.49863188E-03
  4.59660648E+00  1.33661035E+00 -5.49863188E-03  4.59660648E+00  1.33661035E+00
 -5.49863188E-03  4.59660648E+00  1.33661035E+00 -5.49863188E-03  4.59660648E+00
 -1.33661035E+00  5.49873814E-03  4.59660648E+00 -1.33661035E+00  5.49873814E-03
  4.59660648E+00 -1.33661035E+00  5.49873814E-03  4.59660648E+00 -1.33661035E+00
  5.49873814E-03  2.34607562E+00 -2.65211895E+00 -7.32478967E-03  2.34607562E+00
 -2.65211895E+00 -7.32478967E-03  2.34607562E+00 -2.65211895E+00 -7.32478967E-03
  2.34607562E+00 -2.65211895E+00 -7.32478967E-03  0.00000000E+00 -1.35340226E+00
  1.64634883E-02  0.00000000E+00 -1.35340226E+00  1.64634883E-02  0.00000000E+00
 -1.35340226E+00  1.64634883E-02  0.00000000E+00 -1.35340226E+00  1.64634883E-02
 -2.34435631E+00 -4.71029139E+00  3.37243887E-03 -2.34435631E+00 -4.71029139E+00
  3.37243887E-03 -6.38185059E+00 -2.35490566E+00 -6.34533535E-03 -6.38185059E+00
 -2.35490566E+00 -6.34533535E-03 -6.38185059E+00  2.35490566E+00  6.34518844E-03
 -6.38185059E+00  2.35490566E+00  6.34518844E-03 -2.34435631E+00  4.71029139E+00
 -3.37249261E-03 -2.34435631E+00  4.71029139E+00 -3.37249261E-03  2.34435631E+00
  4.71029139E+00 -3.37243887E-03  2.34435631E+00  4.71029139E+00 -3.37243887E-03
  6.38185059E+00  2.35490566E+00  6.34533535E-03  6.38185059E+00  2.35490566E+00
  6.34533535E-03  6.38185059E+00 -2.35490566E+00 -6.34518844E-03  6.38185059E+00
 -2.35490566E+00 -6.34518844E-03  2.34435631E+00 -4.71029139E+00  3.37249261E-03
  2.34435631E+00 -4.71029139E+00  3.37249261E-03
Constraint Structure                       R   N=          54
 -2.34607563E+00 -2.65211895E+00 -7.32484410E-03 -4.59660648E+00 -1.33661035E+00
  5.49863188E-03 -4.59660648E+00  1.33661035E+00 -5.49873814E-03 -2.34607562E+00
  2.65211895E+00  7.32478967E-03  0.00000000E+00  1.35340226E+00 -1.64634883E-02
  2.34607563E+00  2.65211895E+00  7.32484410E-03  4.59660648E+00  1.33661035E+00
 -5.49863188E-03  4.59660648E+00 -1.33661035E+00  5.49873814E-03  2.34607562E+00
 -2.65211895E+00 -7.32478967E-03  0.00000000E+00 -1.35340226E+00  1.64634883E-02
 -2.34435631E+00 -4.71029139E+00  3.37243887E-03 -6.38185059E+00 -2.35490566E+00
 -6.34533535E-03 -6.38185059E+00  2.35490566E+00  6.34518844E-03 -2.34435631E+00
  4.71029139E+00 -3.37249261E-03  2.34435631E+00  4.71029139E+00 -3.37243887E-03
  6.38185059E+00  2.35490566E+00  6.34533535E-03  6.38185059E+00 -2.35490566E+00
 -6.34518844E-03  2.34435631E+00 -4.71029139E+00  3.37249261E-03
Num ILSW                                   I              100
ILSW                                       I   N=         100
           0           1           0           1           2           0
           0           0           0           0           0          -1
           0           0           0           0           0           0
           0           0           0           0           1           0
           1           0           0           0           0           0
           0           0      100000           0          -1           0
           0           0           0           0           0           0
           0           0           0           1           1           0
           0           0           1           0           0           0
           0           0           4          40           0           0
           0           0           0           0           0           0
           0           0           0           0           0           0
           0           0           0           0           0           0
           0           0           0           0           0           0
           0           0           0           0           0           0
           0           0           0           0           0           0
           0           0           0           0
Num RLSW                                   I               40
RLSW                                       R   N=          40
  1.00000000E+00  1.00000000E+00  1.00000000E+00  1.00000000E+00  1.00000000E+00
  0.00000000E+00  0.00000000E+00  1.00000000E+00  0.00000000E+00  0.00000000E+00
  0.00000000E+00  0.00000000E+00  1.00000000E+00  0.00000000E+00  0.00000000E+00
  0.00000000E+00  0.00000000E+00  1.00000000E+00  0.00000000E+00  0.00000000E+00
  0.00000000E+00  0.00000000E+00  1.00000000E+00  0.00000000E+00  0.00000000E+00
  0.00000000E+00  0.00000000E+00  1.00000000E+00  0.00000000E+00  0.00000000E+00
  0.00000000E+00  0.00000000E+00  0.00000000E+00  0.00000000E+00  0.00000000E+00
  0.00000000E+00  0.00000000E+00  0.00000000E+00  1.00000000E+00  1.00000000E+00
MxBond                                     I                3
NBond                                      I   N=          18
           3           3           3           3           3           3
           3           3           3           3           1           1
           1           1           1           1           1           1
IBond                                      I   N=          54
           2          10          11           1           3          12
           2           4          13           3           5          14
           4           6          10           5           7          15
           6           8          16           7           9          17
           8          10          18           1           5           9
           1           0           0           2           0           0
           3           0           0           4           0           0
           6           0           0           7           0           0
           8           0           0           9           0           0
RBond                                      R   N=          54
  1.50000000E+00  1.50000000E+00  1.00000000E+00  1.50000000E+00  1.50000000E+00
  1.00000000E+00  1.50000000E+00  1.50000000E+00  1.00000000E+00  1.50000000E+00
  1.50000000E+00  1.00000000E+00  1.50000000E+00  1.50000000E+00  1.00000000E+00
  1.50000000E+00  1.50000000E+00  1.00000000E+00  1.50000000E+00  1.50000000E+00
  1.00000000E+00  1.50000000E+00  1.50000000E+00  1.00000000E+00  1.50000000E+00
  1.50000000E+00  1.00000000E+00  1.50000000E+00  1.00000000E+00  1.50000000E+00
  1.00000000E+00  0.00000000E+00  0.00000000E+00  1.00000000E+00  0.00000000E+00
  0.00000000E+00  1.00000000E+00  0.00000000E+00  0.00000000E+00  1.00000000E+00
  0.00000000E+00  0.00000000E+00  1.00000000E+00  0.00000000E+00  0.00000000E+00
  1.00000000E+00  0.00000000E+00  0.00000000E+00  1.00000000E+00  0.00000000E+00
  0.00000000E+00  1.00000000E+00  0.00000000E+00  0.00000000E+00
Virial Ratio                               R      2.001999454161155E+00
SCF Energy                                 R     -3.833519685591967E+02
MP2 Energy                                 R     -3.846146576959602E+02
Total Energy                               R     -3.846146576959602E+02
Post-SCF wavefunction norm                 R      1.715666403698461E+00
RMS Force                                  R      4.529981239689510E-07
RMS Density                                R      1.103471354726310E-09
External E-field                           R   N=          35
  0.00000000E+00  0.00000000E+00  0.00000000E+00  0.00000000E+00  0.00000000E+00
  0.00000000E+00  0.00000000E+00  0.00000000E+00  0.00000000E+00  0.00000000E+00
  0.00000000E+00  0.00000000E+00  0.00000000E+00  0.00000000E+00  0.00000000E+00
  0.00000000E+00  0.00000000E+00  0.00000000E+00  0.00000000E+00  0.00000000E+00
  0.00000000E+00  0.00000000E+00  0.00000000E+00  0.00000000E+00  0.00000000E+00
  0.00000000E+00  0.00000000E+00  0.00000000E+00  0.00000000E+00  0.00000000E+00
  0.00000000E+00  0.00000000E+00  0.00000000E+00  0.00000000E+00  0.00000000E+00
IOpCl                                      I                0
IROHF                                      I                0
Alpha Orbital Energies                     R   N=         166
 -1.12424044E+01 -1.12414367E+01 -1.12368086E+01 -1.12367688E+01 -1.12364469E+01
 -1.12363515E+01 -1.12355176E+01 -1.12354666E+01 -1.12348589E+01 -1.12348373E+01
 -1.16933031E+00 -1.10229624E+00 -1.04448868E+00 -1.00260308E+00 -9.74269583E-01
 -8.48692177E-01 -8.29779544E-01 -8.05418567E-01 -7.01677309E-01 -6.92582058E-01
 -6.70484642E-01 -6.19268687E-01 -6.05146033E-01 -5.77781449E-01 -5.76986738E-01
 -5.58553807E-01 -5.26159982E-01 -5.19985565E-01 -4.82670357E-01 -4.72765620E-01
 -4.41214844E-01 -3.79378092E-01 -3.12918555E-01 -2.81406555E-01  9.63174328E-02
  1.29329077E-01  1.90246754E-01  2.37259629E-01  2.57404526E-01  2.63731291E-01
  2.86675415E-01  3.10088000E-01  3.15952191E-01  3.20705860E-01  3.36580717E-01
  3.55741727E-01  4.14689401E-01  4.15060054E-01  4.59739060E-01  4.89952850E-01
  4.91776713E-01  4.94166157E-01  5.08138650E-01  5.44701186E-01  6.68524000E-01
  7.21129679E-01  7.29338837E-01  7.39502757E-01  7.41892431E-01  7.46483280E-01
  7.52805317E-01  7.78449085E-01  7.92656671E-01  8.03186003E-01  8.10461181E-01
  8.27176517E-01  8.43726107E-01  8.48273908E-01  8.51260436E-01  8.51324523E-01
  8.56921353E-01  8.61342860E-01  8.64250507E-01  9.22052954E-01  9.35390244E-01
  9.35446918E-01  1.00487311E+00  1.08334066E+00  1.08949686E+00  1.09969910E+00
  1.10360779E+00  1.10681605E+00  1.12234393E+00  1.12899427E+00  1.14860247E+00
  1.15664131E+00  1.18470266E+00  1.19739000E+00  1.20465230E+00  1.24252648E+00
  1.25038419E+00  1.27832118E+00  1.27907377E+00  1.30044565E+00  1.34408666E+00
  1.40047479E+00  1.45204077E+00  1.45774131E+00  1.49185094E+00  1.50863132E+00
  1.53413909E+00  1.56504956E+00  1.65995013E+00  1.67248867E+00  1.69953863E+00
  1.71785247E+00  1.72961077E+00  1.75312445E+00  1.77206291E+00  1.77368002E+00
  1.77907813E+00  1.79157852E+00  1.79711002E+00  2.01236651E+00  2.07225172E+00
  2.07839413E+00  2.15341316E+00  2.16663270E+00  2.17243610E+00  2.21066220E+00
  2.24379636E+00  2.26387586E+00  2.26790487E+00  2.27415269E+00  2.30221597E+00
  2.35388064E+00  2.37549710E+00  2.44511035E+00  2.46518546E+00  2.47733458E+00
  2.51799017E+00  2.52099007E+00  2.52539778E+00  2.59871938E+00  2.60679129E+00
  2.62650826E+00  2.65609663E+00  2.66407516E+00  2.70829062E+00  2.74592721E+00
  2.94797524E+00  2.95786689E+00  2.95902465E+00  2.96288056E+00  2.98110915E+00
  3.01625975E+00  3.05766049E+00  3.09362170E+00  3.12918476E+00  3.19590717E+00
  3.20022093E+00  3.24648389E+00  3.30819886E+00  3.45161830E+00  3.73275887E+00
  3.85279308E+00  4.50862712E+00  4.51867538E+00  4.54267534E+00  4.54597696E+00
  4.57244559E+00  4.68492024E+00  4.77449929E+00  4.82460384E+00  4.94069062E+00
  5.23062567E+00
Alpha MO coefficients                      R   N=       27556
  5.65599151E-02  1.46907223E-03 -9.39026298E-05 -8.84339319E-05  1.50649564E-06
  1.63484852E-03  8.13634899E-04  3.66466489E-04 -3.61576769E-05 -4.06016637E-04
 -2.87132540E-04 -2.18070932E-04 -8.74197781E-05 -6.33593459E-06 -7.21973273E-06
  4.43186489E-03 -1.35398956E-07 -3.68435740E-05 -1.80705044E-05 -2.21600021E-06
  7.87779668E-05  1.41916791E-04 -4.08352523E-06  2.24342313E-05  4.67588047E-05
 -1.49332387E-06 -5.05666865E-05 -8.27006677E-06  2.12508029E-06  6.42562643E-07
  4.43186485E-03 -1.35400300E-07 -3.68435739E-05  1.80705045E-05  2.21599935E-06
  7.87779652E-05  1.41916791E-04  4.08352526E-06 -2.24342280E-05  4.67588053E-05
 -1.49332366E-06 -5.05666864E-05  8.27006682E-06 -2.12507769E-06  6.42562827E-07
  5.65599146E-02  1.46907221E-03 -9.39026301E-05  8.84339322E-05 -1.50649781E-06
  1.63484853E-03  8.13634900E-04 -3.66466490E-04  3.61576958E-05 -4.06016636E-04
 -2.87132539E-04 -2.18070931E-04  8.74197778E-05  6.33592954E-06 -7.21973069E-06
  6.99259614E-01  1.94055576E-02 -6.05508647E-13  7.79851014E-05  2.34904835E-05
 -6.49579762E-03  3.08865884E-12 -8.06212382E-04 -1.07495655E-04 -1.24488799E-03
 -1.51940497E-03 -1.69127941E-03 -8.82531073E-13  5.95877374E-12  7.96956637E-06
  5.65599151E-02  1.46907223E-03  9.39026298E-05  8.84339319E-05 -1.50649564E-06
  1.63484852E-03 -8.13634899E-04 -3.66466489E-04  3.61576769E-05 -4.06016637E-04
 -2.87132540E-04 -2.18070932E-04 -8.74197781E-05 -6.33593459E-06 -7.21973273E-06
  4.43186489E-03 -1.35398956E-07  3.68435740E-05  1.80705044E-05  2.21600021E-06
  7.87779668E-05 -1.41916791E-04  4.08352523E-06 -2.24342313E-05  4.67588047E-05
 -1.49332387E-06 -5.05666865E-05 -8.27006677E-06  2.12508029E-06  6.42562643E-07
  4.43186485E-03 -1.35400300E-07  3.68435739E-05 -1.80705045E-05 -2.21599935E-06
  7.87779652E-05 -1.41916791E-04 -4.08352526E-06  2.24342280E-05  4.67588053E-05
 -1.49332366E-06 -5.05666864E-05  8.27006682E-06 -2.12507769E-06  6.42562827E-07
  5.65599146E-02  1.46907221E-03  9.39026301E-05 -8.84339322E-05  1.50649781E-06
  1.63484853E-03 -8.13634900E-04  3.66466490E-04 -3.61576958E-05 -4.06016636E-04
 -2.87132539E-04 -2.18070931E-04  8.74197778E-05  6.33592954E-06 -7.21973069E-06
  6.99259614E-01  1.94055576E-02  6.05508647E-13 -7.79851014E-05 -2.34904835E-05
 -6.49579762E-03 -3.08865884E-12  8.06212382E-04  1.07495655E-04 -1.24488799E-03