064_Cyclohexane Gaussian SP Calculation on g2-node38.bme.utexas.edu     
Freq      RMP2-FC                                                     6-31G(d)            
Number of atoms                            I               18
Info1-9                                    I   N=           9
          29          28        1002           0           0         100
           6           2           1
Charge                                     I                0
Multiplicity                               I                1
Number of electrons                        I               48
Number of alpha electrons                  I               24
Number of beta electrons                   I               24
Number of basis functions                  I              114
Number of independent functions            I              114
Number of point charges in /Mol/           I                0
Number of translation vectors              I                0
Atomic numbers                             I   N=          18
           6           6           6           6           6           6
           1           1           1           1           1           1
           1           1           1           1           1           1
Nuclear charges                            R   N=          18
  6.00000000E+00  6.00000000E+00  6.00000000E+00  6.00000000E+00  6.00000000E+00
  6.00000000E+00  1.00000000E+00  1.00000000E+00  1.00000000E+00  1.00000000E+00
  1.00000000E+00  1.00000000E+00  1.00000000E+00  1.00000000E+00  1.00000000E+00
  1.00000000E+00  1.00000000E+00  1.00000000E+00
Current cartesian coordinates              R   N=          54
  2.69374180E+00  5.68273654E-01  4.39725840E-01  8.54731372E-01  2.61698558E+00
 -4.39723974E-01 -1.83901098E+00  2.04871167E+00  4.39724226E-01 -2.69374193E+00
 -5.68274662E-01 -4.39726420E-01 -8.54730696E-01 -2.61698566E+00  4.39728421E-01
  1.83901051E+00 -2.04871176E+00 -4.39728014E-01  2.79406319E+00  5.89432424E-01
  2.51361164E+00  4.60551141E+00  9.71585034E-01 -2.51567119E-01  1.46133956E+00
  4.47428019E+00  2.51573918E-01  8.86566134E-01  2.71445222E+00 -2.51360949E+00
 -1.90750482E+00  2.12501037E+00  2.51360974E+00 -3.14416881E+00  3.50269947E+00
 -2.51572856E-01 -4.60551357E+00 -9.71580947E-01  2.51564223E-01 -2.79405817E+00
 -5.89442915E-01 -2.51361210E+00 -8.86558564E-01 -2.71443880E+00  2.51361432E+00
 -1.46134160E+00 -4.47428409E+00 -2.51556602E-01  3.14417433E+00 -3.50269941E+00
  2.51557883E-01  1.90749050E+00 -2.12500645E+00 -2.51361403E+00
Force Field                                I                0
Int Atom Types                             I   N=          18
           0           0           0           0           0           0
           0           0           0           0           0           0
           0           0           0           0           0           0
MM charges                                 R   N=          18
  0.00000000E+00  0.00000000E+00  0.00000000E+00  0.00000000E+00  0.00000000E+00
  0.00000000E+00  0.00000000E+00  0.00000000E+00  0.00000000E+00  0.00000000E+00
  0.00000000E+00  0.00000000E+00  0.00000000E+00  0.00000000E+00  0.00000000E+00
  0.00000000E+00  0.00000000E+00  0.00000000E+00
Integer atomic weights                     I   N=          18
          12          12          12          12          12          12
           1           1           1           1           1           1
           1           1           1           1           1           1
Real atomic weights                        R   N=          18
  1.20000000E+01  1.20000000E+01  1.20000000E+01  1.20000000E+01  1.20000000E+01
  1.20000000E+01  1.00782504E+00  1.00782504E+00  1.00782504E+00  1.00782504E+00
  1.00782504E+00  1.00782504E+00  1.00782504E+00  1.00782504E+00  1.00782504E+00
  1.00782504E+00  1.00782504E+00  1.00782504E+00
Atom fragment info                         I   N=          18
           0           0           0           0           0           0
           0           0           0           0           0           0
           0           0           0           0           0           0
Atom residue num                           I   N=          18
           0           0           0           0           0           0
           0           0           0           0           0           0
           0           0           0           0           0           0
Nuclear spins                              I   N=          18
           0           0           0           0           0           0
           1           1           1           1           1           1
           1           1           1           1           1           1
Nuclear ZEff                               R   N=          18
 -3.60000000E+00 -3.60000000E+00 -3.60000000E+00 -3.60000000E+00 -3.60000000E+00
 -3.60000000E+00 -1.00000000E+00 -1.00000000E+00 -1.00000000E+00 -1.00000000E+00
 -1.00000000E+00 -1.00000000E+00 -1.00000000E+00 -1.00000000E+00 -1.00000000E+00
 -1.00000000E+00 -1.00000000E+00 -1.00000000E+00
Nuclear QMom                               R   N=          18
  0.00000000E+00  0.00000000E+00  0.00000000E+00  0.00000000E+00  0.00000000E+00
  0.00000000E+00  0.00000000E+00  0.00000000E+00  0.00000000E+00  0.00000000E+00
  0.00000000E+00  0.00000000E+00  0.00000000E+00  0.00000000E+00  0.00000000E+00
  0.00000000E+00  0.00000000E+00  0.00000000E+00
Nuclear GFac                               R   N=          18
  0.00000000E+00  0.00000000E+00  0.00000000E+00  0.00000000E+00  0.00000000E+00
  0.00000000E+00  2.79284600E+00  2.79284600E+00  2.79284600E+00  2.79284600E+00
  2.79284600E+00  2.79284600E+00  2.79284600E+00  2.79284600E+00  2.79284600E+00
  2.79284600E+00  2.79284600E+00  2.79284600E+00
MicOpt                                     I   N=          18
          -1          -1          -1          -1          -1          -1
          -1          -1          -1          -1          -1          -1
          -1          -1          -1          -1          -1          -1
Number of contracted shells                I               48
Number of primitive shells                 I              114
Pure/Cartesian d shells                    I                1
Pure/Cartesian f shells                    I                0
Highest angular momentum                   I                2
Largest degree of contraction              I                6
Shell types                                I   N=          48
           0          -1          -1           2           0          -1
          -1           2           0          -1          -1           2
           0          -1          -1           2           0          -1
          -1           2           0          -1          -1           2
           0           0           0           0           0           0
           0           0           0           0           0           0
           0           0           0           0           0           0
           0           0           0           0           0           0
Number of primitives per shell             I   N=          48
           6           3           1           1           6           3
           1           1           6           3           1           1
           6           3           1           1           6           3
           1           1           6           3           1           1
           3           1           3           1           3           1
           3           1           3           1           3           1
           3           1           3           1           3           1
           3           1           3           1           3           1
Shell to atom map                          I   N=          48
           1           1           1           1           2           2
           2           2           3           3           3           3
           4           4           4           4           5           5
           5           5           6           6           6           6
           7           7           8           8           9           9
          10          10          11          11          12          12
          13          13          14          14          15          15
          16          16          17          17          18          18
Primitive exponents                        R   N=         114
  3.04752488E+03  4.57369518E+02  1.03948685E+02  2.92101553E+01  9.28666296E+00
  3.16392696E+00  7.86827235E+00  1.88128854E+00  5.44249258E-01  1.68714478E-01
  8.00000000E-01  3.04752488E+03  4.57369518E+02  1.03948685E+02  2.92101553E+01
  9.28666296E+00  3.16392696E+00  7.86827235E+00  1.88128854E+00  5.44249258E-01
  1.68714478E-01  8.00000000E-01  3.04752488E+03  4.57369518E+02  1.03948685E+02
  2.92101553E+01  9.28666296E+00  3.16392696E+00  7.86827235E+00  1.88128854E+00
  5.44249258E-01  1.68714478E-01  8.00000000E-01  3.04752488E+03  4.57369518E+02
  1.03948685E+02  2.92101553E+01  9.28666296E+00  3.16392696E+00  7.86827235E+00
  1.88128854E+00  5.44249258E-01  1.68714478E-01  8.00000000E-01  3.04752488E+03
  4.57369518E+02  1.03948685E+02  2.92101553E+01  9.28666296E+00  3.16392696E+00
  7.86827235E+00  1.88128854E+00  5.44249258E-01  1.68714478E-01  8.00000000E-01
  3.04752488E+03  4.57369518E+02  1.03948685E+02  2.92101553E+01  9.28666296E+00
  3.16392696E+00  7.86827235E+00  1.88128854E+00  5.44249258E-01  1.68714478E-01
  8.00000000E-01  1.87311370E+01  2.82539436E+00  6.40121692E-01  1.61277759E-01
  1.87311370E+01  2.82539436E+00  6.40121692E-01  1.61277759E-01  1.87311370E+01
  2.82539436E+00  6.40121692E-01  1.61277759E-01  1.87311370E+01  2.82539436E+00
  6.40121692E-01  1.61277759E-01  1.87311370E+01  2.82539436E+00  6.40121692E-01
  1.61277759E-01  1.87311370E+01  2.82539436E+00  6.40121692E-01  1.61277759E-01
  1.87311370E+01  2.82539436E+00  6.40121692E-01  1.61277759E-01  1.87311370E+01
  2.82539436E+00  6.40121692E-01  1.61277759E-01  1.87311370E+01  2.82539436E+00
  6.40121692E-01  1.61277759E-01  1.87311370E+01  2.82539436E+00  6.40121692E-01
  1.61277759E-01  1.87311370E+01  2.82539436E+00  6.40121692E-01  1.61277759E-01
  1.87311370E+01  2.82539436E+00  6.40121692E-01  1.61277759E-01
Contraction coefficients                   R   N=         114
  1.83473713E-03  1.40373228E-02  6.88426223E-02  2.32184443E-01  4.67941348E-01
  3.62311985E-01 -1.19332420E-01 -1.60854152E-01  1.14345644E+00  1.00000000E+00
  1.00000000E+00  1.83473713E-03  1.40373228E-02  6.88426223E-02  2.32184443E-01
  4.67941348E-01  3.62311985E-01 -1.19332420E-01 -1.60854152E-01  1.14345644E+00
  1.00000000E+00  1.00000000E+00  1.83473713E-03  1.40373228E-02  6.88426223E-02
  2.32184443E-01  4.67941348E-01  3.62311985E-01 -1.19332420E-01 -1.60854152E-01
  1.14345644E+00  1.00000000E+00  1.00000000E+00  1.83473713E-03  1.40373228E-02
  6.88426223E-02  2.32184443E-01  4.67941348E-01  3.62311985E-01 -1.19332420E-01
 -1.60854152E-01  1.14345644E+00  1.00000000E+00  1.00000000E+00  1.83473713E-03
  1.40373228E-02  6.88426223E-02  2.32184443E-01  4.67941348E-01  3.62311985E-01
 -1.19332420E-01 -1.60854152E-01  1.14345644E+00  1.00000000E+00  1.00000000E+00
  1.83473713E-03  1.40373228E-02  6.88426223E-02  2.32184443E-01  4.67941348E-01
  3.62311985E-01 -1.19332420E-01 -1.60854152E-01  1.14345644E+00  1.00000000E+00
  1.00000000E+00  3.34946043E-02  2.34726953E-01  8.13757326E-01  1.00000000E+00
  3.34946043E-02  2.34726953E-01  8.13757326E-01  1.00000000E+00  3.34946043E-02
  2.34726953E-01  8.13757326E-01  1.00000000E+00  3.34946043E-02  2.34726953E-01
  8.13757326E-01  1.00000000E+00  3.34946043E-02  2.34726953E-01  8.13757326E-01
  1.00000000E+00  3.34946043E-02  2.34726953E-01  8.13757326E-01  1.00000000E+00
  3.34946043E-02  2.34726953E-01  8.13757326E-01  1.00000000E+00  3.34946043E-02
  2.34726953E-01  8.13757326E-01  1.00000000E+00  3.34946043E-02  2.34726953E-01
  8.13757326E-01  1.00000000E+00  3.34946043E-02  2.34726953E-01  8.13757326E-01
  1.00000000E+00  3.34946043E-02  2.34726953E-01  8.13757326E-01  1.00000000E+00
  3.34946043E-02  2.34726953E-01  8.13757326E-01  1.00000000E+00
P(S=P) Contraction coefficients            R   N=         114
  0.00000000E+00  0.00000000E+00  0.00000000E+00  0.00000000E+00  0.00000000E+00
  0.00000000E+00  6.89990666E-02  3.16423961E-01  7.44308291E-01  1.00000000E+00
  0.00000000E+00  0.00000000E+00  0.00000000E+00  0.00000000E+00  0.00000000E+00
  0.00000000E+00  0.00000000E+00  6.89990666E-02  3.16423961E-01  7.44308291E-01
  1.00000000E+00  0.00000000E+00  0.00000000E+00  0.00000000E+00  0.00000000E+00
  0.00000000E+00  0.00000000E+00  0.00000000E+00  6.89990666E-02  3.16423961E-01
  7.44308291E-01  1.00000000E+00  0.00000000E+00  0.00000000E+00  0.00000000E+00
  0.00000000E+00  0.00000000E+00  0.00000000E+00  0.00000000E+00  6.89990666E-02
  3.16423961E-01  7.44308291E-01  1.00000000E+00  0.00000000E+00  0.00000000E+00
  0.00000000E+00  0.00000000E+00  0.00000000E+00  0.00000000E+00  0.00000000E+00
  6.89990666E-02  3.16423961E-01  7.44308291E-01  1.00000000E+00  0.00000000E+00
  0.00000000E+00  0.00000000E+00  0.00000000E+00  0.00000000E+00  0.00000000E+00
  0.00000000E+00  6.89990666E-02  3.16423961E-01  7.44308291E-01  1.00000000E+00
  0.00000000E+00  0.00000000E+00  0.00000000E+00  0.00000000E+00  0.00000000E+00
  0.00000000E+00  0.00000000E+00  0.00000000E+00  0.00000000E+00  0.00000000E+00
  0.00000000E+00  0.00000000E+00  0.00000000E+00  0.00000000E+00  0.00000000E+00
  0.00000000E+00  0.00000000E+00  0.00000000E+00  0.00000000E+00  0.00000000E+00
  0.00000000E+00  0.00000000E+00  0.00000000E+00  0.00000000E+00  0.00000000E+00
  0.00000000E+00  0.00000000E+00  0.00000000E+00  0.00000000E+00  0.00000000E+00
  0.00000000E+00  0.00000000E+00  0.00000000E+00  0.00000000E+00  0.00000000E+00
  0.00000000E+00  0.00000000E+00  0.00000000E+00  0.00000000E+00  0.00000000E+00
  0.00000000E+00  0.00000000E+00  0.00000000E+00  0.00000000E+00  0.00000000E+00
  0.00000000E+00  0.00000000E+00  0.00000000E+00  0.00000000E+00
Coordinates of each shell                  R   N=         144
  2.69374180E+00  5.68273654E-01  4.39725840E-01  2.69374180E+00  5.68273654E-01
  4.39725840E-01  2.69374180E+00  5.68273654E-01  4.39725840E-01  2.69374180E+00
  5.68273654E-01  4.39725840E-01  8.54731372E-01  2.61698558E+00 -4.39723974E-01
  8.54731372E-01  2.61698558E+00 -4.39723974E-01  8.54731372E-01  2.61698558E+00
 -4.39723974E-01  8.54731372E-01  2.61698558E+00 -4.39723974E-01 -1.83901098E+00
  2.04871167E+00  4.39724226E-01 -1.83901098E+00  2.04871167E+00  4.39724226E-01
 -1.83901098E+00  2.04871167E+00  4.39724226E-01 -1.83901098E+00  2.04871167E+00
  4.39724226E-01 -2.69374193E+00 -5.68274662E-01 -4.39726420E-01 -2.69374193E+00
 -5.68274662E-01 -4.39726420E-01 -2.69374193E+00 -5.68274662E-01 -4.39726420E-01
 -2.69374193E+00 -5.68274662E-01 -4.39726420E-01 -8.54730696E-01 -2.61698566E+00
  4.39728421E-01 -8.54730696E-01 -2.61698566E+00  4.39728421E-01 -8.54730696E-01
 -2.61698566E+00  4.39728421E-01 -8.54730696E-01 -2.61698566E+00  4.39728421E-01
  1.83901051E+00 -2.04871176E+00 -4.39728014E-01  1.83901051E+00 -2.04871176E+00
 -4.39728014E-01  1.83901051E+00 -2.04871176E+00 -4.39728014E-01  1.83901051E+00
 -2.04871176E+00 -4.39728014E-01  2.79406319E+00  5.89432424E-01  2.51361164E+00
  2.79406319E+00  5.89432424E-01  2.51361164E+00  4.60551141E+00  9.71585034E-01
 -2.51567119E-01  4.60551141E+00  9.71585034E-01 -2.51567119E-01  1.46133956E+00
  4.47428019E+00  2.51573918E-01  1.46133956E+00  4.47428019E+00  2.51573918E-01
  8.86566134E-01  2.71445222E+00 -2.51360949E+00  8.86566134E-01  2.71445222E+00
 -2.51360949E+00 -1.90750482E+00  2.12501037E+00  2.51360974E+00 -1.90750482E+00
  2.12501037E+00  2.51360974E+00 -3.14416881E+00  3.50269947E+00 -2.51572856E-01
 -3.14416881E+00  3.50269947E+00 -2.51572856E-01 -4.60551357E+00 -9.71580947E-01
  2.51564223E-01 -4.60551357E+00 -9.71580947E-01  2.51564223E-01 -2.79405817E+00
 -5.89442915E-01 -2.51361210E+00 -2.79405817E+00 -5.89442915E-01 -2.51361210E+00
 -8.86558564E-01 -2.71443880E+00  2.51361432E+00 -8.86558564E-01 -2.71443880E+00
  2.51361432E+00 -1.46134160E+00 -4.47428409E+00 -2.51556602E-01 -1.46134160E+00
 -4.47428409E+00 -2.51556602E-01  3.14417433E+00 -3.50269941E+00  2.51557883E-01
  3.14417433E+00 -3.50269941E+00  2.51557883E-01  1.90749050E+00 -2.12500645E+00
 -2.51361403E+00  1.90749050E+00 -2.12500645E+00 -2.51361403E+00
Constraint Structure                       R   N=          54
  2.69374180E+00  5.68273654E-01  4.39725840E-01  8.54731372E-01  2.61698558E+00
 -4.39723974E-01 -1.83901098E+00  2.04871167E+00  4.39724226E-01 -2.69374193E+00
 -5.68274662E-01 -4.39726420E-01 -8.54730696E-01 -2.61698566E+00  4.39728421E-01
  1.83901051E+00 -2.04871176E+00 -4.39728014E-01  2.79406319E+00  5.89432424E-01
  2.51361164E+00  4.60551141E+00  9.71585034E-01 -2.51567119E-01  1.46133956E+00
  4.47428019E+00  2.51573918E-01  8.86566134E-01  2.71445222E+00 -2.51360949E+00
 -1.90750482E+00  2.12501037E+00  2.51360974E+00 -3.14416881E+00  3.50269947E+00
 -2.51572856E-01 -4.60551357E+00 -9.71580947E-01  2.51564223E-01 -2.79405817E+00
 -5.89442915E-01 -2.51361210E+00 -8.86558564E-01 -2.71443880E+00  2.51361432E+00
 -1.46134160E+00 -4.47428409E+00 -2.51556602E-01  3.14417433E+00 -3.50269941E+00
  2.51557883E-01  1.90749050E+00 -2.12500645E+00 -2.51361403E+00
Num ILSW                                   I              100
ILSW                                       I   N=         100
           0           1           0           0           2           0
           0           0           0           0           0          -1
           0           0           0           0           0           0
           0           0           0           0           1           0
           1           0           0           0           0           0
           0           0      100000           0          -1           0
           0           0           0           0           0           0
           0           0           0           1           1           0
           0           0           1           0           0           0
           0           0           4          40           0           0
           0           0           0           0           0           0
           0           0           0           0           0           0
           0           0           0           0           0           0
           0           0           0           0           0           0
           0           0           0           0           0           0
           0           0           0           0           0           0
           0           0           0           0
Num RLSW                                   I               40
RLSW                                       R   N=          40
  1.00000000E+00  1.00000000E+00  1.00000000E+00  1.00000000E+00  1.00000000E+00
  0.00000000E+00  0.00000000E+00  1.00000000E+00  0.00000000E+00  0.00000000E+00
  0.00000000E+00  0.00000000E+00  1.00000000E+00  0.00000000E+00  0.00000000E+00
  0.00000000E+00  0.00000000E+00  1.00000000E+00  0.00000000E+00  0.00000000E+00
  0.00000000E+00  0.00000000E+00  1.00000000E+00  0.00000000E+00  0.00000000E+00
  0.00000000E+00  0.00000000E+00  1.00000000E+00  0.00000000E+00  0.00000000E+00
  0.00000000E+00  0.00000000E+00  0.00000000E+00  0.00000000E+00  0.00000000E+00
  0.00000000E+00  0.00000000E+00  0.00000000E+00  1.00000000E+00  1.00000000E+00
MxBond                                     I                4
NBond                                      I   N=          18
           4           4           4           4           4           4
           1           1           1           1           1           1
           1           1           1           1           1           1
IBond                                      I   N=          72
           2           6           7           8           1           3
           9          10           2           4          11          12
           3           5          13          14           4           6
          15          16           1           5          17          18
           1           0           0           0           1           0
           0           0           2           0           0           0
           2           0           0           0           3           0
           0           0           3           0           0           0
           4           0           0           0           4           0
           0           0           5           0           0           0
           5           0           0           0           6           0
           0           0           6           0           0           0
RBond                                      R   N=          72
  1.00000000E+00  1.00000000E+00  1.00000000E+00  1.00000000E+00  1.00000000E+00
  1.00000000E+00  1.00000000E+00  1.00000000E+00  1.00000000E+00  1.00000000E+00
  1.00000000E+00  1.00000000E+00  1.00000000E+00  1.00000000E+00  1.00000000E+00
  1.00000000E+00  1.00000000E+00  1.00000000E+00  1.00000000E+00  1.00000000E+00
  1.00000000E+00  1.00000000E+00  1.00000000E+00  1.00000000E+00  1.00000000E+00
  0.00000000E+00  0.00000000E+00  0.00000000E+00  1.00000000E+00  0.00000000E+00
  0.00000000E+00  0.00000000E+00  1.00000000E+00  0.00000000E+00  0.00000000E+00
  0.00000000E+00  1.00000000E+00  0.00000000E+00  0.00000000E+00  0.00000000E+00
  1.00000000E+00  0.00000000E+00  0.00000000E+00  0.00000000E+00  1.00000000E+00
  0.00000000E+00  0.00000000E+00  0.00000000E+00  1.00000000E+00  0.00000000E+00
  0.00000000E+00  0.00000000E+00  1.00000000E+00  0.00000000E+00  0.00000000E+00
  0.00000000E+00  1.00000000E+00  0.00000000E+00  0.00000000E+00  0.00000000E+00
  1.00000000E+00  0.00000000E+00  0.00000000E+00  0.00000000E+00  1.00000000E+00
  0.00000000E+00  0.00000000E+00  0.00000000E+00  1.00000000E+00  0.00000000E+00
  0.00000000E+00  0.00000000E+00
Virial Ratio                               R      2.000912897287592E+00
SCF Energy                                 R     -2.342071600193178E+02
MP2 Energy                                 R     -2.349924314789842E+02
Total Energy                               R     -2.349924314789842E+02
Post-SCF wavefunction norm                 R      1.589328704350960E+00
RMS Force                                  R      3.981759559996546E-07
RMS Density                                R      1.331883799644707E-09
External E-field                           R   N=          35
  0.00000000E+00  0.00000000E+00  0.00000000E+00  0.00000000E+00  0.00000000E+00
  0.00000000E+00  0.00000000E+00  0.00000000E+00  0.00000000E+00  0.00000000E+00
  0.00000000E+00  0.00000000E+00  0.00000000E+00  0.00000000E+00  0.00000000E+00
  0.00000000E+00  0.00000000E+00  0.00000000E+00  0.00000000E+00  0.00000000E+00
  0.00000000E+00  0.00000000E+00  0.00000000E+00  0.00000000E+00  0.00000000E+00
  0.00000000E+00  0.00000000E+00  0.00000000E+00  0.00000000E+00  0.00000000E+00
  0.00000000E+00  0.00000000E+00  0.00000000E+00  0.00000000E+00  0.00000000E+00
IOpCl                                      I                0
IROHF                                      I                0
Alpha Orbital Energies                     R   N=         114
 -1.12138203E+01 -1.12135449E+01 -1.12135449E+01 -1.12129444E+01 -1.12129444E+01
 -1.12126267E+01 -1.11202458E+00 -9.98537143E-01 -9.98537130E-01 -8.24132296E-01
 -8.24132271E-01 -7.48050991E-01 -6.46229819E-01 -6.03092810E-01 -5.93438771E-01
 -5.93438757E-01 -5.23439768E-01 -5.23439752E-01 -5.10239610E-01 -4.77712965E-01
 -4.77712947E-01 -4.47732564E-01 -4.23761176E-01 -4.23761131E-01  2.25701051E-01
  2.54119258E-01  2.80160547E-01  2.80160558E-01  3.08704374E-01  3.17906957E-01
  3.26639147E-01  3.26639155E-01  3.42298090E-01  3.42298122E-01  3.45488442E-01
  3.45488454E-01  4.12797905E-01  4.12797933E-01  4.21440151E-01  4.62280025E-01
  4.62280049E-01  4.76397350E-01  7.16022414E-01  7.35420660E-01  7.46146253E-01
  7.47437575E-01  7.47437610E-01  7.92508574E-01  7.92508600E-01  9.11098716E-01
  9.11098753E-01  9.52022740E-01  9.95821763E-01  1.00112873E+00  1.00112875E+00
  1.03529781E+00  1.07712406E+00  1.07712415E+00  1.14077024E+00  1.14077026E+00
  1.15373862E+00  1.16409607E+00  1.16498508E+00  1.16498512E+00  1.19766244E+00
  1.19766247E+00  1.22012436E+00  1.24478304E+00  1.25536060E+00  1.25536063E+00
  1.28501790E+00  1.40819221E+00  1.40819230E+00  1.64087996E+00  1.64088010E+00
  1.66807692E+00  1.66807701E+00  1.79379207E+00  1.86285907E+00  1.96725684E+00
  1.96725693E+00  2.03173891E+00  2.04080404E+00  2.20767790E+00  2.20767803E+00
  2.22248397E+00  2.22248407E+00  2.31034350E+00  2.31034357E+00  2.33066574E+00
  2.36516950E+00  2.40489970E+00  2.47794763E+00  2.47794766E+00  2.61199157E+00
  2.61199162E+00  2.69586089E+00  2.69586094E+00  2.73670918E+00  2.73935563E+00
  2.73935578E+00  2.74183267E+00  2.97153641E+00  2.97153651E+00  3.02546681E+00
  3.06251661E+00  3.06251666E+00  3.14161565E+00  4.56985255E+00  4.69098932E+00
  4.69098934E+00  4.98244676E+00  4.99123432E+00  4.99123434E+00
Alpha MO coefficients                      R   N=       12996
  4.06388323E-01  1.15251331E-02 -1.36393965E-05 -2.87780303E-06 -2.20469381E-05
 -3.48920418E-03 -4.85330246E-04 -1.02467813E-04  6.15547801E-06 -8.16317198E-04
 -1.00141840E-03 -8.28303153E-04  4.71860108E-05 -1.00797336E-04 -2.12684291E-05
  4.06392807E-01  1.15252662E-02 -4.33058473E-06 -1.32480835E-05  2.20438754E-05
 -3.48951259E-03 -1.53991539E-04 -4.71439547E-04 -6.18108385E-06 -9.90523198E-04
 -8.27198044E-04 -8.28303397E-04  6.89490422E-05  3.19842639E-05  9.79240997E-05
  4.06397050E-01  1.15253902E-02  9.31532564E-06 -1.03717910E-05 -2.20446991E-05
 -3.48950962E-03  3.31275005E-04 -3.69104501E-04  6.17237750E-06 -9.19754048E-04
 -8.97991465E-04 -8.28311508E-04 -1.16139590E-04  6.88135508E-05 -7.66620290E-05
  4.06410677E-01  1.15257784E-02  1.36478103E-05  2.87698135E-06  2.20477678E-05
 -3.48952562E-03  4.85349672E-04  1.02291930E-04 -6.15151773E-06 -8.16357901E-04
 -1.00145770E-03 -8.28338052E-04  4.71952792E-05 -1.00801256E-04 -2.12598720E-05
  4.06448188E-01  1.15268729E-02  4.33812821E-06  1.32700509E-05 -2.20455334E-05
 -3.49026343E-03  1.54006803E-04  4.71389440E-04  6.15781269E-06 -9.90633362E-04
 -8.27294058E-04 -8.28390872E-04  6.89533418E-05  3.19878785E-05  9.79301432E-05
  4.06435235E-01  1.15264944E-02 -9.32670867E-06  1.03814207E-05  2.20457758E-05
 -3.49005008E-03 -3.31362927E-04  3.68983276E-04 -6.15976256E-06 -9.19829640E-04
 -8.98053314E-04 -8.28371755E-04 -1.16144459E-04  6.88220101E-05 -7.66601398E-05
 -7.05792699E-05  8.96404526E-04 -3.12733996E-05  1.18087537E-03 -3.12663582E-05
  1.18088332E-03 -7.05652045E-05  8.96416398E-04 -7.05680498E-05  8.96431264E-04
 -3.12679918E-05  1.18089013E-03 -3.12716742E-05  1.18092079E-03 -7.05768559E-05
  8.96472763E-04 -7.05606109E-05  8.96592275E-04 -3.12645815E-05  1.18098698E-03
 -3.12660267E-05  1.18096478E-03 -7.05639954E-05  8.96550289E-04  5.72360970E-02
  1.65987623E-03 -2.58555762E-05  1.73525305E-05 -1.81393354E-06 -7.92194951E-04
 -3.49463764E-04  1.84320056E-03 -1.62425849E-05 -1.32654431E-04 -7.93409934E-05
 -9.01185773E-05  9.01578561E-05 -2.34703449E-05  8.48819045E-05  5.24038621E-01
  1.51974236E-02 -7.05159163E-05 -1.86197582E-04  1.66183964E-05 -7.25315121E-03
 -6.27518389E-04  5.76049667E-04  1.48840698E-04 -1.04339828E-03 -8.97531699E-04
 -8.25055899E-04  1.29773732E-05  5.00055556E-05  3.60725890E-05  4.66826742E-01
  1.35382513E-02  1.28092524E-04 -1.23106428E-04 -1.48036394E-05 -6.46127316E-03
  6.08847412E-04  9.68813731E-04 -1.32594438E-04 -9.18728288E-04 -8.10305551E-04
 -7.34980839E-04 -6.10035950E-05  6.80134606E-05  1.41736205E-06 -5.71795714E-02
 -1.65825455E-03 -2.58507132E-05  1.73556364E-05 -1.81400038E-06  7.91410170E-04
 -3.49498171E-04  1.84320731E-03 -1.62642551E-05  1.32552581E-04  7.92271305E-05
  9.00176905E-05 -9.01556060E-05  2.34601124E-05 -8.48851481E-05 -5.24011175E-01
 -1.51966554E-02 -7.05224521E-05 -1.86199432E-04  1.66152680E-05  7.25312109E-03
 -6.27523756E-04  5.76170665E-04  1.48833974E-04  1.04331509E-03  8.97463786E-04
  8.24990479E-04 -1.29680409E-05 -5.00060170E-05 -3.60633888E-05 -4.66792367E-01
 -1.35372802E-02  1.28099314E-04 -1.23102298E-04 -1.48011562E-05  6.46106406E-03
  6.08833743E-04  9.68906697E-04 -1.32594659E-04  9.18646904E-04  8.10220592E-04
  7.34907272E-04  6.09919256E-05 -6.80108354E-05 -1.42737562E-06  5.50381600E-06
  1.78510730E-04  4.24313594E-06  1.13497723E-04  3.88528154E-05  1.03906284E-03
  5.03892332E-05  1.63450555E-03  4.48879261E-05  1.45606141E-03  3.46100164E-05
  9.25618251E-04 -4.23883528E-06 -1.13353629E-04 -5.49864717E-06 -1.78367183E-04
 -5.04067671E-05 -1.63445740E-03 -3.88582829E-05 -1.03896489E-03 -3.46131710E-05
 -9.25509572E-04 -4.49002392E-05 -1.45599016E-03 -5.72048815E-01 -1.65897711E-02
  2.11984536E-04  4.70056368E-05  1.81405316E-05  7.91765015E-03 -4.15536368E-04
  1.04073723E-04  1.62500964E-04  9.90640610E-04  1.12811302E-03  9.00637945E-04
 -2.46694303E-05  5.13928885E-05  1.98285782E-05 -2.36492936E-01 -6.85842431E-03
  8.43780434E-06  9.16650217E-05 -7.50008488E-06  3.27332245E-03 -1.68263811E-03
  3.82089340E-04 -6.71620048E-05  4.17376794E-04  4.58532415E-04  3.72337102E-04
 -9.03254356E-05  6.95577544E-05 -4.63660065E-05  3.35566615E-01  9.73162645E-03
  7.15252544E-05 -1.06943869E-04 -1.06425296E-05 -4.64459644E-03 -1.28989801E-03
 -8.54308533E-04 -9.53137804E-05 -5.59256343E-04 -6.83598689E-04 -5.28315740E-04
 -5.64849448E-05 -3.20715103E-05 -7.16493050E-05  5.72051738E-01  1.65898657E-02
  2.11989824E-04  4.69986158E-05  1.81383486E-05 -7.91790221E-03 -4.15599112E-04
  1.04005685E-04  1.62490432E-04 -9.90638042E-04 -1.12809877E-03 -9.00632924E-04
  2.46710357E-05 -5.13920157E-05 -1.98231800E-05  2.36490915E-01  6.85837590E-03