
    -----------------------------------------------------------------------
          Psi4: An Open-Source Ab Initio Electronic Structure Package
                               Psi4 1.4a3.dev225 

                         Git: Rev {master} 7105e37 


    D. G. A. Smith, L. A. Burns, A. C. Simmonett, R. M. Parrish,
    M. C. Schieber, R. Galvelis, P. Kraus, H. Kruse, R. Di Remigio,
    A. Alenaizan, A. M. James, S. Lehtola, J. P. Misiewicz, M. Scheurer,
    R. A. Shaw, J. B. Schriber, Y. Xie, Z. L. Glick, D. A. Sirianni,
    J. S. O'Brien, J. M. Waldrop, A. Kumar, E. G. Hohenstein,
    B. P. Pritchard, B. R. Brooks, H. F. Schaefer III, A. Yu. Sokolov,
    K. Patkowski, A. E. DePrince III, U. Bozkaya, R. A. King,
    F. A. Evangelista, J. M. Turney, T. D. Crawford, C. D. Sherrill,
    J. Chem. Phys. 152(18) 184108 (2020). https://doi.org/10.1063/5.0006002

                            Additional Code Authors
    E. T. Seidl, C. L. Janssen, E. F. Valeev, M. L. Leininger,
    J. F. Gonthier, R. M. Richard, H. R. McAlexander, M. Saitow, X. Wang,
    P. Verma, and M. H. Lechner

             Previous Authors, Complete List of Code Contributors,
                       and Citations for Specific Modules
    https://github.com/psi4/psi4/blob/master/codemeta.json
    https://github.com/psi4/psi4/graphs/contributors
    http://psicode.org/psi4manual/master/introduction.html#citing-psifour

    -----------------------------------------------------------------------


    Psi4 started on: Sunday, 21 March 2021 06:26AM

    Process ID: 255228
    Host:       c446-022.stampede2.tacc.utexas.edu
    PSIDATADIR: /home1/07844/xy3866/miniconda3/envs/p4env/share/psi4
    Memory:     500.0 MiB
    Threads:    32
    
  ==> Input File <==

--------------------------------------------------------------------------
#psi4
#
memory 32 gb

molecule  {
0 1
  N        1.4447430     0.9271060    -0.5600120
  N       -0.8646290     2.1728000     0.5033790
  C       -0.6433280    -0.2041590    -0.0552500
  C        0.8343400    -0.1560850    -0.0228830
  C       -1.4414270     0.9434540     0.1762700
  C       -1.2729090    -1.4294320    -0.3272730
  C       -2.8381000     0.7953410     0.1919050
  C        1.5703020    -1.2114420     0.5410850
  C       -2.6593290    -1.5570310    -0.3269880
  C       -3.4429950    -0.4315550    -0.0645950
  C        2.9613910    -1.1706130     0.5101660
  C        3.5885550    -0.0650650    -0.0636080
  C        2.7682829     0.9578811    -0.5691391
  H       -0.6539860    -2.2940070    -0.5598860
  H       -3.4538380     1.6721500     0.3887520
  H        1.0497850    -2.0407580     1.0110860
  H       -3.1218920    -2.5149200    -0.5495680
  H       -4.5281350    -0.5063600    -0.0566640
  H        3.5458790    -1.9798730     0.9414670
  H        0.0235730     2.3183180     0.0298570
  H       -1.4980030     2.9543290     0.3690670
  H        4.6711930     0.0129590    -0.1060480
  H        3.2359550     1.8482630    -1.0089550
units angstrom
no_reorient  #important for SAPT in psi4, default
symmetry c1  #important for SAPT in psi4, default
}

set PROPERTIES_ORIGIN ["COM"]
properties('MP2/aug-cc-pvtz', properties = ['dipole'])
--------------------------------------------------------------------------

  Memory set to  29.802 GiB by Python driver.
    SCF Algorithm Type (re)set to DF.

*** tstart() called on c446-022.stampede2.tacc.utexas.edu
*** at Sun Mar 21 06:26:40 2021

   => Loading Basis Set <=

    Name: AUG-CC-PVTZ
    Role: ORBITAL
    Keyword: BASIS
    atoms 1-2   entry N          line   285 file /home1/07844/xy3866/miniconda3/envs/p4env/share/psi4/basis/aug-cc-pvtz.gbs 
    atoms 3-13  entry C          line   239 file /home1/07844/xy3866/miniconda3/envs/p4env/share/psi4/basis/aug-cc-pvtz.gbs 
    atoms 14-23 entry H          line    40 file /home1/07844/xy3866/miniconda3/envs/p4env/share/psi4/basis/aug-cc-pvtz.gbs 


         ---------------------------------------------------------
                                   SCF
               by Justin Turney, Rob Parrish, Andy Simmonett
                          and Daniel G. A. Smith
                              RHF Reference
                       32 Threads,  30517 MiB Core
         ---------------------------------------------------------

  ==> Geometry <==

    Molecular point group: c1
    Full point group: C1

    Geometry (in Angstrom), charge = 0, multiplicity = 1:

       Center              X                  Y                   Z               Mass       
    ------------   -----------------  -----------------  -----------------  -----------------
         N            1.441887964739     0.923991682325    -0.557342403261    14.003074004430
         N           -0.867484035261     2.169685682325     0.506048596739    14.003074004430
         C           -0.646183035261    -0.207273317675    -0.052580403261    12.000000000000
         C            0.831484964739    -0.159199317675    -0.020213403261    12.000000000000
         C           -1.444282035261     0.940339682325     0.178939596739    12.000000000000
         C           -1.275764035261    -1.432546317675    -0.324603403261    12.000000000000
         C           -2.840955035261     0.792226682325     0.194574596739    12.000000000000
         C            1.567446964739    -1.214556317675     0.543754596739    12.000000000000
         C           -2.662184035261    -1.560145317675    -0.324318403261    12.000000000000
         C           -3.445850035261    -0.434669317675    -0.061925403261    12.000000000000
         C            2.958535964739    -1.173727317675     0.512835596739    12.000000000000
         C            3.585699964739    -0.068179317675    -0.060938403261    12.000000000000
         C            2.765427864739     0.954766782325    -0.566469503261    12.000000000000
         H           -0.656841035261    -2.297121317675    -0.557216403261     1.007825032230
         H           -3.456693035261     1.669035682325     0.391421596739     1.007825032230
         H            1.046929964739    -2.043872317675     1.013755596739     1.007825032230
         H           -3.124747035261    -2.518034317675    -0.546898403261     1.007825032230
         H           -4.530990035261    -0.509474317675    -0.053994403261     1.007825032230
         H            3.543023964739    -1.982987317675     0.944136596739     1.007825032230
         H            0.020717964739     2.315203682325     0.032526596739     1.007825032230
         H           -1.500858035261     2.951214682325     0.371736596739     1.007825032230
         H            4.668337964739     0.009844682325    -0.103378403261     1.007825032230
         H            3.233099964739     1.845148682325    -1.006285403261     1.007825032230

  Running in c1 symmetry.

  Rotational constants: A =      0.06371  B =      0.01833  C =      0.01488 [cm^-1]
  Rotational constants: A =   1910.06723  B =    549.40179  C =    446.15125 [MHz]
  Nuclear repulsion =  714.959363952920057

  Charge       = 0
  Multiplicity = 1
  Electrons    = 90
  Nalpha       = 45
  Nbeta        = 45

  ==> Algorithm <==

  SCF Algorithm Type is DF.
  DIIS enabled.
  MOM disabled.
  Fractional occupation disabled.
  Guess Type is SAD.
  Energy threshold   = 1.00e-10
  Density threshold  = 1.00e-10
  Integral threshold = 1.00e-12

  ==> Primary Basis <==

  Basis Set: AUG-CC-PVTZ
    Blend: AUG-CC-PVTZ
    Number of shells: 272
    Number of basis functions: 828
    Number of Cartesian functions: 965
    Spherical Harmonics?: true
    Max angular momentum: 3

   => Loading Basis Set <=

    Name: (AUG-CC-PVTZ AUX)
    Role: JKFIT
    Keyword: DF_BASIS_SCF
    atoms 1-2   entry N          line   224 file /home1/07844/xy3866/miniconda3/envs/p4env/share/psi4/basis/aug-cc-pvtz-jkfit.gbs 
    atoms 3-13  entry C          line   162 file /home1/07844/xy3866/miniconda3/envs/p4env/share/psi4/basis/aug-cc-pvtz-jkfit.gbs 
    atoms 14-23 entry H          line    70 file /home1/07844/xy3866/miniconda3/envs/p4env/share/psi4/basis/aug-cc-pvtz-jkfit.gbs 

  ==> Integral Setup <==

  DFHelper Memory: AOs need 8.273 GiB; user supplied 22.352 GiB. Using in-core AOs.

  ==> MemDFJK: Density-Fitted J/K Matrices <==

    J tasked:                   Yes
    K tasked:                   Yes
    wK tasked:                   No
    OpenMP threads:              32
    Memory [MiB]:             22888
    Algorithm:                 Core
    Schwarz Cutoff:           1E-12
    Mask sparsity (%):      14.1383
    Fitting Condition:        1E-10

   => Auxiliary Basis Set <=

  Basis Set: (AUG-CC-PVTZ AUX)
    Blend: AUG-CC-PVTZ-JKFIT
    Number of shells: 530
    Number of basis functions: 1812
    Number of Cartesian functions: 2253
    Spherical Harmonics?: true
    Max angular momentum: 4

  Minimum eigenvalue in the overlap matrix is 5.4078652881E-07.
  Reciprocal condition number of the overlap matrix is 2.6574963148E-08.
    Using symmetric orthogonalization.

  ==> Pre-Iterations <==

  SCF Guess: Superposition of Atomic Densities via on-the-fly atomic UHF (no occupation information).

   -------------------------
    Irrep   Nso     Nmo    
   -------------------------
     A        828     828 
   -------------------------
    Total     828     828
   -------------------------

  ==> Iterations <==

                           Total Energy        Delta E     RMS |[F,P]|

   @DF-RHF iter SAD:  -530.96513389754091   -5.30965e+02   0.00000e+00 
   @DF-RHF iter   1:  -531.11563289402238   -1.50499e-01   9.05572e-04 DIIS
   @DF-RHF iter   2:  -531.39828376401169   -2.82651e-01   3.94545e-04 DIIS
   @DF-RHF iter   3:  -531.45009081008504   -5.18070e-02   7.72531e-05 DIIS
   @DF-RHF iter   4:  -531.45343386430056   -3.34305e-03   2.23971e-05 DIIS
   @DF-RHF iter   5:  -531.45363659541761   -2.02731e-04   8.86610e-06 DIIS
   @DF-RHF iter   6:  -531.45367458738554   -3.79920e-05   2.60721e-06 DIIS
   @DF-RHF iter   7:  -531.45368022442108   -5.63704e-06   1.09888e-06 DIIS
   @DF-RHF iter   8:  -531.45368124130221   -1.01688e-06   3.66086e-07 DIIS
   @DF-RHF iter   9:  -531.45368143373059   -1.92428e-07   1.42826e-07 DIIS
   @DF-RHF iter  10:  -531.45368146798160   -3.42510e-08   8.70869e-08 DIIS
   @DF-RHF iter  11:  -531.45368147918873   -1.12071e-08   3.58741e-08 DIIS
   @DF-RHF iter  12:  -531.45368148206853   -2.87980e-09   1.48887e-08 DIIS
   @DF-RHF iter  13:  -531.45368148228533   -2.16801e-10   5.19097e-09 DIIS
   @DF-RHF iter  14:  -531.45368148232194   -3.66072e-11   2.13588e-09 DIIS
   @DF-RHF iter  15:  -531.45368148232569   -3.75167e-12   9.38863e-10 DIIS
   @DF-RHF iter  16:  -531.45368148232842   -2.72848e-12   4.14476e-10 DIIS
   @DF-RHF iter  17:  -531.45368148232819    2.27374e-13   2.00758e-10 DIIS
   @DF-RHF iter  18:  -531.45368148232728    9.09495e-13   8.44646e-11 DIIS
  Energy and wave function converged.


  ==> Post-Iterations <==

    Orbital Energies [Eh]
    ---------------------

    Doubly Occupied:                                                      

       1A    -15.568012     2A    -15.551293     3A    -11.290078  
       4A    -11.281857     5A    -11.280928     6A    -11.263053  
       7A    -11.243377     8A    -11.241657     9A    -11.239113  
      10A    -11.238192    11A    -11.234602    12A    -11.224013  
      13A    -11.221245    14A     -1.267450    15A     -1.214624  
      16A     -1.128105    17A     -1.089719    18A     -1.061331  
      19A     -0.997151    20A     -0.980256    21A     -0.873074  
      22A     -0.862815    23A     -0.817078    24A     -0.801187  
      25A     -0.718561    26A     -0.691238    27A     -0.684952  
      28A     -0.664469    29A     -0.653381    30A     -0.626253  
      31A     -0.595055    32A     -0.591935    33A     -0.586234  
      34A     -0.574463    35A     -0.552478    36A     -0.537180  
      37A     -0.520828    38A     -0.501584    39A     -0.493401  
      40A     -0.445354    41A     -0.420270    42A     -0.390244  
      43A     -0.369076    44A     -0.318462    45A     -0.286337  

    Virtual:                                                              

      46A      0.026203    47A      0.030744    48A      0.031393  
      49A      0.039373    50A      0.040874    51A      0.049263  
      52A      0.053242    53A      0.056051    54A      0.067525  
      55A      0.075643    56A      0.080903    57A      0.083171  
      58A      0.090921    59A      0.091237    60A      0.097086  
      61A      0.100127    62A      0.109021    63A      0.111256  
      64A      0.112779    65A      0.116457    66A      0.117895  
      67A      0.121356    68A      0.123027    69A      0.124642  
      70A      0.125426    71A      0.129758    72A      0.130709  
      73A      0.135588    74A      0.140860    75A      0.143541  
      76A      0.148520    77A      0.150797    78A      0.153633  
      79A      0.156969    80A      0.160521    81A      0.163961  
      82A      0.170343    83A      0.171666    84A      0.174010  
      85A      0.178290    86A      0.180970    87A      0.188725  
      88A      0.196868    89A      0.197916    90A      0.202054  
      91A      0.207360    92A      0.218067    93A      0.221156  
      94A      0.222959    95A      0.228877    96A      0.236946  
      97A      0.240536    98A      0.243552    99A      0.249755  
     100A      0.254077   101A      0.257555   102A      0.259522  
     103A      0.265749   104A      0.272513   105A      0.275944  
     106A      0.279026   107A      0.282334   108A      0.292689  
     109A      0.294709   110A      0.298038   111A      0.304202  
     112A      0.306599   113A      0.308796   114A      0.312357  
     115A      0.313845   116A      0.316591   117A      0.323247  
     118A      0.324612   119A      0.329039   120A      0.332421  
     121A      0.337658   122A      0.340646   123A      0.343964  
     124A      0.347256   125A      0.352900   126A      0.355436  
     127A      0.358511   128A      0.361954   129A      0.366965  
     130A      0.379761   131A      0.384208   132A      0.388021  
     133A      0.391287   134A      0.401768   135A      0.405595  
     136A      0.409873   137A      0.414873   138A      0.418592  
     139A      0.422143   140A      0.425272   141A      0.428616  
     142A      0.434848   143A      0.436604   144A      0.441971  
     145A      0.444770   146A      0.448437   147A      0.453026  
     148A      0.457065   149A      0.463134   150A      0.464928  
     151A      0.466619   152A      0.470928   153A      0.475846  
     154A      0.479548   155A      0.481802   156A      0.485477  
     157A      0.485490   158A      0.490809   159A      0.491889  
     160A      0.495705   161A      0.498547   162A      0.503671  
     163A      0.505462   164A      0.507148   165A      0.510575  
     166A      0.515086   167A      0.518948   168A      0.524028  
     169A      0.527412   170A      0.530149   171A      0.533650  
     172A      0.536090   173A      0.540085   174A      0.543002  
     175A      0.547274   176A      0.549179   177A      0.553926  
     178A      0.556369   179A      0.561284   180A      0.566722  
     181A      0.569327   182A      0.571023   183A      0.580199  
     184A      0.583329   185A      0.589422   186A      0.593892  
     187A      0.599599   188A      0.605979   189A      0.609339  
     190A      0.616540   191A      0.627123   192A      0.627972  
     193A      0.639718   194A      0.643065   195A      0.652472  
     196A      0.657041   197A      0.659223   198A      0.665150  
     199A      0.680866   200A      0.685241   201A      0.689504  
     202A      0.691944   203A      0.698888   204A      0.700071  
     205A      0.707156   206A      0.712245   207A      0.720598  
     208A      0.726910   209A      0.729085   210A      0.731583  
     211A      0.739432   212A      0.742611   213A      0.752740  
     214A      0.753693   215A      0.755934   216A      0.760804  
     217A      0.768286   218A      0.773374   219A      0.780166  
     220A      0.788661   221A      0.794815   222A      0.800505  
     223A      0.804939   224A      0.807079   225A      0.813945  
     226A      0.819998   227A      0.828748   228A      0.833467  
     229A      0.837527   230A      0.841698   231A      0.845334  
     232A      0.855719   233A      0.861235   234A      0.865774  
     235A      0.867339   236A      0.873272   237A      0.877262  
     238A      0.880428   239A      0.883145   240A      0.886860  
     241A      0.893404   242A      0.894245   243A      0.901617  
     244A      0.902688   245A      0.909038   246A      0.913632  
     247A      0.922183   248A      0.926077   249A      0.928757  
     250A      0.933023   251A      0.937143   252A      0.944572  
     253A      0.949948   254A      0.958617   255A      0.964549  
     256A      0.965467   257A      0.974291   258A      0.977869  
     259A      0.982959   260A      0.994351   261A      0.996574  
     262A      1.005004   263A      1.006648   264A      1.011050  
     265A      1.011844   266A      1.015732   267A      1.022637  
     268A      1.028466   269A      1.030439   270A      1.032195  
     271A      1.041359   272A      1.045534   273A      1.050071  
     274A      1.056838   275A      1.061252   276A      1.067653  
     277A      1.068104   278A      1.071925   279A      1.081986  
     280A      1.083366   281A      1.085545   282A      1.091899  
     283A      1.094739   284A      1.101270   285A      1.103975  
     286A      1.106466   287A      1.110839   288A      1.114332  
     289A      1.115474   290A      1.116332   291A      1.126235  
     292A      1.132352   293A      1.133289   294A      1.139759  
     295A      1.143180   296A      1.148156   297A      1.151328  
     298A      1.159800   299A      1.164245   300A      1.167709  
     301A      1.177723   302A      1.181840   303A      1.188492  
     304A      1.192456   305A      1.193902   306A      1.198884  
     307A      1.200998   308A      1.205688   309A      1.214648  
     310A      1.218182   311A      1.220621   312A      1.228845  
     313A      1.229601   314A      1.231250   315A      1.236424  
     316A      1.239051   317A      1.241453   318A      1.253355  
     319A      1.259262   320A      1.266021   321A      1.271075  
     322A      1.277371   323A      1.283209   324A      1.285358  
     325A      1.293331   326A      1.301202   327A      1.307892  
     328A      1.312257   329A      1.316631   330A      1.323573  
     331A      1.333006   332A      1.338013   333A      1.351937  
     334A      1.354151   335A      1.364548   336A      1.367751  
     337A      1.377259   338A      1.379962   339A      1.385288  
     340A      1.387342   341A      1.394672   342A      1.403066  
     343A      1.412515   344A      1.421305   345A      1.425689  
     346A      1.430993   347A      1.435533   348A      1.448627  
     349A      1.454293   350A      1.460495   351A      1.464653  
     352A      1.469179   353A      1.484159   354A      1.494118  
     355A      1.497126   356A      1.505792   357A      1.509355  
     358A      1.513651   359A      1.524830   360A      1.528634  
     361A      1.532946   362A      1.543324   363A      1.551186  
     364A      1.559092   365A      1.565203   366A      1.571079  
     367A      1.581432   368A      1.589646   369A      1.595986  
     370A      1.597835   371A      1.600608   372A      1.612846  
     373A      1.620306   374A      1.628788   375A      1.640194  
     376A      1.646875   377A      1.653800   378A      1.665232  
     379A      1.668225   380A      1.676748   381A      1.678847  
     382A      1.684342   383A      1.697883   384A      1.710868  
     385A      1.713320   386A      1.726826   387A      1.733932  
     388A      1.737735   389A      1.745032   390A      1.753715  
     391A      1.761479   392A      1.771488   393A      1.778483  
     394A      1.787651   395A      1.792861   396A      1.802394  
     397A      1.810120   398A      1.822942   399A      1.828863  
     400A      1.836243   401A      1.839541   402A      1.841634  
     403A      1.853218   404A      1.858895   405A      1.866094  
     406A      1.871574   407A      1.878322   408A      1.887518  
     409A      1.893475   410A      1.907624   411A      1.914455  
     412A      1.917943   413A      1.922136   414A      1.932389  
     415A      1.944488   416A      1.952003   417A      1.954654  
     418A      1.969208   419A      1.972176   420A      1.974209  
     421A      1.976668   422A      1.988579   423A      2.001039  
     424A      2.003711   425A      2.010055   426A      2.026189  
     427A      2.033849   428A      2.036297   429A      2.041304  
     430A      2.045615   431A      2.048598   432A      2.054160  
     433A      2.062795   434A      2.074932   435A      2.077173  
     436A      2.088809   437A      2.100630   438A      2.104010  
     439A      2.114206   440A      2.119364   441A      2.131758  
     442A      2.138046   443A      2.144202   444A      2.152906  
     445A      2.163701   446A      2.170565   447A      2.188774  
     448A      2.191747   449A      2.200020   450A      2.209646  
     451A      2.214892   452A      2.222514   453A      2.228109  
     454A      2.242961   455A      2.244750   456A      2.258420  
     457A      2.266920   458A      2.272075   459A      2.279967  
     460A      2.287878   461A      2.292434   462A      2.306640  
     463A      2.310828   464A      2.317348   465A      2.323906  
     466A      2.334661   467A      2.344436   468A      2.359845  
     469A      2.369366   470A      2.374468   471A      2.383147  
     472A      2.392003   473A      2.398754   474A      2.409105  
     475A      2.419313   476A      2.422863   477A      2.433185  
     478A      2.450644   479A      2.466150   480A      2.474876  
     481A      2.478722   482A      2.491070   483A      2.501941  
     484A      2.520063   485A      2.523752   486A      2.544734  
     487A      2.555477   488A      2.560342   489A      2.563800  
     490A      2.575318   491A      2.577850   492A      2.588344  
     493A      2.617372   494A      2.630605   495A      2.636096  
     496A      2.655120   497A      2.663042   498A      2.676738  
     499A      2.681986   500A      2.692224   501A      2.706355  
     502A      2.723854   503A      2.736974   504A      2.758824  
     505A      2.759379   506A      2.767416   507A      2.797159  
     508A      2.803419   509A      2.822215   510A      2.850927  
     511A      2.852016   512A      2.876634   513A      2.886673  
     514A      2.893103   515A      2.936284   516A      2.954922  
     517A      2.967209   518A      2.987830   519A      3.017094  
     520A      3.043578   521A      3.062882   522A      3.078044  
     523A      3.109327   524A      3.120638   525A      3.135979  
     526A      3.164224   527A      3.171636   528A      3.210413  
     529A      3.222382   530A      3.232591   531A      3.250930  
     532A      3.264843   533A      3.272890   534A      3.285160  
     535A      3.306167   536A      3.322593   537A      3.338434  
     538A      3.346146   539A      3.354048   540A      3.376726  
     541A      3.385417   542A      3.391433   543A      3.411830  
     544A      3.413930   545A      3.421342   546A      3.424506  
     547A      3.425829   548A      3.444911   549A      3.451684  
     550A      3.473749   551A      3.478158   552A      3.483158  
     553A      3.491072   554A      3.494707   555A      3.504420  
     556A      3.528010   557A      3.537303   558A      3.538352  
     559A      3.551773   560A      3.557599   561A      3.564412  
     562A      3.571844   563A      3.583098   564A      3.587986  
     565A      3.590133   566A      3.603633   567A      3.610624  
     568A      3.613708   569A      3.621953   570A      3.635432  
     571A      3.645338   572A      3.659449   573A      3.671242  
     574A      3.686374   575A      3.687548   576A      3.704643  
     577A      3.707703   578A      3.715502   579A      3.725498  
     580A      3.726366   581A      3.731977   582A      3.748117  
     583A      3.768192   584A      3.778306   585A      3.784482  
     586A      3.795329   587A      3.800842   588A      3.816046  
     589A      3.833891   590A      3.846138   591A      3.846920  
     592A      3.857305   593A      3.864289   594A      3.865724  
     595A      3.877040   596A      3.885797   597A      3.893785  
     598A      3.904781   599A      3.917903   600A      3.923186  
     601A      3.928602   602A      3.933890   603A      3.947729  
     604A      3.953677   605A      3.962023   606A      3.968454  
     607A      3.979713   608A      3.989623   609A      3.994853  
     610A      4.002289   611A      4.006720   612A      4.019802  
     613A      4.026851   614A      4.032337   615A      4.038261  
     616A      4.047156   617A      4.051346   618A      4.059278  
     619A      4.061937   620A      4.080378   621A      4.090594  
     622A      4.102084   623A      4.119161   624A      4.121342  
     625A      4.127386   626A      4.135641   627A      4.148219  
     628A      4.154388   629A      4.169523   630A      4.174121  
     631A      4.187980   632A      4.192090   633A      4.203212  
     634A      4.213478   635A      4.220096   636A      4.230335  
     637A      4.233567   638A      4.252603   639A      4.255607  
     640A      4.273160   641A      4.285370   642A      4.294322  
     643A      4.301859   644A      4.307462   645A      4.309698  
     646A      4.324824   647A      4.331153   648A      4.333474  
     649A      4.347607   650A      4.354143   651A      4.372459  
     652A      4.373735   653A      4.387458   654A      4.388015  
     655A      4.393776   656A      4.402412   657A      4.410539  
     658A      4.422964   659A      4.426257   660A      4.435817  
     661A      4.445451   662A      4.453434   663A      4.461002  
     664A      4.470466   665A      4.483029   666A      4.489060  
     667A      4.499940   668A      4.512389   669A      4.524827  
     670A      4.539209   671A      4.544425   672A      4.550725  
     673A      4.563882   674A      4.579633   675A      4.587938  
     676A      4.595000   677A      4.598910   678A      4.609719  
     679A      4.623594   680A      4.654634   681A      4.672307  
     682A      4.682779   683A      4.684471   684A      4.690443  
     685A      4.715544   686A      4.723464   687A      4.736007  
     688A      4.741851   689A      4.751162   690A      4.754476  
     691A      4.759371   692A      4.780235   693A      4.796318  
     694A      4.807337   695A      4.817919   696A      4.831188  
     697A      4.835770   698A      4.858017   699A      4.875817  
     700A      4.888712   701A      4.905993   702A      4.923928  
     703A      4.936057   704A      4.946392   705A      4.953729  
     706A      4.958399   707A      4.972145   708A      4.976823  
     709A      4.989123   710A      5.003649   711A      5.008562  
     712A      5.017529   713A      5.032716   714A      5.041565  
     715A      5.047847   716A      5.067671   717A      5.076377  
     718A      5.083985   719A      5.092291   720A      5.105236  
     721A      5.118325   722A      5.128406   723A      5.136486  
     724A      5.150885   725A      5.161181   726A      5.172349  
     727A      5.182757   728A      5.185414   729A      5.202641  
     730A      5.205695   731A      5.227789   732A      5.230205  
     733A      5.240591   734A      5.249681   735A      5.263633  
     736A      5.268888   737A      5.292631   738A      5.306712  
     739A      5.325907   740A      5.329133   741A      5.341705  
     742A      5.362385   743A      5.384596   744A      5.394658  
     745A      5.406692   746A      5.414557   747A      5.450248  
     748A      5.455376   749A      5.468366   750A      5.506632  
     751A      5.523641   752A      5.539032   753A      5.545784  
     754A      5.554950   755A      5.580237   756A      5.582798  
     757A      5.610235   758A      5.626354   759A      5.659745  
     760A      5.678737   761A      5.681356   762A      5.702805  
     763A      5.722929   764A      5.736331   765A      5.777363  
     766A      5.798710   767A      5.835527   768A      5.867407  
     769A      5.873340   770A      5.896920   771A      5.918838  
     772A      5.927140   773A      5.970176   774A      5.981469  
     775A      6.011167   776A      6.042939   777A      6.046298  
     778A      6.086126   779A      6.143905   780A      6.167016  
     781A      6.177651   782A      6.195797   783A      6.207609  
     784A      6.218036   785A      6.253954   786A      6.271777  
     787A      6.288568   788A      6.320226   789A      6.334502  
     790A      6.363801   791A      6.423923   792A      6.429511  
     793A      6.491900   794A      6.508664   795A      6.555433  
     796A      6.623921   797A      6.637454   798A      6.658322  
     799A      6.726430   800A      6.746277   801A      6.776894  
     802A      6.798273   803A      6.846820   804A      6.869537  
     805A      6.943492   806A      6.986566   807A      7.010095  
     808A      7.067800   809A      7.113601   810A      7.144316  
     811A      7.210690   812A      7.350743   813A      7.427907  
     814A      7.468934   815A      7.872380   816A     15.893034  
     817A     16.167594   818A     16.264441   819A     16.749974  
     820A     17.884119   821A     18.654995   822A     19.180849  
     823A     19.289888   824A     19.429885   825A     19.803950  
     826A     20.032110   827A     20.704207   828A     21.715813  

    Final Occupation by Irrep:
              A 
    DOCC [    45 ]

  @DF-RHF Final Energy:  -531.45368148232728

   => Energetics <=

    Nuclear Repulsion Energy =            714.9593639529200573
    One-Electron Energy =               -2138.4421668287027387
    Two-Electron Energy =                 892.0291213934553980
    Total Energy =                       -531.4536814823272834

Computation Completed

*** tstop() called on c446-022.stampede2.tacc.utexas.edu at Sun Mar 21 06:27:41 2021
Module time:
	user time   =    1197.11 seconds =      19.95 minutes
	system time =      65.57 seconds =       1.09 minutes
	total time  =         61 seconds =       1.02 minutes
Total time:
	user time   =    1197.11 seconds =      19.95 minutes
	system time =      65.57 seconds =       1.09 minutes
	total time  =         61 seconds =       1.02 minutes
   => Loading Basis Set <=

    Name: (AUG-CC-PVTZ AUX)
    Role: RIFIT
    Keyword: DF_BASIS_MP2
    atoms 1-2   entry N          line   206 file /home1/07844/xy3866/miniconda3/envs/p4env/share/psi4/basis/aug-cc-pvtz-ri.gbs 
    atoms 3-13  entry C          line   148 file /home1/07844/xy3866/miniconda3/envs/p4env/share/psi4/basis/aug-cc-pvtz-ri.gbs 
    atoms 14-23 entry H          line    30 file /home1/07844/xy3866/miniconda3/envs/p4env/share/psi4/basis/aug-cc-pvtz-ri.gbs 


*** tstart() called on c446-022.stampede2.tacc.utexas.edu
*** at Sun Mar 21 06:27:42 2021


  //>>>>>>>>>>>>>>>>>>>>>>>>>>>>>>>>>>>//
  //               DFMP2               //
  //<<<<<<<<<<<<<<<<<<<<<<<<<<<<<<<<<<<//

	 --------------------------------------------------------
	                          DF-MP2                         
	      2nd-Order Density-Fitted Moller-Plesset Theory     
	              RMP2 Wavefunction,  32 Threads             
	                                                         
	        Rob Parrish, Justin Turney, Andy Simmonett,      
	           Ed Hohenstein, and C. David Sherrill          
	 --------------------------------------------------------

   => Auxiliary Basis Set <=

  Basis Set: (AUG-CC-PVTZ AUX)
    Blend: AUG-CC-PVTZ-RI
    Number of shells: 504
    Number of basis functions: 1838
    Number of Cartesian functions: 2318
    Spherical Harmonics?: true
    Max angular momentum: 4

	 --------------------------------------------------------
	                 NBF =   828, NAUX =  1838
	 --------------------------------------------------------
	   CLASS    FOCC     OCC    AOCC    AVIR     VIR    FVIR
	   PAIRS       0      45      45     783     783       0
	 --------------------------------------------------------

  DFHelper Memory: AOs need 8.760 GiB; user supplied 22.352 GiB. Using in-core AOs.


         ------------------------------------------------------------
                                     CPHF                           
                                  Rob Parrish                       
         ------------------------------------------------------------

  ==> Geometry <==

    Molecular point group: c1
    Full point group: C1

    Geometry (in Angstrom), charge = 0, multiplicity = 1:

       Center              X                  Y                   Z               Mass       
    ------------   -----------------  -----------------  -----------------  -----------------
         N            1.441887964739     0.923991682325    -0.557342403261    14.003074004430
         N           -0.867484035261     2.169685682325     0.506048596739    14.003074004430
         C           -0.646183035261    -0.207273317675    -0.052580403261    12.000000000000
         C            0.831484964739    -0.159199317675    -0.020213403261    12.000000000000
         C           -1.444282035261     0.940339682325     0.178939596739    12.000000000000
         C           -1.275764035261    -1.432546317675    -0.324603403261    12.000000000000
         C           -2.840955035261     0.792226682325     0.194574596739    12.000000000000
         C            1.567446964739    -1.214556317675     0.543754596739    12.000000000000
         C           -2.662184035261    -1.560145317675    -0.324318403261    12.000000000000
         C           -3.445850035261    -0.434669317675    -0.061925403261    12.000000000000
         C            2.958535964739    -1.173727317675     0.512835596739    12.000000000000
         C            3.585699964739    -0.068179317675    -0.060938403261    12.000000000000
         C            2.765427864739     0.954766782325    -0.566469503261    12.000000000000
         H           -0.656841035261    -2.297121317675    -0.557216403261     1.007825032230
         H           -3.456693035261     1.669035682325     0.391421596739     1.007825032230
         H            1.046929964739    -2.043872317675     1.013755596739     1.007825032230
         H           -3.124747035261    -2.518034317675    -0.546898403261     1.007825032230
         H           -4.530990035261    -0.509474317675    -0.053994403261     1.007825032230
         H            3.543023964739    -1.982987317675     0.944136596739     1.007825032230
         H            0.020717964739     2.315203682325     0.032526596739     1.007825032230
         H           -1.500858035261     2.951214682325     0.371736596739     1.007825032230
         H            4.668337964739     0.009844682325    -0.103378403261     1.007825032230
         H            3.233099964739     1.845148682325    -1.006285403261     1.007825032230

  Nuclear repulsion =  714.959363952920057
  Reference energy  = -531.453681482327283

  ==> Basis Set <==

  Basis Set: AUG-CC-PVTZ
    Blend: AUG-CC-PVTZ
    Number of shells: 272
    Number of basis functions: 828
    Number of Cartesian functions: 965
    Spherical Harmonics?: true
    Max angular momentum: 3

  ==> CGRSolver (by Rob Parrish) <==

   Number of roots    =         1
   Preconditioning    =    JACOBI
   Convergence cutoff =     1E-06
   Maximum iterations =       100

  ==> CPHFRHamiltonian (by Rob Parrish) <== 

  ==> MemDFJK: Density-Fitted J/K Matrices <==

    J tasked:                   Yes
    K tasked:                   Yes
    wK tasked:                   No
    OpenMP threads:              32
    Memory [MiB]:             22888
    Algorithm:                 Core
    Schwarz Cutoff:           1E-12
    Mask sparsity (%):       8.8742
    Fitting Condition:        1E-10

   => Auxiliary Basis Set <=

  Basis Set: (AUG-CC-PVTZ AUX)
    Blend: AUG-CC-PVTZ-JKFIT
    Number of shells: 530
    Number of basis functions: 1812
    Number of Cartesian functions: 2253
    Spherical Harmonics?: true
    Max angular momentum: 4

  ==> CPHF Iterations <==

  => Iterations <=

             Iter  Converged  Remaining    Residual
  CGR           1          0          1   9.274E-02
  CGR           2          0          1   3.939E-02
  CGR           3          0          1   2.536E-02
  CGR           4          0          1   9.886E-03
  CGR           5          0          1   3.918E-03
  CGR           6          0          1   1.650E-03
  CGR           7          0          1   5.417E-04
  CGR           8          0          1   1.943E-04
  CGR           9          0          1   8.858E-05
  CGR          10          0          1   4.019E-05
  CGR          11          0          1   1.801E-05
  CGR          12          0          1   6.017E-06
  CGR          13          0          1   2.130E-06
  CGR          14          1          0   7.169E-07

    CGRSolver converged.

	-----------------------------------------------------------
	 ==================> DF-MP2 Energies <==================== 
	-----------------------------------------------------------
	 Reference Energy          =    -531.4536814823272834 [Eh]
	 Singles Energy            =      -0.0000000000000000 [Eh]
	 Same-Spin Energy          =      -0.5963737160919489 [Eh]
	 Opposite-Spin Energy      =      -1.8203906283660434 [Eh]
	 Correlation Energy        =      -2.4167643444579925 [Eh]
	 Total Energy              =    -533.8704458267852715 [Eh]
	-----------------------------------------------------------
	 ================> DF-SCS-MP2 Energies <================== 
	-----------------------------------------------------------
	 SCS Same-Spin Scale       =       0.3333333333333333 [-]
	 SCS Opposite-Spin Scale   =       1.2000000000000000 [-]
	 SCS Same-Spin Energy      =      -0.1987912386973163 [Eh]
	 SCS Opposite-Spin Energy  =      -2.1844687540392518 [Eh]
	 SCS Correlation Energy    =      -2.3832599927365679 [Eh]
	 SCS Total Energy          =    -533.8369414750638953 [Eh]
	-----------------------------------------------------------



Properties will be evaluated at   0.000000,   0.000000,   0.000000 [a0]

Properties computed using the MP2 density matrix

  Nuclear Dipole Moment: [e a0]
     X:    -0.7123      Y:    -0.5349      Z:     0.4556

  Electronic Dipole Moment: [e a0]
     X:     1.3094      Y:     0.3699      Z:    -0.4506

  Dipole Moment: [e a0]
     X:     0.5971      Y:    -0.1651      Z:     0.0049     Total:     0.6195

  Dipole Moment: [D]
     X:     1.5176      Y:    -0.4196      Z:     0.0126     Total:     1.5746


*** tstop() called on c446-022.stampede2.tacc.utexas.edu at Sun Mar 21 06:34:10 2021
Module time:
	user time   =    3905.13 seconds =      65.09 minutes
	system time =      96.15 seconds =       1.60 minutes
	total time  =        388 seconds =       6.47 minutes
Total time:
	user time   =    5103.38 seconds =      85.06 minutes
	system time =     161.75 seconds =       2.70 minutes
	total time  =        450 seconds =       7.50 minutes

    Psi4 stopped on: Sunday, 21 March 2021 06:34AM
    Psi4 wall time for execution: 0:07:31.36

*** Psi4 exiting successfully. Buy a developer a beer!
