157_Butadiene Gaussian SP Calculation on node35.bme.utexas.edu          
Freq      RMP2-FC                                                     6-31G(d)            
Number of atoms                            I               10
Info1-9                                    I   N=           9
          21          20        1002           0           0         100
           6           2           1
Charge                                     I                0
Multiplicity                               I                1
Number of electrons                        I               30
Number of alpha electrons                  I               15
Number of beta electrons                   I               15
Number of basis functions                  I               72
Number of independent functions            I               72
Number of point charges in /Mol/           I                0
Number of translation vectors              I                0
Atomic numbers                             I   N=          10
           6           6           6           6           1           1
           1           1           1           1
Nuclear charges                            R   N=          10
  6.00000000E+00  6.00000000E+00  6.00000000E+00  6.00000000E+00  1.00000000E+00
  1.00000000E+00  1.00000000E+00  1.00000000E+00  1.00000000E+00  1.00000000E+00
Current cartesian coordinates              R   N=          30
 -1.14514619E+00 -7.65388742E-01 -5.44090553E-06  1.14514680E+00  7.65391121E-01
 -5.42916815E-06 -3.49109532E+00  2.07617332E-01  5.30119968E-06  3.49109458E+00
 -2.07618843E-01  5.30736515E-06 -8.92835379E-01 -2.80968298E+00 -1.50479931E-05
  8.92839463E-01  2.80968572E+00 -1.50037856E-05 -5.15526242E+00 -9.88942518E-01
  4.84297213E-06 -3.80828459E+00  2.23640134E+00  1.09584426E-05  5.15526463E+00
  9.88936948E-01  4.87786543E-06  3.80827907E+00 -2.23640372E+00  1.09415516E-05
Force Field                                I                0
Int Atom Types                             I   N=          10
           0           0           0           0           0           0
           0           0           0           0
MM charges                                 R   N=          10
  0.00000000E+00  0.00000000E+00  0.00000000E+00  0.00000000E+00  0.00000000E+00
  0.00000000E+00  0.00000000E+00  0.00000000E+00  0.00000000E+00  0.00000000E+00
Integer atomic weights                     I   N=          10
          12          12          12          12           1           1
           1           1           1           1
Real atomic weights                        R   N=          10
  1.20000000E+01  1.20000000E+01  1.20000000E+01  1.20000000E+01  1.00782504E+00
  1.00782504E+00  1.00782504E+00  1.00782504E+00  1.00782504E+00  1.00782504E+00
Atom fragment info                         I   N=          10
           0           0           0           0           0           0
           0           0           0           0
Atom residue num                           I   N=          10
           0           0           0           0           0           0
           0           0           0           0
Nuclear spins                              I   N=          10
           0           0           0           0           1           1
           1           1           1           1
Nuclear ZEff                               R   N=          10
 -3.60000000E+00 -3.60000000E+00 -3.60000000E+00 -3.60000000E+00 -1.00000000E+00
 -1.00000000E+00 -1.00000000E+00 -1.00000000E+00 -1.00000000E+00 -1.00000000E+00
Nuclear QMom                               R   N=          10
  0.00000000E+00  0.00000000E+00  0.00000000E+00  0.00000000E+00  0.00000000E+00
  0.00000000E+00  0.00000000E+00  0.00000000E+00  0.00000000E+00  0.00000000E+00
Nuclear GFac                               R   N=          10
  0.00000000E+00  0.00000000E+00  0.00000000E+00  0.00000000E+00  2.79284600E+00
  2.79284600E+00  2.79284600E+00  2.79284600E+00  2.79284600E+00  2.79284600E+00
MicOpt                                     I   N=          10
          -1          -1          -1          -1          -1          -1
          -1          -1          -1          -1
Number of contracted shells                I               28
Number of primitive shells                 I               68
Pure/Cartesian d shells                    I                1
Pure/Cartesian f shells                    I                0
Highest angular momentum                   I                2
Largest degree of contraction              I                6
Shell types                                I   N=          28
           0          -1          -1           2           0          -1
          -1           2           0          -1          -1           2
           0          -1          -1           2           0           0
           0           0           0           0           0           0
           0           0           0           0
Number of primitives per shell             I   N=          28
           6           3           1           1           6           3
           1           1           6           3           1           1
           6           3           1           1           3           1
           3           1           3           1           3           1
           3           1           3           1
Shell to atom map                          I   N=          28
           1           1           1           1           2           2
           2           2           3           3           3           3
           4           4           4           4           5           5
           6           6           7           7           8           8
           9           9          10          10
Primitive exponents                        R   N=          68
  3.04752488E+03  4.57369518E+02  1.03948685E+02  2.92101553E+01  9.28666296E+00
  3.16392696E+00  7.86827235E+00  1.88128854E+00  5.44249258E-01  1.68714478E-01
  8.00000000E-01  3.04752488E+03  4.57369518E+02  1.03948685E+02  2.92101553E+01
  9.28666296E+00  3.16392696E+00  7.86827235E+00  1.88128854E+00  5.44249258E-01
  1.68714478E-01  8.00000000E-01  3.04752488E+03  4.57369518E+02  1.03948685E+02
  2.92101553E+01  9.28666296E+00  3.16392696E+00  7.86827235E+00  1.88128854E+00
  5.44249258E-01  1.68714478E-01  8.00000000E-01  3.04752488E+03  4.57369518E+02
  1.03948685E+02  2.92101553E+01  9.28666296E+00  3.16392696E+00  7.86827235E+00
  1.88128854E+00  5.44249258E-01  1.68714478E-01  8.00000000E-01  1.87311370E+01
  2.82539436E+00  6.40121692E-01  1.61277759E-01  1.87311370E+01  2.82539436E+00
  6.40121692E-01  1.61277759E-01  1.87311370E+01  2.82539436E+00  6.40121692E-01
  1.61277759E-01  1.87311370E+01  2.82539436E+00  6.40121692E-01  1.61277759E-01
  1.87311370E+01  2.82539436E+00  6.40121692E-01  1.61277759E-01  1.87311370E+01
  2.82539436E+00  6.40121692E-01  1.61277759E-01
Contraction coefficients                   R   N=          68
  1.83473713E-03  1.40373228E-02  6.88426223E-02  2.32184443E-01  4.67941348E-01
  3.62311985E-01 -1.19332420E-01 -1.60854152E-01  1.14345644E+00  1.00000000E+00
  1.00000000E+00  1.83473713E-03  1.40373228E-02  6.88426223E-02  2.32184443E-01
  4.67941348E-01  3.62311985E-01 -1.19332420E-01 -1.60854152E-01  1.14345644E+00
  1.00000000E+00  1.00000000E+00  1.83473713E-03  1.40373228E-02  6.88426223E-02
  2.32184443E-01  4.67941348E-01  3.62311985E-01 -1.19332420E-01 -1.60854152E-01
  1.14345644E+00  1.00000000E+00  1.00000000E+00  1.83473713E-03  1.40373228E-02
  6.88426223E-02  2.32184443E-01  4.67941348E-01  3.62311985E-01 -1.19332420E-01
 -1.60854152E-01  1.14345644E+00  1.00000000E+00  1.00000000E+00  3.34946043E-02
  2.34726953E-01  8.13757326E-01  1.00000000E+00  3.34946043E-02  2.34726953E-01
  8.13757326E-01  1.00000000E+00  3.34946043E-02  2.34726953E-01  8.13757326E-01
  1.00000000E+00  3.34946043E-02  2.34726953E-01  8.13757326E-01  1.00000000E+00
  3.34946043E-02  2.34726953E-01  8.13757326E-01  1.00000000E+00  3.34946043E-02
  2.34726953E-01  8.13757326E-01  1.00000000E+00
P(S=P) Contraction coefficients            R   N=          68
  0.00000000E+00  0.00000000E+00  0.00000000E+00  0.00000000E+00  0.00000000E+00
  0.00000000E+00  6.89990666E-02  3.16423961E-01  7.44308291E-01  1.00000000E+00
  0.00000000E+00  0.00000000E+00  0.00000000E+00  0.00000000E+00  0.00000000E+00
  0.00000000E+00  0.00000000E+00  6.89990666E-02  3.16423961E-01  7.44308291E-01
  1.00000000E+00  0.00000000E+00  0.00000000E+00  0.00000000E+00  0.00000000E+00
  0.00000000E+00  0.00000000E+00  0.00000000E+00  6.89990666E-02  3.16423961E-01
  7.44308291E-01  1.00000000E+00  0.00000000E+00  0.00000000E+00  0.00000000E+00
  0.00000000E+00  0.00000000E+00  0.00000000E+00  0.00000000E+00  6.89990666E-02
  3.16423961E-01  7.44308291E-01  1.00000000E+00  0.00000000E+00  0.00000000E+00
  0.00000000E+00  0.00000000E+00  0.00000000E+00  0.00000000E+00  0.00000000E+00
  0.00000000E+00  0.00000000E+00  0.00000000E+00  0.00000000E+00  0.00000000E+00
  0.00000000E+00  0.00000000E+00  0.00000000E+00  0.00000000E+00  0.00000000E+00
  0.00000000E+00  0.00000000E+00  0.00000000E+00  0.00000000E+00  0.00000000E+00
  0.00000000E+00  0.00000000E+00  0.00000000E+00
Coordinates of each shell                  R   N=          84
 -1.14514619E+00 -7.65388742E-01 -5.44090553E-06 -1.14514619E+00 -7.65388742E-01
 -5.44090553E-06 -1.14514619E+00 -7.65388742E-01 -5.44090553E-06 -1.14514619E+00
 -7.65388742E-01 -5.44090553E-06  1.14514680E+00  7.65391121E-01 -5.42916815E-06
  1.14514680E+00  7.65391121E-01 -5.42916815E-06  1.14514680E+00  7.65391121E-01
 -5.42916815E-06  1.14514680E+00  7.65391121E-01 -5.42916815E-06 -3.49109532E+00
  2.07617332E-01  5.30119968E-06 -3.49109532E+00  2.07617332E-01  5.30119968E-06
 -3.49109532E+00  2.07617332E-01  5.30119968E-06 -3.49109532E+00  2.07617332E-01
  5.30119968E-06  3.49109458E+00 -2.07618843E-01  5.30736515E-06  3.49109458E+00
 -2.07618843E-01  5.30736515E-06  3.49109458E+00 -2.07618843E-01  5.30736515E-06
  3.49109458E+00 -2.07618843E-01  5.30736515E-06 -8.92835379E-01 -2.80968298E+00
 -1.50479931E-05 -8.92835379E-01 -2.80968298E+00 -1.50479931E-05  8.92839463E-01
  2.80968572E+00 -1.50037856E-05  8.92839463E-01  2.80968572E+00 -1.50037856E-05
 -5.15526242E+00 -9.88942518E-01  4.84297213E-06 -5.15526242E+00 -9.88942518E-01
  4.84297213E-06 -3.80828459E+00  2.23640134E+00  1.09584426E-05 -3.80828459E+00
  2.23640134E+00  1.09584426E-05  5.15526463E+00  9.88936948E-01  4.87786543E-06
  5.15526463E+00  9.88936948E-01  4.87786543E-06  3.80827907E+00 -2.23640372E+00
  1.09415516E-05  3.80827907E+00 -2.23640372E+00  1.09415516E-05
Constraint Structure                       R   N=          30
 -1.14514619E+00 -7.65388742E-01 -5.44090553E-06  1.14514680E+00  7.65391121E-01
 -5.42916815E-06 -3.49109532E+00  2.07617332E-01  5.30119968E-06  3.49109458E+00
 -2.07618843E-01  5.30736515E-06 -8.92835379E-01 -2.80968298E+00 -1.50479931E-05
  8.92839463E-01  2.80968572E+00 -1.50037856E-05 -5.15526242E+00 -9.88942518E-01
  4.84297213E-06 -3.80828459E+00  2.23640134E+00  1.09584426E-05  5.15526463E+00
  9.88936948E-01  4.87786543E-06  3.80827907E+00 -2.23640372E+00  1.09415516E-05
Num ILSW                                   I              100
ILSW                                       I   N=         100
           0           1           0           0           2           0
           0           0           0           0           0          -1
           0           0           0           0           0           0
           0           0           0           0           1           0
           1           0           0           0           0           0
           0           0      100000           0          -1           0
           0           0           0           0           0           0
           0           0           0           1           1           0
           0           0           1           0           0           0
           0           0           4          40           0           0
           0           0           0           0           0           0
           0           0           0           0           0           0
           0           0           0           0           0           0
           0           0           0           0           0           0
           0           0           0           0           0           0
           0           0           0           0           0           0
           0           0           0           0
Num RLSW                                   I               40
RLSW                                       R   N=          40
  1.00000000E+00  1.00000000E+00  1.00000000E+00  1.00000000E+00  1.00000000E+00
  0.00000000E+00  0.00000000E+00  1.00000000E+00  0.00000000E+00  0.00000000E+00
  0.00000000E+00  0.00000000E+00  1.00000000E+00  0.00000000E+00  0.00000000E+00
  0.00000000E+00  0.00000000E+00  1.00000000E+00  0.00000000E+00  0.00000000E+00
  0.00000000E+00  0.00000000E+00  1.00000000E+00  0.00000000E+00  0.00000000E+00
  0.00000000E+00  0.00000000E+00  1.00000000E+00  0.00000000E+00  0.00000000E+00
  0.00000000E+00  0.00000000E+00  0.00000000E+00  0.00000000E+00  0.00000000E+00
  0.00000000E+00  0.00000000E+00  0.00000000E+00  1.00000000E+00  1.00000000E+00
MxBond                                     I                3
NBond                                      I   N=          10
           3           3           3           3           1           1
           1           1           1           1
IBond                                      I   N=          30
           2           3           5           1           4           6
           1           7           8           2           9          10
           1           0           0           2           0           0
           3           0           0           3           0           0
           4           0           0           4           0           0
RBond                                      R   N=          30
  1.00000000E+00  2.00000000E+00  1.00000000E+00  1.00000000E+00  2.00000000E+00
  1.00000000E+00  2.00000000E+00  1.00000000E+00  1.00000000E+00  2.00000000E+00
  1.00000000E+00  1.00000000E+00  1.00000000E+00  0.00000000E+00  0.00000000E+00
  1.00000000E+00  0.00000000E+00  0.00000000E+00  1.00000000E+00  0.00000000E+00
  0.00000000E+00  1.00000000E+00  0.00000000E+00  0.00000000E+00  1.00000000E+00
  0.00000000E+00  0.00000000E+00  1.00000000E+00  0.00000000E+00  0.00000000E+00
Virial Ratio                               R      2.002076293163839E+00
SCF Energy                                 R     -1.549179918442054E+02
MP2 Energy                                 R     -1.554226556619492E+02
Total Energy                               R     -1.554226556619492E+02
Post-SCF wavefunction norm                 R      1.539190613147695E+00
RMS Force                                  R      2.587283307839127E-06
RMS Density                                R      8.011833423740264E-10
External E-field                           R   N=          35
  0.00000000E+00  0.00000000E+00  0.00000000E+00  0.00000000E+00  0.00000000E+00
  0.00000000E+00  0.00000000E+00  0.00000000E+00  0.00000000E+00  0.00000000E+00
  0.00000000E+00  0.00000000E+00  0.00000000E+00  0.00000000E+00  0.00000000E+00
  0.00000000E+00  0.00000000E+00  0.00000000E+00  0.00000000E+00  0.00000000E+00
  0.00000000E+00  0.00000000E+00  0.00000000E+00  0.00000000E+00  0.00000000E+00
  0.00000000E+00  0.00000000E+00  0.00000000E+00  0.00000000E+00  0.00000000E+00
  0.00000000E+00  0.00000000E+00  0.00000000E+00  0.00000000E+00  0.00000000E+00
IOpCl                                      I                0
IROHF                                      I                0
Alpha Orbital Energies                     R   N=          72
 -1.12386629E+01 -1.12378618E+01 -1.12289938E+01 -1.12289878E+01 -1.08466967E+00
 -9.92643586E-01 -8.21913423E-01 -7.49480216E-01 -6.38261456E-01 -6.28816207E-01
 -5.51066223E-01 -5.40123871E-01 -4.90951010E-01 -4.37204175E-01 -3.15537762E-01
  1.26675479E-01  2.57656126E-01  2.60660148E-01  2.69113573E-01  2.75392883E-01
  3.29737096E-01  3.47947296E-01  3.59521799E-01  4.90655947E-01  4.94858932E-01
  5.76018042E-01  6.78388607E-01  7.08386604E-01  7.57141718E-01  8.00323737E-01
  8.17417052E-01  8.45744097E-01  9.05376650E-01  9.07412844E-01  9.19142289E-01
  9.44456554E-01  1.11637616E+00  1.12376701E+00  1.12893095E+00  1.16775098E+00
  1.19940580E+00  1.21761233E+00  1.22021857E+00  1.29746432E+00  1.35407783E+00
  1.36645558E+00  1.58059474E+00  1.59767706E+00  1.61147555E+00  1.70289562E+00
  1.82059656E+00  1.94470755E+00  2.06119481E+00  2.12448073E+00  2.19193108E+00
  2.26037354E+00  2.37223371E+00  2.41554364E+00  2.44434161E+00  2.48349494E+00
  2.64727010E+00  2.73463963E+00  2.73857074E+00  2.80627196E+00  2.94971966E+00
  3.08534007E+00  3.28484321E+00  3.35288449E+00  4.51064656E+00  4.54911803E+00
  4.63510114E+00  4.86641293E+00
Alpha MO coefficients                      R   N=        5184
  7.01575822E-01  1.93969078E-02  4.81472784E-05  5.59343119E-05  9.00506211E-10
 -6.34316147E-03  1.05776126E-03 -6.60849385E-04 -5.13263636E-09 -1.35161748E-03
 -1.59222915E-03 -1.76319885E-03 -2.18810238E-04 -2.13496782E-09  2.55066735E-09
  7.01594280E-01  1.93974165E-02 -4.81515429E-05 -5.59401005E-05  8.99686800E-10
 -6.34346872E-03 -1.05772988E-03  6.60888866E-04 -5.13024746E-09 -1.35163613E-03
 -1.59225569E-03 -1.76324025E-03 -2.18807511E-04  2.13402006E-09 -2.54730897E-09
  5.66793846E-02  1.24990673E-03 -1.49531714E-04  2.64275588E-05 -2.27201056E-10
  2.63736026E-03  1.39400192E-03 -6.13946166E-05 -2.85723350E-09 -2.38189639E-04
 -2.90577983E-04 -2.24144421E-04  2.69258951E-05  2.28897915E-10 -3.41527763E-10
  5.66812309E-02  1.24995456E-03  1.49534199E-04 -2.64298120E-05 -2.26760172E-10
  2.63742141E-03 -1.39403192E-03  6.13997542E-05 -2.86018807E-09 -2.38199640E-04
 -2.90587990E-04 -2.24149106E-04  2.69273733E-05 -2.29184677E-10  3.40492500E-10
 -1.80883293E-04  9.95083174E-04 -1.80884529E-04  9.95119404E-04 -2.84344093E-05
  3.06837259E-04 -1.09218229E-04 -1.60259995E-04 -2.84354893E-05  3.06839596E-04
 -1.09219658E-04 -1.60262385E-04  7.01344891E-01  1.93113035E-02  1.77909331E-04
  2.18330327E-04  2.97082680E-10 -1.14912153E-02 -1.18536797E-03 -1.29128006E-03
 -1.03977254E-09 -6.57841662E-04 -1.02738989E-03 -1.58153225E-03  1.14638072E-04
 -2.31749885E-09  1.41810745E-09 -7.01326388E-01 -1.93107917E-02  1.77907911E-04
  2.18329299E-04 -2.94524416E-10  1.14910475E-02 -1.18539546E-03 -1.29126309E-03
  1.02460132E-09  6.57807711E-04  1.02734638E-03  1.58148556E-03 -1.14643979E-04
 -2.32119034E-09  1.40911748E-09  6.28135486E-02  1.62409747E-03 -1.15792904E-04
  8.07854772E-05  1.35171624E-09  2.24307879E-03  1.08454230E-03 -1.19100201E-04
 -5.75448477E-09 -3.78888180E-04 -3.66507557E-04 -1.62198953E-04  5.41535965E-05
  7.23194107E-10 -1.28722321E-09 -6.28123201E-02 -1.62407274E-03 -1.15788599E-04
  8.07845095E-05 -1.35154381E-09 -2.24300601E-03  1.08450508E-03 -1.19101514E-04
  5.75559136E-09  3.78882463E-04  3.66500345E-04  1.62193582E-04 -5.41523559E-05
  7.23616638E-10 -1.28450919E-09 -2.63162534E-05  1.43247910E-03  2.63117582E-05
 -1.43245245E-03 -3.01240423E-05  6.94276744E-05 -5.34158709E-05 -5.70197019E-05
  3.01233258E-05 -6.94199357E-05  5.34129546E-05  5.70139472E-05 -5.67960501E-02
 -1.83739668E-03  1.11578679E-04 -4.52815240E-05 -9.47396216E-10  3.04979980E-03
 -8.53006210E-04  1.15818388E-04  3.55059385E-09 -4.52431330E-05 -6.08236396E-05
  7.71354516E-05  4.31384058E-05  1.39511192E-09 -9.38752619E-10 -5.74483123E-02
 -1.85671778E-03 -1.13242263E-04  4.65516601E-05 -9.54017430E-10  3.09364867E-03
  8.66057906E-04 -1.23712007E-04  3.61164718E-09 -4.76814844E-05 -6.22140556E-05
  7.81691674E-05  4.26447097E-05 -1.40108468E-09  9.42069045E-10  6.98097758E-01
  1.92116487E-02  4.96476805E-05 -5.42632708E-07 -4.12774838E-10 -7.85813002E-03
 -2.95873717E-04  1.64330795E-04  2.13457902E-09 -1.13860034E-03 -1.36349536E-03
 -1.75861275E-03 -9.70060900E-05 -2.42205368E-09  1.56958397E-09  7.05323866E-01
  1.94110509E-02 -5.00050307E-05  5.69708740E-07 -4.22487120E-10 -7.94889699E-03
  3.04920269E-04 -1.65761393E-04  2.19326151E-09 -1.15054800E-03 -1.37730696E-03
 -1.77665408E-03 -9.82770541E-05  2.44622824E-09 -1.58350154E-09 -5.98748732E-05
 -3.31918885E-04 -5.99453373E-05 -3.32859602E-04 -1.10591947E-04  1.50641686E-03
 -1.08526095E-04  1.51449680E-03 -1.11657608E-04  1.52054686E-03 -1.09172643E-04
  1.52991980E-03 -6.35621009E-02 -1.88376319E-03  1.62051819E-04 -1.23445055E-04
 -7.02782139E-10  4.27083238E-03 -1.27089360E-03  7.66487175E-04  5.61763196E-09
 -2.36843919E-04 -1.35247640E-04  1.00635739E-04 -4.77088721E-05  6.22714764E-10
 -5.65138914E-10  6.29736277E-02  1.86473404E-03  1.60893014E-04 -1.22972164E-04
  6.91790570E-10 -4.23917697E-03 -1.26203264E-03  7.65253200E-04 -5.57611014E-09
  2.36364241E-04  1.34613432E-04 -9.98359689E-05  4.81507371E-05  6.09464539E-10
 -5.51430707E-10  7.04816773E-01  1.94490328E-02  3.49358700E-05 -2.66049056E-06
 -9.79823480E-10 -8.84850468E-03 -8.79395340E-04  1.39777162E-04  6.27848371E-09
 -1.16530588E-03 -1.34733138E-03 -1.75981799E-03 -1.23822560E-04 -2.18061803E-09
  1.94504241E-09 -6.97585374E-01 -1.92500208E-02  3.44220570E-05 -2.65437569E-06
  9.75176380E-10  8.76705378E-03 -8.76299172E-04  1.38076273E-04 -6.25270392E-09
  1.15351058E-03  1.33320857E-03  1.74160158E-03  1.22816180E-04 -2.15698174E-09
  1.92261116E-09 -7.15208320E-06 -9.30046289E-05  6.53491950E-06  8.95803814E-05
 -1.03949206E-04  1.37899313E-03 -6.33358549E-05  1.50437799E-03  1.02804434E-04
 -1.36339569E-03  6.22138636E-05 -1.48869134E-03 -1.33181570E-01  2.56360604E-01
  5.67265651E-03  5.08733035E-02  2.14599773E-07  1.67906379E-01  1.54284355E-02
 -7.68774661E-03 -3.42916954E-08  1.37257911E-02  6.34462501E-03 -1.12909728E-02
  1.77911502E-03 -6.48673405E-08  8.46971158E-08 -1.33181576E-01  2.56360623E-01
 -5.67259680E-03 -5.08734707E-02  2.14094995E-07  1.67906349E-01 -1.54283333E-02
  7.68775150E-03 -3.41617013E-08  1.37257743E-02  6.34463975E-03 -1.12909709E-02
  1.77911474E-03  6.49531606E-08 -8.44022826E-08 -8.86033019E-02  1.67102916E-01
  7.29740216E-02 -2.17647077E-02 -3.27714277E-07  1.35195798E-01  1.11904119E-02
 -2.93807038E-03 -7.75447490E-08  1.02919808E-02  2.34180358E-03 -7.22288101E-03
 -3.52616979E-03 -7.15769659E-08  4.31349133E-08 -8.86033690E-02  1.67103047E-01
 -7.29740451E-02  2.17647898E-02 -3.27542936E-07  1.35195862E-01 -1.11904136E-02
  2.93805382E-03 -7.75168819E-08  1.02919831E-02  2.34181639E-03 -7.22288817E-03
 -3.52618469E-03  7.16121030E-08 -4.29935808E-08  6.51655991E-02  5.99410976E-03
  6.51655465E-02  5.99408674E-03  3.90064737E-02  4.99143869E-03  4.37419164E-02
  6.81282021E-03  3.90064853E-02  4.99144826E-03  4.37419823E-02  6.81283218E-03
 -8.49690542E-02  1.64460284E-01 -1.36061540E-01  1.76734490E-02  3.62637035E-07
  1.19603534E-01 -2.97944115E-02 -8.54393224E-03  8.59035984E-09  3.54071755E-03
  2.10736645E-03 -5.60564206E-03 -1.05246271E-02 -8.25595626E-08  6.09094407E-08
  8.49690136E-02 -1.64460211E-01 -1.36061353E-01  1.76735805E-02 -3.62896293E-07
 -1.19603447E-01 -2.97943571E-02 -8.54393919E-03 -8.81320197E-09 -3.54069212E-03
 -2.10739781E-03  5.60563996E-03  1.05246304E-02 -8.24604251E-08  6.08017836E-08
 -1.27592897E-01  2.41771392E-01  6.08688923E-02 -3.06275140E-02 -3.85272153E-07
  1.97750567E-01  5.38312256E-03  5.13620619E-03 -3.06475589E-08  1.20034201E-02
  7.16681532E-03 -1.06529489E-02 -3.08285313E-03 -8.81199207E-08  7.21200238E-08
  1.27592793E-01 -2.41771202E-01  6.08687985E-02 -3.06275536E-02  3.84867830E-07
 -1.97750494E-01  5.38316067E-03  5.13619937E-03  3.06663044E-08 -1.20034087E-02
 -7.16681458E-03  1.06529401E-02  3.08285413E-03 -8.82005580E-08  7.18446284E-08
  4.35407355E-02  5.63982588E-03 -4.35407603E-02 -5.63983003E-03  7.53097608E-02
  2.04315433E-02  7.12398701E-02  1.24941830E-02 -7.53096835E-02 -2.04315246E-02
 -7.12398280E-02 -1.24941684E-02  7.10624905E-02 -1.42451131E-01 -1.75457336E-01
 -1.17933697E-02  5.69280268E-07 -1.28689264E-01 -5.14042307E-02  1.17347138E-02
  2.24993233E-07 -1.23456400E-03 -1.16049954E-02  6.28702128E-03 -1.15394452E-02
 -4.18782704E-09 -4.52566609E-08  7.10624801E-02 -1.42451110E-01  1.75457333E-01
  1.17932426E-02  5.69770469E-07 -1.28689177E-01  5.14042390E-02 -1.17347803E-02
  2.24880400E-07 -1.23456465E-03 -1.16049832E-02  6.28702114E-03 -1.15394785E-02
  4.05227388E-09  4.49274022E-08 -1.08586109E-01  2.09842679E-01 -9.00818006E-02
  1.13026251E-02  2.18626067E-07  2.04503982E-01 -3.98034281E-02  4.68992262E-03
  1.06764663E-07  4.78641884E-03  1.49787633E-02 -9.41242108E-03  5.41923403E-03
 -1.19892649E-08  6.72633099E-08 -1.08586203E-01  2.09842876E-01  9.00818920E-02
 -1.13027714E-02  2.19070164E-07  2.04504158E-01  3.98035038E-02 -4.68998068E-03
  1.06964307E-07  4.78644697E-03  1.49787467E-02 -9.41242654E-03  5.41926981E-03
  1.21882423E-08 -6.68502006E-08 -6.25120045E-02 -1.88587162E-02 -6.25119603E-02
 -1.88587147E-02  1.20483966E-01  4.97994081E-02  1.01596154E-01  4.33194802E-02
  1.20484115E-01  4.97994558E-02  1.01596200E-01  4.33194970E-02  8.44476849E-02
 -1.65800401E-01  7.00984186E-03  1.78234778E-01  4.83409028E-07 -1.74613932E-01
 -8.75744243E-03  7.08914625E-02  2.55150774E-07  2.13387701E-03 -1.40843683E-02
  6.64023802E-03  6.56758507E-03  3.19652079E-08 -1.34635984E-07 -8.44477528E-02
  1.65800545E-01  7.01025471E-03  1.78234956E-01 -4.80712713E-07  1.74614191E-01
 -8.75723296E-03  7.08915277E-02 -2.54116056E-07 -2.13388703E-03  1.40843836E-02
 -6.64023613E-03 -6.56755444E-03  3.18749773E-08 -1.34246144E-07 -4.81460049E-02
  9.37026150E-02 -8.69982727E-02  1.21635527E-01  5.30421902E-07  9.84680458E-02
 -3.41499585E-02  3.89832270E-02  1.58907263E-07 -2.01195270E-04  1.21462298E-02
 -4.66416424E-03  6.81559317E-03  1.02747262E-08  2.84045532E-08  4.81459477E-02
 -9.37024899E-02 -8.69980483E-02  1.21635863E-01 -5.29233550E-07 -9.84680107E-02
 -3.41498238E-02  3.89833467E-02 -1.58557124E-07  2.01184606E-04 -1.21462114E-02
  4.66416569E-03 -6.81563238E-03  1.01302995E-08  2.81408341E-08 -1.66351014E-01
 -8.52919630E-02  1.66351144E-01  8.52920023E-02  4.48140135E-02  2.13002932E-02
  1.13762682E-01  6.49920868E-02 -4.48139510E-02 -2.13002748E-02 -1.13762727E-01
 -6.49921379E-02 -3.23895894E-02  6.85196428E-02 -1.49881139E-01  1.69075219E-01
  7.29885957E-07  3.97070427E-02 -5.12110952E-02  5.37554161E-02  1.90852854E-07
 -2.06377314E-03 -4.38200435E-03 -8.63439860E-04 -5.45528336E-03 -4.56621305E-08
 -2.85767022E-08  3.23894153E-02 -6.85193120E-02 -1.49879468E-01  1.69076787E-01
 -7.27617895E-07 -3.97066380E-02 -5.12106663E-02  5.37560593E-02 -1.90102754E-07
  2.06375819E-03  4.38203069E-03  8.63432652E-04  5.45526806E-03 -4.55873344E-08
 -2.84810645E-08  1.69839177E-02 -3.21166437E-02  2.88894023E-01  2.82548018E-02
 -8.37917058E-07 -5.83613031E-02  1.17081215E-01  2.30216497E-02 -3.43370490E-07
 -2.09286176E-04 -1.11754859E-02  2.28531126E-03 -1.57088204E-02 -8.77111042E-08
 -6.94076539E-09 -1.69838478E-02  3.21165290E-02  2.88893917E-01  2.82565514E-02
  8.39863398E-07  5.83610982E-02  1.17081290E-01  2.30224594E-02  3.44324858E-07
  2.09431894E-04  1.11752909E-02 -2.28529549E-03  1.57088604E-02 -8.74209515E-08
 -6.62125762E-09 -7.56830788E-02 -5.74296271E-02  7.56838743E-02  5.74301129E-02
 -1.65189805E-01 -1.09903574E-01 -2.85439807E-02 -2.23928758E-02  1.65190460E-01
  1.09903958E-01  2.85425022E-02  2.23919064E-02  8.25902074E-03 -1.35282594E-02
  1.72669223E-01  1.79248578E-01  5.00516029E-07 -1.56739910E-02  4.62940034E-02
  7.82662973E-02  2.72515646E-07  3.48465047E-03 -6.02163176E-03  7.25790692E-04
  5.48232766E-03  2.99530258E-08 -3.77044015E-08  8.25926398E-03 -1.35287804E-02
 -1.72670600E-01 -1.79246919E-01  4.97546278E-07 -1.56742524E-02 -4.62945755E-02
 -7.82658108E-02  2.71250860E-07  3.48468724E-03 -6.02161018E-03  7.25795115E-04
  5.48237333E-03 -2.98966425E-08  3.75477924E-08 -6.24750018E-03  1.09565214E-02
 -4.18191415E-03  2.56357199E-01  9.54715101E-07  1.47664728E-02  1.22013582E-03
  1.13564284E-01  4.49605028E-07 -7.71530901E-03  1.25611453E-02 -1.16337539E-03
 -3.00673919E-03  2.81022714E-08  2.03160596E-08 -6.24760167E-03  1.09567025E-02
  4.18385971E-03 -2.56356390E-01  9.51230190E-07  1.47668670E-02 -1.21935379E-03
 -1.13563827E-01  4.48064233E-07 -7.71530156E-03  1.25612280E-02 -1.16339394E-03
 -3.00652802E-03 -2.82000493E-08 -2.01864846E-08 -9.67131586E-02 -6.09319709E-02
 -9.67125456E-02 -6.09314650E-02 -7.76898428E-02 -5.09056216E-02  1.54459403E-01
  1.03963554E-01 -7.76882239E-02 -5.09045233E-02  1.54459260E-01  1.03963498E-01
 -1.72753755E-03  4.64436726E-03 -2.69378819E-01  1.37195838E-01  2.71743014E-06
 -1.87853311E-02 -1.06890614E-01  6.73000195E-02  1.30192718E-06  1.19726256E-02
 -1.96279502E-02  1.20250373E-03 -1.38854576E-02 -4.28396256E-08  2.24764764E-08
 -1.72749760E-03  4.64429301E-03  2.69379000E-01 -1.37196487E-01  2.71582182E-06
 -1.87853466E-02  1.06890668E-01 -6.73003846E-02  1.30105653E-06  1.19726305E-02
 -1.96279614E-02  1.20250629E-03 -1.38854939E-02  4.26754485E-08 -2.28762532E-08
 -2.09279560E-02  4.60493974E-02  2.96708852E-01 -3.74957334E-02 -2.04525278E-07
  2.24703506E-02  1.14031901E-01 -1.14603750E-02  1.43977210E-07  1.05664584E-03
 -1.06160599E-02  4.29935051E-04 -1.44500489E-02  7.13077942E-11 -2.41150770E-08
 -2.09280035E-02  4.60495125E-02 -2.96708883E-01  3.74970258E-02 -2.05684243E-07
  2.24704151E-02 -1.14031854E-01  1.14609922E-02  1.43458159E-07  1.05662473E-03
 -1.06160470E-02  4.29936192E-04 -1.44500529E-02 -3.00662494E-10  2.38567855E-08
 -1.13298300E-01 -9.47260530E-02 -1.13298555E-01 -9.47262304E-02 -1.22632216E-01
 -1.07237808E-01 -3.68617729E-02 -3.93162204E-02 -1.22631985E-01 -1.07237648E-01