
    -----------------------------------------------------------------------
          Psi4: An Open-Source Ab Initio Electronic Structure Package
                               Psi4 1.4a2.dev612 

                         Git: Rev {master} 58d3bc0 


    D. G. A. Smith, L. A. Burns, A. C. Simmonett, R. M. Parrish,
    M. C. Schieber, R. Galvelis, P. Kraus, H. Kruse, R. Di Remigio,
    A. Alenaizan, A. M. James, S. Lehtola, J. P. Misiewicz, M. Scheurer,
    R. A. Shaw, J. B. Schriber, Y. Xie, Z. L. Glick, D. A. Sirianni,
    J. S. O'Brien, J. M. Waldrop, A. Kumar, E. G. Hohenstein,
    B. P. Pritchard, B. R. Brooks, H. F. Schaefer III, A. Yu. Sokolov,
    K. Patkowski, A. E. DePrince III, U. Bozkaya, R. A. King,
    F. A. Evangelista, J. M. Turney, T. D. Crawford, C. D. Sherrill,
    J. Chem. Phys. 152(18) 184108 (2020). https://doi.org/10.1063/5.0006002

                            Additional Code Authors
    E. T. Seidl, C. L. Janssen, E. F. Valeev, M. L. Leininger,
    J. F. Gonthier, R. M. Richard, H. R. McAlexander, M. Saitow, X. Wang,
    P. Verma, and M. H. Lechner

             Previous Authors, Complete List of Code Contributors,
                       and Citations for Specific Modules
    https://github.com/psi4/psi4/blob/master/codemeta.json
    https://github.com/psi4/psi4/graphs/contributors
    http://psicode.org/psi4manual/master/introduction.html#citing-psifour

    -----------------------------------------------------------------------


    Psi4 started on: Monday, 01 February 2021 07:24AM

    Process ID: 1602
    Host:       node59.bme.utexas.edu
    PSIDATADIR: /home/xy3866/.conda/envs/test-rdkit/share/psi4
    Memory:     500.0 MiB
    Threads:    8
    
  ==> Input File <==

--------------------------------------------------------------------------
#psi4
#
memory 32 gb

molecule  {
0 1
  O        0.9417500     2.5148810    -0.6596880
  N        2.0463840     0.6978680     0.1749460
  C        0.7564320    -1.5550710    -0.8733250
  C        1.8157710    -1.7711630     0.2163790
  C       -0.4497480    -0.7926040    -0.3845090
  C        2.0266990    -0.4897580     1.0228720
  C       -0.3650830     0.5850230    -0.0943830
  C        0.9119250     1.3593610    -0.2260870
  C       -1.6913630    -1.4231620    -0.2398970
  C       -1.4723082     1.2732232     0.4321061
  C       -2.8212120    -0.7143780     0.1714760
  C       -2.7281430     0.6547360     0.4326570
  H        0.4383490    -2.5216720    -1.2799980
  H        1.2165960    -1.0011160    -1.6986390
  H        1.5065410    -2.5704870     0.9013410
  H        2.7543720    -2.0878480    -0.2534440
  H        1.2290340    -0.3883270     1.7666860
  H        2.9729880    -0.5259550     1.5704730
  H        2.8793190     1.2773810     0.1528780
  H       -1.7755450    -2.4842720    -0.4701710
  H       -1.4080790     2.3720960     0.4641940
  H       -3.7741480    -1.2278540     0.2772780
  H       -3.6082280     1.2145190     0.7397060
units angstrom
no_reorient  #important for SAPT in psi4, default
symmetry c1  #important for SAPT in psi4, default
}

set PROPERTIES_ORIGIN ["COM"]
properties('MP2/aug-cc-pvtz', properties = ['dipole'])
--------------------------------------------------------------------------

  Memory set to  29.802 GiB by Python driver.
    SCF Algorithm Type (re)set to DF.

*** tstart() called on node59.bme.utexas.edu
*** at Mon Feb  1 07:24:45 2021

   => Loading Basis Set <=

    Name: AUG-CC-PVTZ
    Role: ORBITAL
    Keyword: BASIS
    atoms 1     entry O          line   331 file /home/xy3866/.conda/envs/test-rdkit/share/psi4/basis/aug-cc-pvtz.gbs 
    atoms 2     entry N          line   285 file /home/xy3866/.conda/envs/test-rdkit/share/psi4/basis/aug-cc-pvtz.gbs 
    atoms 3-12  entry C          line   239 file /home/xy3866/.conda/envs/test-rdkit/share/psi4/basis/aug-cc-pvtz.gbs 
    atoms 13-23 entry H          line    40 file /home/xy3866/.conda/envs/test-rdkit/share/psi4/basis/aug-cc-pvtz.gbs 


         ---------------------------------------------------------
                                   SCF
               by Justin Turney, Rob Parrish, Andy Simmonett
                          and Daniel G. A. Smith
                              RHF Reference
                        8 Threads,  30517 MiB Core
         ---------------------------------------------------------

  ==> Geometry <==

    Molecular point group: c1
    Full point group: C1

    Geometry (in Angstrom), charge = 0, multiplicity = 1:

       Center              X                  Y                   Z               Mass       
    ------------   -----------------  -----------------  -----------------  -----------------
         O            0.954384780268     2.468281746667    -0.657036492821    15.994914619570
         N            2.059018780268     0.651268746667     0.177597507179    14.003074004430
         C            0.769066780268    -1.601670253333    -0.870673492821    12.000000000000
         C            1.828405780268    -1.817762253333     0.219030507179    12.000000000000
         C           -0.437113219732    -0.839203253333    -0.381857492821    12.000000000000
         C            2.039333780268    -0.536357253333     1.025523507179    12.000000000000
         C           -0.352448219732     0.538423746667    -0.091731492821    12.000000000000
         C            0.924559780268     1.312761746667    -0.223435492821    12.000000000000
         C           -1.678728219732    -1.469761253333    -0.237245492821    12.000000000000
         C           -1.459673419732     1.226623946667     0.434757607179    12.000000000000
         C           -2.808577219732    -0.760977253333     0.174127507179    12.000000000000
         C           -2.715508219732     0.608136746667     0.435308507179    12.000000000000
         H            0.450983780268    -2.568271253333    -1.277346492821     1.007825032230
         H            1.229230780268    -1.047715253333    -1.695987492821     1.007825032230
         H            1.519175780268    -2.617086253333     0.903992507179     1.007825032230
         H            2.767006780268    -2.134447253333    -0.250792492821     1.007825032230
         H            1.241668780268    -0.434926253333     1.769337507179     1.007825032230
         H            2.985622780268    -0.572554253333     1.573124507179     1.007825032230
         H            2.891953780268     1.230781746667     0.155529507179     1.007825032230
         H           -1.762910219732    -2.530871253333    -0.467519492821     1.007825032230
         H           -1.395444219732     2.325496746667     0.466845507179     1.007825032230
         H           -3.761513219732    -1.274453253333     0.279929507179     1.007825032230
         H           -3.595593219732     1.167919746667     0.742357507179     1.007825032230

  Running in c1 symmetry.

  Rotational constants: A =      0.04806  B =      0.03115  C =      0.02128 [cm^-1]
  Rotational constants: A =   1440.89724  B =    933.97287  C =    637.88429 [MHz]
  Nuclear repulsion =  684.992023686307220

  Charge       = 0
  Multiplicity = 1
  Electrons    = 86
  Nalpha       = 43
  Nbeta        = 43

  ==> Algorithm <==

  SCF Algorithm Type is DF.
  DIIS enabled.
  MOM disabled.
  Fractional occupation disabled.
  Guess Type is SAD.
  Energy threshold   = 1.00e-10
  Density threshold  = 1.00e-10
  Integral threshold = 0.00e+00

  ==> Primary Basis <==

  Basis Set: AUG-CC-PVTZ
    Blend: AUG-CC-PVTZ
    Number of shells: 267
    Number of basis function: 805
    Number of Cartesian functions: 935
    Spherical Harmonics?: true
    Max angular momentum: 3

   => Loading Basis Set <=

    Name: (AUG-CC-PVTZ AUX)
    Role: JKFIT
    Keyword: DF_BASIS_SCF
    atoms 1     entry O          line   286 file /home/xy3866/.conda/envs/test-rdkit/share/psi4/basis/aug-cc-pvtz-jkfit.gbs 
    atoms 2     entry N          line   224 file /home/xy3866/.conda/envs/test-rdkit/share/psi4/basis/aug-cc-pvtz-jkfit.gbs 
    atoms 3-12  entry C          line   162 file /home/xy3866/.conda/envs/test-rdkit/share/psi4/basis/aug-cc-pvtz-jkfit.gbs 
    atoms 13-23 entry H          line    70 file /home/xy3866/.conda/envs/test-rdkit/share/psi4/basis/aug-cc-pvtz-jkfit.gbs 

  ==> Integral Setup <==

  DFHelper Memory: AOs need 8.206 GiB; user supplied 22.352 GiB. Using in-core AOs.

  ==> MemDFJK: Density-Fitted J/K Matrices <==

    J tasked:                   Yes
    K tasked:                   Yes
    wK tasked:                   No
    OpenMP threads:               8
    Memory [MiB]:             22888
    Algorithm:                 Core
    Schwarz Cutoff:           1E-12
    Mask sparsity (%):       5.3662
    Fitting Condition:        1E-10

   => Auxiliary Basis Set <=

  Basis Set: (AUG-CC-PVTZ AUX)
    Blend: AUG-CC-PVTZ-JKFIT
    Number of shells: 514
    Number of basis function: 1754
    Number of Cartesian functions: 2177
    Spherical Harmonics?: true
    Max angular momentum: 4

  Minimum eigenvalue in the overlap matrix is 7.4406430266E-07.
  Reciprocal condition number of the overlap matrix is 3.2245657503E-08.
    Using symmetric orthogonalization.

  ==> Pre-Iterations <==

  SCF Guess: Superposition of Atomic Densities via on-the-fly atomic UHF (no occupation information).

   -------------------------
    Irrep   Nso     Nmo    
   -------------------------
     A        805     805 
   -------------------------
    Total     805     805
   -------------------------

  ==> Iterations <==

                           Total Energy        Delta E     RMS |[F,P]|

   @DF-RHF iter SAD:  -514.35980094980823   -5.14360e+02   0.00000e+00 
   @DF-RHF iter   1:  -514.23073787286148    1.29063e-01   9.85000e-04 DIIS
   @DF-RHF iter   2:  -514.51207272568820   -2.81335e-01   5.18970e-04 DIIS
   @DF-RHF iter   3:  -514.58407680833830   -7.20041e-02   1.04129e-04 DIIS
   @DF-RHF iter   4:  -514.58861736256767   -4.54055e-03   4.38208e-05 DIIS
   @DF-RHF iter   5:  -514.58926286403312   -6.45501e-04   1.00107e-05 DIIS
   @DF-RHF iter   6:  -514.58932636230520   -6.34983e-05   4.71117e-06 DIIS
   @DF-RHF iter   7:  -514.58933988825447   -1.35259e-05   1.83901e-06 DIIS
   @DF-RHF iter   8:  -514.58934327366978   -3.38542e-06   8.60370e-07 DIIS
   @DF-RHF iter   9:  -514.58934391951959   -6.45850e-07   3.16270e-07 DIIS
   @DF-RHF iter  10:  -514.58934401820090   -9.86813e-08   9.73819e-08 DIIS
   @DF-RHF iter  11:  -514.58934402744876   -9.24786e-09   3.61150e-08 DIIS
   @DF-RHF iter  12:  -514.58934402878970   -1.34094e-09   1.70751e-08 DIIS
   @DF-RHF iter  13:  -514.58934402914656   -3.56863e-10   7.65905e-09 DIIS
   @DF-RHF iter  14:  -514.58934402924899   -1.02432e-10   3.60553e-09 DIIS
   @DF-RHF iter  15:  -514.58934402926741   -1.84173e-11   1.69860e-09 DIIS
   @DF-RHF iter  16:  -514.58934402926991   -2.50111e-12   5.96189e-10 DIIS
   @DF-RHF iter  17:  -514.58934402927116   -1.25056e-12   1.78707e-10 DIIS
   @DF-RHF iter  18:  -514.58934402927412   -2.95586e-12   6.90813e-11 DIIS
  Energy and wave function converged.


  ==> Post-Iterations <==

    Orbital Energies [Eh]
    ---------------------

    Doubly Occupied:                                                      

       1A    -20.516267     2A    -15.583169     3A    -11.352192  
       4A    -11.275807     5A    -11.257592     6A    -11.249456  
       7A    -11.248105     8A    -11.246905     9A    -11.243144  
      10A    -11.241967    11A    -11.239342    12A    -11.237994  
      13A     -1.369769    14A     -1.235264    15A     -1.163722  
      16A     -1.082063    17A     -1.036774    18A     -1.020016  
      19A     -0.938267    20A     -0.881474    21A     -0.841080  
      22A     -0.797732    23A     -0.775464    24A     -0.697243  
      25A     -0.685852    26A     -0.670964    27A     -0.652973  
      28A     -0.622729    29A     -0.616075    30A     -0.597797  
      31A     -0.587543    32A     -0.575623    33A     -0.556964  
      34A     -0.535733    35A     -0.519154    36A     -0.509162  
      37A     -0.491362    38A     -0.488824    39A     -0.478168  
      40A     -0.423674    41A     -0.389645    42A     -0.344263  
      43A     -0.335710  

    Virtual:                                                              

      44A      0.023424    45A      0.028657    46A      0.031370  
      47A      0.037559    48A      0.042983    49A      0.045868  
      50A      0.055034    51A      0.056014    52A      0.062677  
      53A      0.063960    54A      0.069111    55A      0.084009  
      56A      0.090688    57A      0.096182    58A      0.098641  
      59A      0.102368    60A      0.105757    61A      0.110067  
      62A      0.112445    63A      0.114669    64A      0.118087  
      65A      0.119223    66A      0.124939    67A      0.125782  
      68A      0.129117    69A      0.134411    70A      0.140567  
      71A      0.141565    72A      0.144295    73A      0.147539  
      74A      0.150282    75A      0.155991    76A      0.160556  
      77A      0.163301    78A      0.165203    79A      0.172410  
      80A      0.174106    81A      0.174518    82A      0.177295  
      83A      0.187723    84A      0.189177    85A      0.201467  
      86A      0.206118    87A      0.210923    88A      0.213260  
      89A      0.224962    90A      0.228421    91A      0.230848  
      92A      0.237000    93A      0.239766    94A      0.243801  
      95A      0.249033    96A      0.255722    97A      0.260751  
      98A      0.265167    99A      0.272367   100A      0.278487  
     101A      0.282283   102A      0.286671   103A      0.292594  
     104A      0.294882   105A      0.298574   106A      0.301665  
     107A      0.303201   108A      0.306970   109A      0.312327  
     110A      0.318200   111A      0.321276   112A      0.322622  
     113A      0.326466   114A      0.333721   115A      0.335919  
     116A      0.336957   117A      0.341957   118A      0.348003  
     119A      0.353938   120A      0.356097   121A      0.362210  
     122A      0.363525   123A      0.370603   124A      0.373172  
     125A      0.383022   126A      0.383356   127A      0.385190  
     128A      0.394762   129A      0.402286   130A      0.406327  
     131A      0.412189   132A      0.416443   133A      0.423388  
     134A      0.426557   135A      0.429528   136A      0.432785  
     137A      0.434039   138A      0.438830   139A      0.440960  
     140A      0.444672   141A      0.450641   142A      0.453541  
     143A      0.461990   144A      0.462481   145A      0.465067  
     146A      0.466562   147A      0.471156   148A      0.476908  
     149A      0.481849   150A      0.486579   151A      0.487532  
     152A      0.491000   153A      0.495367   154A      0.498443  
     155A      0.505461   156A      0.507031   157A      0.512220  
     158A      0.517235   159A      0.520633   160A      0.523740  
     161A      0.526617   162A      0.533580   163A      0.536655  
     164A      0.538138   165A      0.542102   166A      0.545034  
     167A      0.549717   168A      0.551525   169A      0.558678  
     170A      0.562060   171A      0.569065   172A      0.573734  
     173A      0.580266   174A      0.584149   175A      0.588860  
     176A      0.592365   177A      0.597502   178A      0.606144  
     179A      0.606896   180A      0.610700   181A      0.616716  
     182A      0.622391   183A      0.629516   184A      0.632956  
     185A      0.639593   186A      0.647661   187A      0.653140  
     188A      0.658800   189A      0.662206   190A      0.664017  
     191A      0.672213   192A      0.674826   193A      0.680619  
     194A      0.687355   195A      0.690786   196A      0.697135  
     197A      0.709597   198A      0.712460   199A      0.715115  
     200A      0.717345   201A      0.720503   202A      0.730535  
     203A      0.732762   204A      0.743085   205A      0.744074  
     206A      0.751165   207A      0.758281   208A      0.770928  
     209A      0.778761   210A      0.783628   211A      0.790293  
     212A      0.797499   213A      0.804473   214A      0.807614  
     215A      0.817357   216A      0.819065   217A      0.831115  
     218A      0.835601   219A      0.839006   220A      0.849077  
     221A      0.855323   222A      0.860259   223A      0.865841  
     224A      0.872282   225A      0.875157   226A      0.881261  
     227A      0.890319   228A      0.891337   229A      0.893502  
     230A      0.899800   231A      0.907924   232A      0.913645  
     233A      0.918831   234A      0.925282   235A      0.925685  
     236A      0.930517   237A      0.932188   238A      0.940050  
     239A      0.944549   240A      0.951890   241A      0.958551  
     242A      0.961195   243A      0.963503   244A      0.965991  
     245A      0.976519   246A      0.982287   247A      0.983851  
     248A      0.995836   249A      1.000334   250A      1.005371  
     251A      1.007797   252A      1.012532   253A      1.015663  
     254A      1.024713   255A      1.029991   256A      1.033116  
     257A      1.034337   258A      1.042641   259A      1.046094  
     260A      1.053888   261A      1.059784   262A      1.070668  
     263A      1.072644   264A      1.078976   265A      1.081277  
     266A      1.084285   267A      1.093415   268A      1.094619  
     269A      1.096983   270A      1.102975   271A      1.107886  
     272A      1.109766   273A      1.113849   274A      1.124819  
     275A      1.126630   276A      1.129841   277A      1.137917  
     278A      1.140210   279A      1.145457   280A      1.152778  
     281A      1.153055   282A      1.163410   283A      1.166191  
     284A      1.170126   285A      1.173816   286A      1.180417  
     287A      1.192066   288A      1.195114   289A      1.199135  
     290A      1.203732   291A      1.205777   292A      1.210152  
     293A      1.216236   294A      1.226293   295A      1.229614  
     296A      1.235037   297A      1.242536   298A      1.246902  
     299A      1.249774   300A      1.259545   301A      1.263068  
     302A      1.268086   303A      1.272250   304A      1.279984  
     305A      1.281189   306A      1.288072   307A      1.295368  
     308A      1.298286   309A      1.303696   310A      1.309717  
     311A      1.324824   312A      1.326988   313A      1.333001  
     314A      1.339378   315A      1.341229   316A      1.347337  
     317A      1.353973   318A      1.360420   319A      1.371865  
     320A      1.385748   321A      1.389628   322A      1.400256  
     323A      1.406779   324A      1.416056   325A      1.427328  
     326A      1.429010   327A      1.441482   328A      1.448049  
     329A      1.453114   330A      1.458533   331A      1.461916  
     332A      1.470729   333A      1.477575   334A      1.488550  
     335A      1.497168   336A      1.497987   337A      1.503191  
     338A      1.511187   339A      1.513109   340A      1.532867  
     341A      1.537557   342A      1.547887   343A      1.553465  
     344A      1.561643   345A      1.562617   346A      1.563830  
     347A      1.577305   348A      1.582918   349A      1.592440  
     350A      1.595964   351A      1.602274   352A      1.607735  
     353A      1.612659   354A      1.618542   355A      1.634958  
     356A      1.636476   357A      1.640643   358A      1.654506  
     359A      1.657994   360A      1.664988   361A      1.670448  
     362A      1.677152   363A      1.689751   364A      1.693733  
     365A      1.701510   366A      1.706163   367A      1.724293  
     368A      1.729844   369A      1.732865   370A      1.738933  
     371A      1.743815   372A      1.750269   373A      1.755997  
     374A      1.768817   375A      1.771184   376A      1.782579  
     377A      1.795056   378A      1.795877   379A      1.801026  
     380A      1.813240   381A      1.815819   382A      1.827019  
     383A      1.830144   384A      1.841748   385A      1.845972  
     386A      1.848097   387A      1.867107   388A      1.868851  
     389A      1.875095   390A      1.879626   391A      1.883996  
     392A      1.888559   393A      1.899076   394A      1.899595  
     395A      1.912620   396A      1.917959   397A      1.923910  
     398A      1.925507   399A      1.939102   400A      1.948557  
     401A      1.952742   402A      1.969326   403A      1.977720  
     404A      1.990780   405A      1.998703   406A      2.002529  
     407A      2.010691   408A      2.020042   409A      2.028352  
     410A      2.031697   411A      2.040949   412A      2.050575  
     413A      2.052803   414A      2.062249   415A      2.068225  
     416A      2.073369   417A      2.083359   418A      2.095006  
     419A      2.101871   420A      2.113064   421A      2.115151  
     422A      2.129744   423A      2.134659   424A      2.138093  
     425A      2.146664   426A      2.150971   427A      2.161185  
     428A      2.176194   429A      2.178166   430A      2.186834  
     431A      2.194737   432A      2.198033   433A      2.208371  
     434A      2.210155   435A      2.224169   436A      2.228876  
     437A      2.244144   438A      2.247115   439A      2.261288  
     440A      2.274169   441A      2.285807   442A      2.295427  
     443A      2.302615   444A      2.312563   445A      2.317270  
     446A      2.340482   447A      2.342259   448A      2.348455  
     449A      2.361751   450A      2.377548   451A      2.383188  
     452A      2.390351   453A      2.398953   454A      2.408640  
     455A      2.427127   456A      2.431452   457A      2.436503  
     458A      2.451546   459A      2.456404   460A      2.472512  
     461A      2.480404   462A      2.485392   463A      2.498492  
     464A      2.510292   465A      2.525511   466A      2.536521  
     467A      2.541266   468A      2.551582   469A      2.570947  
     470A      2.575218   471A      2.588250   472A      2.593900  
     473A      2.600422   474A      2.627522   475A      2.634795  
     476A      2.640868   477A      2.651734   478A      2.660812  
     479A      2.678134   480A      2.681819   481A      2.691199  
     482A      2.713661   483A      2.718572   484A      2.729894  
     485A      2.755624   486A      2.761874   487A      2.790569  
     488A      2.799487   489A      2.806271   490A      2.825217  
     491A      2.832753   492A      2.845387   493A      2.862191  
     494A      2.874806   495A      2.895667   496A      2.930568  
     497A      2.940140   498A      2.966743   499A      2.986166  
     500A      3.008193   501A      3.021100   502A      3.066886  
     503A      3.085534   504A      3.091340   505A      3.123950  
     506A      3.160200   507A      3.174121   508A      3.190190  
     509A      3.198919   510A      3.203919   511A      3.245922  
     512A      3.289404   513A      3.300718   514A      3.302834  
     515A      3.319729   516A      3.341284   517A      3.352721  
     518A      3.360690   519A      3.393974   520A      3.400429  
     521A      3.418642   522A      3.430940   523A      3.439917  
     524A      3.445816   525A      3.462206   526A      3.473282  
     527A      3.495852   528A      3.499120   529A      3.514989  
     530A      3.523150   531A      3.527074   532A      3.534076  
     533A      3.546443   534A      3.567822   535A      3.582679  
     536A      3.588678   537A      3.594172   538A      3.600339  
     539A      3.604584   540A      3.615315   541A      3.622427  
     542A      3.629930   543A      3.643278   544A      3.646661  
     545A      3.657508   546A      3.677705   547A      3.688558  
     548A      3.692332   549A      3.707161   550A      3.714877  
     551A      3.725508   552A      3.731410   553A      3.746020  
     554A      3.756636   555A      3.763634   556A      3.769772  
     557A      3.782861   558A      3.796844   559A      3.797306  
     560A      3.805740   561A      3.823928   562A      3.830216  
     563A      3.837826   564A      3.842250   565A      3.846641  
     566A      3.867764   567A      3.877013   568A      3.880770  
     569A      3.888073   570A      3.894910   571A      3.908153  
     572A      3.924433   573A      3.928104   574A      3.929549  
     575A      3.934011   576A      3.941376   577A      3.947484  
     578A      3.967948   579A      3.972590   580A      3.973675  
     581A      3.991074   582A      3.995421   583A      4.005870  
     584A      4.012127   585A      4.030609   586A      4.037380  
     587A      4.042781   588A      4.045605   589A      4.054421  
     590A      4.065111   591A      4.078458   592A      4.081638  
     593A      4.091031   594A      4.101501   595A      4.109790  
     596A      4.116886   597A      4.127640   598A      4.135113  
     599A      4.144101   600A      4.165254   601A      4.177454  
     602A      4.180238   603A      4.190552   604A      4.201612  
     605A      4.211357   606A      4.216923   607A      4.226224  
     608A      4.233167   609A      4.240293   610A      4.253800  
     611A      4.264543   612A      4.272596   613A      4.283842  
     614A      4.295677   615A      4.307668   616A      4.316853  
     617A      4.328913   618A      4.337030   619A      4.353477  
     620A      4.360496   621A      4.366433   622A      4.371399  
     623A      4.379861   624A      4.392292   625A      4.398709  
     626A      4.405029   627A      4.411206   628A      4.412584  
     629A      4.421265   630A      4.433864   631A      4.443219  
     632A      4.457468   633A      4.460315   634A      4.470710  
     635A      4.475304   636A      4.491141   637A      4.499101  
     638A      4.516685   639A      4.530250   640A      4.537444  
     641A      4.547541   642A      4.555188   643A      4.557452  
     644A      4.577411   645A      4.600505   646A      4.608605  
     647A      4.629306   648A      4.635142   649A      4.645405  
     650A      4.649221   651A      4.676543   652A      4.689505  
     653A      4.697515   654A      4.706948   655A      4.716698  
     656A      4.726084   657A      4.741845   658A      4.758226  
     659A      4.764563   660A      4.778324   661A      4.783417  
     662A      4.793503   663A      4.802637   664A      4.821295  
     665A      4.832062   666A      4.837763   667A      4.857954  
     668A      4.875387   669A      4.880724   670A      4.892762  
     671A      4.915750   672A      4.930263   673A      4.934111  
     674A      4.949875   675A      4.964088   676A      4.975465  
     677A      4.978674   678A      5.014776   679A      5.023742  
     680A      5.034806   681A      5.050500   682A      5.065237  
     683A      5.069551   684A      5.072379   685A      5.085265  
     686A      5.096059   687A      5.113861   688A      5.124015  
     689A      5.130572   690A      5.139771   691A      5.149908  
     692A      5.152816   693A      5.159404   694A      5.171980  
     695A      5.190477   696A      5.197837   697A      5.210088  
     698A      5.218125   699A      5.228654   700A      5.235886  
     701A      5.264913   702A      5.270652   703A      5.277812  
     704A      5.292607   705A      5.310083   706A      5.331760  
     707A      5.335171   708A      5.346206   709A      5.360975  
     710A      5.370942   711A      5.389975   712A      5.397195  
     713A      5.417857   714A      5.443052   715A      5.444822  
     716A      5.472993   717A      5.475727   718A      5.498973  
     719A      5.513938   720A      5.521011   721A      5.539467  
     722A      5.551027   723A      5.578933   724A      5.582492  
     725A      5.604003   726A      5.638834   727A      5.647960  
     728A      5.672201   729A      5.685750   730A      5.697907  
     731A      5.721117   732A      5.725269   733A      5.729394  
     734A      5.749141   735A      5.773422   736A      5.798799  
     737A      5.806983   738A      5.830038   739A      5.855797  
     740A      5.886919   741A      5.888301   742A      5.924615  
     743A      5.962898   744A      5.988676   745A      6.022094  
     746A      6.044284   747A      6.103361   748A      6.118001  
     749A      6.144414   750A      6.158083   751A      6.174330  
     752A      6.208949   753A      6.219281   754A      6.244144  
     755A      6.266959   756A      6.271526   757A      6.310479  
     758A      6.337847   759A      6.356986   760A      6.381526  
     761A      6.394205   762A      6.429487   763A      6.490945  
     764A      6.512259   765A      6.541600   766A      6.602041  
     767A      6.625756   768A      6.680457   769A      6.700126  
     770A      6.720517   771A      6.779803   772A      6.794803  
     773A      6.806406   774A      6.851805   775A      6.861317  
     776A      6.915543   777A      6.938361   778A      7.019470  
     779A      7.031862   780A      7.052126   781A      7.064213  
     782A      7.090570   783A      7.167051   784A      7.250994  
     785A      7.309586   786A      7.476756   787A      7.490027  
     788A      7.643835   789A      7.711018   790A      7.820385  
     791A      7.892482   792A      7.990928   793A      8.066731  
     794A     15.885868   795A     16.290323   796A     16.840497  
     797A     17.323700   798A     18.245465   799A     18.688340  
     800A     19.212074   801A     19.244608   802A     19.790941  
     803A     20.047645   804A     21.103990   805A     21.407631  

    Final Occupation by Irrep:
              A 
    DOCC [    43 ]

  @DF-RHF Final Energy:  -514.58934402927412

   => Energetics <=

    Nuclear Repulsion Energy =            684.9920236863072205
    One-Electron Energy =               -2057.9366915882064859
    Two-Electron Energy =                 858.3553238726251493
    Total Energy =                       -514.5893440292741161

Computation Completed

*** tstop() called on node59.bme.utexas.edu at Mon Feb  1 07:25:47 2021
Module time:
	user time   =     449.67 seconds =       7.49 minutes
	system time =       9.23 seconds =       0.15 minutes
	total time  =         62 seconds =       1.03 minutes
Total time:
	user time   =     449.67 seconds =       7.49 minutes
	system time =       9.23 seconds =       0.15 minutes
	total time  =         62 seconds =       1.03 minutes
   => Loading Basis Set <=

    Name: (AUG-CC-PVTZ AUX)
    Role: RIFIT
    Keyword: DF_BASIS_MP2
    atoms 1     entry O          line   264 file /home/xy3866/.conda/envs/test-rdkit/share/psi4/basis/aug-cc-pvtz-ri.gbs 
    atoms 2     entry N          line   206 file /home/xy3866/.conda/envs/test-rdkit/share/psi4/basis/aug-cc-pvtz-ri.gbs 
    atoms 3-12  entry C          line   148 file /home/xy3866/.conda/envs/test-rdkit/share/psi4/basis/aug-cc-pvtz-ri.gbs 
    atoms 13-23 entry H          line    30 file /home/xy3866/.conda/envs/test-rdkit/share/psi4/basis/aug-cc-pvtz-ri.gbs 


*** tstart() called on node59.bme.utexas.edu
*** at Mon Feb  1 07:25:47 2021


  //>>>>>>>>>>>>>>>>>>>>>>>>>>>>>>>>>>>//
  //               DFMP2               //
  //<<<<<<<<<<<<<<<<<<<<<<<<<<<<<<<<<<<//

	 --------------------------------------------------------
	                          DF-MP2                         
	      2nd-Order Density-Fitted Moller-Plesset Theory     
	              RMP2 Wavefunction,   8 Threads             
	                                                         
	        Rob Parrish, Justin Turney, Andy Simmonett,      
	           Ed Hohenstein, and C. David Sherrill          
	 --------------------------------------------------------

   => Auxiliary Basis Set <=

  Basis Set: (AUG-CC-PVTZ AUX)
    Blend: AUG-CC-PVTZ-RI
    Number of shells: 490
    Number of basis function: 1778
    Number of Cartesian functions: 2237
    Spherical Harmonics?: true
    Max angular momentum: 4

	 --------------------------------------------------------
	                 NBF =   805, NAUX =  1778
	 --------------------------------------------------------
	   CLASS    FOCC     OCC    AOCC    AVIR     VIR    FVIR
	   PAIRS       0      43      43     762     762       0
	 --------------------------------------------------------

  DFHelper Memory: AOs need 8.206 GiB; user supplied 22.352 GiB. Using in-core AOs.


         ------------------------------------------------------------
                                     CPHF                           
                                  Rob Parrish                       
         ------------------------------------------------------------

  ==> Geometry <==

    Molecular point group: c1
    Full point group: C1

    Geometry (in Angstrom), charge = 0, multiplicity = 1:

       Center              X                  Y                   Z               Mass       
    ------------   -----------------  -----------------  -----------------  -----------------
         O            0.954384780268     2.468281746667    -0.657036492821    15.994914619570
         N            2.059018780268     0.651268746667     0.177597507179    14.003074004430
         C            0.769066780268    -1.601670253333    -0.870673492821    12.000000000000
         C            1.828405780268    -1.817762253333     0.219030507179    12.000000000000
         C           -0.437113219732    -0.839203253333    -0.381857492821    12.000000000000
         C            2.039333780268    -0.536357253333     1.025523507179    12.000000000000
         C           -0.352448219732     0.538423746667    -0.091731492821    12.000000000000
         C            0.924559780268     1.312761746667    -0.223435492821    12.000000000000
         C           -1.678728219732    -1.469761253333    -0.237245492821    12.000000000000
         C           -1.459673419732     1.226623946667     0.434757607179    12.000000000000
         C           -2.808577219732    -0.760977253333     0.174127507179    12.000000000000
         C           -2.715508219732     0.608136746667     0.435308507179    12.000000000000
         H            0.450983780268    -2.568271253333    -1.277346492821     1.007825032230
         H            1.229230780268    -1.047715253333    -1.695987492821     1.007825032230
         H            1.519175780268    -2.617086253333     0.903992507179     1.007825032230
         H            2.767006780268    -2.134447253333    -0.250792492821     1.007825032230
         H            1.241668780268    -0.434926253333     1.769337507179     1.007825032230
         H            2.985622780268    -0.572554253333     1.573124507179     1.007825032230
         H            2.891953780268     1.230781746667     0.155529507179     1.007825032230
         H           -1.762910219732    -2.530871253333    -0.467519492821     1.007825032230
         H           -1.395444219732     2.325496746667     0.466845507179     1.007825032230
         H           -3.761513219732    -1.274453253333     0.279929507179     1.007825032230
         H           -3.595593219732     1.167919746667     0.742357507179     1.007825032230

  Nuclear repulsion =  684.992023686307220
  Reference energy  = -514.589344029274116

  ==> Basis Set <==

  Basis Set: AUG-CC-PVTZ
    Blend: AUG-CC-PVTZ
    Number of shells: 267
    Number of basis function: 805
    Number of Cartesian functions: 935
    Spherical Harmonics?: true
    Max angular momentum: 3

  ==> CGRSolver (by Rob Parrish) <==

   Number of roots    =         1
   Preconditioning    =    JACOBI
   Convergence cutoff =     1E-06
   Maximum iterations =       100

  ==> CPHFRHamiltonian (by Rob Parrish) <== 

  ==> MemDFJK: Density-Fitted J/K Matrices <==

    J tasked:                   Yes
    K tasked:                   Yes
    wK tasked:                   No
    OpenMP threads:               8
    Memory [MiB]:             22888
    Algorithm:                 Core
    Schwarz Cutoff:           1E-12
    Mask sparsity (%):       5.3662
    Fitting Condition:        1E-10

   => Auxiliary Basis Set <=

  Basis Set: (AUG-CC-PVTZ AUX)
    Blend: AUG-CC-PVTZ-JKFIT
    Number of shells: 514
    Number of basis function: 1754
    Number of Cartesian functions: 2177
    Spherical Harmonics?: true
    Max angular momentum: 4

  ==> CPHF Iterations <==

  => Iterations <=

             Iter  Converged  Remaining    Residual
  CGR           1          0          1   1.166E-01
  CGR           2          0          1   3.492E-02
  CGR           3          0          1   1.572E-02
  CGR           4          0          1   6.662E-03
  CGR           5          0          1   3.332E-03
  CGR           6          0          1   1.618E-03
  CGR           7          0          1   5.342E-04
  CGR           8          0          1   1.851E-04
  CGR           9          0          1   5.811E-05
  CGR          10          0          1   1.832E-05
  CGR          11          0          1   7.437E-06
  CGR          12          0          1   2.884E-06
  CGR          13          0          1   1.430E-06
  CGR          14          1          0   5.429E-07

    CGRSolver converged.

	-----------------------------------------------------------
	 ==================> DF-MP2 Energies <==================== 
	-----------------------------------------------------------
	 Reference Energy          =    -514.5893440292741161 [Eh]
	 Singles Energy            =      -0.0000000000000000 [Eh]
	 Same-Spin Energy          =      -0.5591243686922480 [Eh]
	 Opposite-Spin Energy      =      -1.7456104575660918 [Eh]
	 Correlation Energy        =      -2.3047348262583398 [Eh]
	 Total Energy              =    -516.8940788555324843 [Eh]
	-----------------------------------------------------------
	 ================> DF-SCS-MP2 Energies <================== 
	-----------------------------------------------------------
	 SCS Same-Spin Scale       =       0.3333333333333333 [-]
	 SCS Opposite-Spin Scale   =       1.2000000000000000 [-]
	 SCS Same-Spin Energy      =      -0.1863747895640827 [Eh]
	 SCS Opposite-Spin Energy  =      -2.0947325490793101 [Eh]
	 SCS Correlation Energy    =      -2.2811073386433929 [Eh]
	 SCS Total Energy          =    -516.8704513679175534 [Eh]
	-----------------------------------------------------------



Properties will be evaluated at  -0.000000,  -0.000000,  -0.000000 [a0]

Properties computed using the MP2 density matrix

  Nuclear Dipole Moment: [e a0]
     X:     2.4081      Y:    -7.9174      Z:     2.0583

  Electronic Dipole Moment: [e a0]
     X:    -2.1565      Y:     6.4839      Z:    -1.3978

  Dipole Moment: [e a0]
     X:     0.2516      Y:    -1.4335      Z:     0.6605     Total:     1.5982

  Dipole Moment: [D]
     X:     0.6395      Y:    -3.6435      Z:     1.6788     Total:     4.0623


*** tstop() called on node59.bme.utexas.edu at Mon Feb  1 07:30:23 2021
Module time:
	user time   =    1904.19 seconds =      31.74 minutes
	system time =      29.39 seconds =       0.49 minutes
	total time  =        276 seconds =       4.60 minutes
Total time:
	user time   =    2354.10 seconds =      39.23 minutes
	system time =      38.62 seconds =       0.64 minutes
	total time  =        338 seconds =       5.63 minutes

    Psi4 stopped on: Monday, 01 February 2021 07:30AM
    Psi4 wall time for execution: 0:05:38.59

*** Psi4 exiting successfully. Buy a developer a beer!
