551610                                                                  
Freq      RMP2-FC                                                     6-31G(d)            
Number of atoms                            I               22
Info1-9                                    I   N=           9
          34          32        1002           0           0         100
           6           2           1
Charge                                     I                0
Multiplicity                               I                1
Number of electrons                        I               72
Number of alpha electrons                  I               36
Number of beta electrons                   I               36
Number of basis functions                  I              161
Number of independent functions            I              161
Number of point charges in /Mol/           I                0
Number of translation vectors              I                0
Atomic numbers                             I   N=          22
           8           8           7           6           6           6
           6           6           6           1           1           1
           1           1           1           1           1           1
           1           1           1           1
Nuclear charges                            R   N=          22
  8.00000000E+00  8.00000000E+00  7.00000000E+00  6.00000000E+00  6.00000000E+00
  6.00000000E+00  6.00000000E+00  6.00000000E+00  6.00000000E+00  1.00000000E+00
  1.00000000E+00  1.00000000E+00  1.00000000E+00  1.00000000E+00  1.00000000E+00
  1.00000000E+00  1.00000000E+00  1.00000000E+00  1.00000000E+00  1.00000000E+00
  1.00000000E+00  1.00000000E+00
Current cartesian coordinates              R   N=          66
 -2.73540849E-01  3.90373487E+00 -1.72866703E+00 -4.56089108E+00 -2.59294863E+00
 -2.32737854E-01  4.65308421E+00 -2.40043319E+00  1.22356302E-01  2.40817653E+00
 -9.02451885E-01 -5.30196005E-01  2.29961171E+00  1.40984727E+00  1.18819759E+00
  5.51923278E-02 -2.52395211E+00 -1.47714223E-01 -1.23249933E-01  2.92930319E+00
  8.00570081E-01 -2.37454904E+00 -1.03529010E+00 -5.73330205E-01 -2.45857234E+00
  1.28352332E+00  1.13723216E+00  2.42170398E+00 -2.37737471E-01 -2.50470612E+00
  2.42435987E+00  7.69308051E-01  3.15708846E+00  3.95036221E+00  2.63000950E+00
  8.53785064E-01  7.93767101E-02 -4.16627392E+00 -1.41362435E+00  8.85390318E-02
 -3.25023864E+00  1.80029144E+00 -1.83666564E-01  4.50153357E+00  2.16311225E+00
 -2.48195998E+00 -4.19563948E-01 -2.54334644E+00 -2.55837098E+00  6.58261109E-01
  3.11658263E+00 -4.16073116E+00  2.38790301E+00  7.36655313E-01  6.23770341E+00
 -1.36179483E+00 -2.42450973E-01  4.75017717E+00 -3.92989240E+00 -1.04953673E+00
  1.19695579E+00  4.97811500E+00 -1.98819347E+00 -4.50023904E+00 -3.20876471E+00
  1.50053152E+00
Force Field                                I                0
Int Atom Types                             I   N=          22
           0           0           0           0           0           0
           0           0           0           0           0           0
           0           0           0           0           0           0
           0           0           0           0
MM charges                                 R   N=          22
  0.00000000E+00  0.00000000E+00  0.00000000E+00  0.00000000E+00  0.00000000E+00
  0.00000000E+00  0.00000000E+00  0.00000000E+00  0.00000000E+00  0.00000000E+00
  0.00000000E+00  0.00000000E+00  0.00000000E+00  0.00000000E+00  0.00000000E+00
  0.00000000E+00  0.00000000E+00  0.00000000E+00  0.00000000E+00  0.00000000E+00
  0.00000000E+00  0.00000000E+00
Integer atomic weights                     I   N=          22
          16          16          14          12          12          12
          12          12          12           1           1           1
           1           1           1           1           1           1
           1           1           1           1
Real atomic weights                        R   N=          22
  1.59949146E+01  1.59949146E+01  1.40030740E+01  1.20000000E+01  1.20000000E+01
  1.20000000E+01  1.20000000E+01  1.20000000E+01  1.20000000E+01  1.00782504E+00
  1.00782504E+00  1.00782504E+00  1.00782504E+00  1.00782504E+00  1.00782504E+00
  1.00782504E+00  1.00782504E+00  1.00782504E+00  1.00782504E+00  1.00782504E+00
  1.00782504E+00  1.00782504E+00
Atom fragment info                         I   N=          22
           0           0           0           0           0           0
           0           0           0           0           0           0
           0           0           0           0           0           0
           0           0           0           0
Atom residue num                           I   N=          22
           0           0           0           0           0           0
           0           0           0           0           0           0
           0           0           0           0           0           0
           0           0           0           0
Nuclear spins                              I   N=          22
           0           0           2           0           0           0
           0           0           0           1           1           1
           1           1           1           1           1           1
           1           1           1           1
Nuclear ZEff                               R   N=          22
 -5.60000000E+00 -5.60000000E+00 -4.55000000E+00 -3.60000000E+00 -3.60000000E+00
 -3.60000000E+00 -3.60000000E+00 -3.60000000E+00 -3.60000000E+00 -1.00000000E+00
 -1.00000000E+00 -1.00000000E+00 -1.00000000E+00 -1.00000000E+00 -1.00000000E+00
 -1.00000000E+00 -1.00000000E+00 -1.00000000E+00 -1.00000000E+00 -1.00000000E+00
 -1.00000000E+00 -1.00000000E+00
Nuclear QMom                               R   N=          22
  0.00000000E+00  0.00000000E+00  2.04400000E+00  0.00000000E+00  0.00000000E+00
  0.00000000E+00  0.00000000E+00  0.00000000E+00  0.00000000E+00  0.00000000E+00
  0.00000000E+00  0.00000000E+00  0.00000000E+00  0.00000000E+00  0.00000000E+00
  0.00000000E+00  0.00000000E+00  0.00000000E+00  0.00000000E+00  0.00000000E+00
  0.00000000E+00  0.00000000E+00
Nuclear GFac                               R   N=          22
  0.00000000E+00  0.00000000E+00  4.03761000E-01  0.00000000E+00  0.00000000E+00
  0.00000000E+00  0.00000000E+00  0.00000000E+00  0.00000000E+00  2.79284600E+00
  2.79284600E+00  2.79284600E+00  2.79284600E+00  2.79284600E+00  2.79284600E+00
  2.79284600E+00  2.79284600E+00  2.79284600E+00  2.79284600E+00  2.79284600E+00
  2.79284600E+00  2.79284600E+00
MicOpt                                     I   N=          22
          -1          -1          -1          -1          -1          -1
          -1          -1          -1          -1          -1          -1
          -1          -1          -1          -1          -1          -1
          -1          -1          -1          -1
Number of contracted shells                I               62
Number of primitive shells                 I              151
Pure/Cartesian d shells                    I                1
Pure/Cartesian f shells                    I                0
Highest angular momentum                   I                2
Largest degree of contraction              I                6
Shell types                                I   N=          62
           0          -1          -1           2           0          -1
          -1           2           0          -1          -1           2
           0          -1          -1           2           0          -1
          -1           2           0          -1          -1           2
           0          -1          -1           2           0          -1
          -1           2           0          -1          -1           2
           0           0           0           0           0           0
           0           0           0           0           0           0
           0           0           0           0           0           0
           0           0           0           0           0           0
           0           0
Number of primitives per shell             I   N=          62
           6           3           1           1           6           3
           1           1           6           3           1           1
           6           3           1           1           6           3
           1           1           6           3           1           1
           6           3           1           1           6           3
           1           1           6           3           1           1
           3           1           3           1           3           1
           3           1           3           1           3           1
           3           1           3           1           3           1
           3           1           3           1           3           1
           3           1
Shell to atom map                          I   N=          62
           1           1           1           1           2           2
           2           2           3           3           3           3
           4           4           4           4           5           5
           5           5           6           6           6           6
           7           7           7           7           8           8
           8           8           9           9           9           9
          10          10          11          11          12          12
          13          13          14          14          15          15
          16          16          17          17          18          18
          19          19          20          20          21          21
          22          22
Primitive exponents                        R   N=         151
  5.48467166E+03  8.25234946E+02  1.88046958E+02  5.29645000E+01  1.68975704E+01
  5.79963534E+00  1.55396162E+01  3.59993359E+00  1.01376175E+00  2.70005823E-01
  8.00000000E-01  5.48467166E+03  8.25234946E+02  1.88046958E+02  5.29645000E+01
  1.68975704E+01  5.79963534E+00  1.55396162E+01  3.59993359E+00  1.01376175E+00
  2.70005823E-01  8.00000000E-01  4.17351146E+03  6.27457911E+02  1.42902093E+02
  4.02343293E+01  1.28202129E+01  4.39043701E+00  1.16263619E+01  2.71627981E+00
  7.72218397E-01  2.12031498E-01  8.00000000E-01  3.04752488E+03  4.57369518E+02
  1.03948685E+02  2.92101553E+01  9.28666296E+00  3.16392696E+00  7.86827235E+00
  1.88128854E+00  5.44249258E-01  1.68714478E-01  8.00000000E-01  3.04752488E+03
  4.57369518E+02  1.03948685E+02  2.92101553E+01  9.28666296E+00  3.16392696E+00
  7.86827235E+00  1.88128854E+00  5.44249258E-01  1.68714478E-01  8.00000000E-01
  3.04752488E+03  4.57369518E+02  1.03948685E+02  2.92101553E+01  9.28666296E+00
  3.16392696E+00  7.86827235E+00  1.88128854E+00  5.44249258E-01  1.68714478E-01
  8.00000000E-01  3.04752488E+03  4.57369518E+02  1.03948685E+02  2.92101553E+01
  9.28666296E+00  3.16392696E+00  7.86827235E+00  1.88128854E+00  5.44249258E-01
  1.68714478E-01  8.00000000E-01  3.04752488E+03  4.57369518E+02  1.03948685E+02
  2.92101553E+01  9.28666296E+00  3.16392696E+00  7.86827235E+00  1.88128854E+00
  5.44249258E-01  1.68714478E-01  8.00000000E-01  3.04752488E+03  4.57369518E+02
  1.03948685E+02  2.92101553E+01  9.28666296E+00  3.16392696E+00  7.86827235E+00
  1.88128854E+00  5.44249258E-01  1.68714478E-01  8.00000000E-01  1.87311370E+01
  2.82539436E+00  6.40121692E-01  1.61277759E-01  1.87311370E+01  2.82539436E+00
  6.40121692E-01  1.61277759E-01  1.87311370E+01  2.82539436E+00  6.40121692E-01
  1.61277759E-01  1.87311370E+01  2.82539436E+00  6.40121692E-01  1.61277759E-01
  1.87311370E+01  2.82539436E+00  6.40121692E-01  1.61277759E-01  1.87311370E+01
  2.82539436E+00  6.40121692E-01  1.61277759E-01  1.87311370E+01  2.82539436E+00
  6.40121692E-01  1.61277759E-01  1.87311370E+01  2.82539436E+00  6.40121692E-01
  1.61277759E-01  1.87311370E+01  2.82539436E+00  6.40121692E-01  1.61277759E-01
  1.87311370E+01  2.82539436E+00  6.40121692E-01  1.61277759E-01  1.87311370E+01
  2.82539436E+00  6.40121692E-01  1.61277759E-01  1.87311370E+01  2.82539436E+00
  6.40121692E-01  1.61277759E-01  1.87311370E+01  2.82539436E+00  6.40121692E-01
  1.61277759E-01
Contraction coefficients                   R   N=         151
  1.83107443E-03  1.39501722E-02  6.84450781E-02  2.32714336E-01  4.70192898E-01
  3.58520853E-01 -1.10777550E-01 -1.48026263E-01  1.13076702E+00  1.00000000E+00
  1.00000000E+00  1.83107443E-03  1.39501722E-02  6.84450781E-02  2.32714336E-01
  4.70192898E-01  3.58520853E-01 -1.10777550E-01 -1.48026263E-01  1.13076702E+00
  1.00000000E+00  1.00000000E+00  1.83477216E-03  1.39946270E-02  6.85865518E-02
  2.32240873E-01  4.69069948E-01  3.60455199E-01 -1.14961182E-01 -1.69117479E-01
  1.14585195E+00  1.00000000E+00  1.00000000E+00  1.83473713E-03  1.40373228E-02
  6.88426223E-02  2.32184443E-01  4.67941348E-01  3.62311985E-01 -1.19332420E-01
 -1.60854152E-01  1.14345644E+00  1.00000000E+00  1.00000000E+00  1.83473713E-03
  1.40373228E-02  6.88426223E-02  2.32184443E-01  4.67941348E-01  3.62311985E-01
 -1.19332420E-01 -1.60854152E-01  1.14345644E+00  1.00000000E+00  1.00000000E+00
  1.83473713E-03  1.40373228E-02  6.88426223E-02  2.32184443E-01  4.67941348E-01
  3.62311985E-01 -1.19332420E-01 -1.60854152E-01  1.14345644E+00  1.00000000E+00
  1.00000000E+00  1.83473713E-03  1.40373228E-02  6.88426223E-02  2.32184443E-01
  4.67941348E-01  3.62311985E-01 -1.19332420E-01 -1.60854152E-01  1.14345644E+00
  1.00000000E+00  1.00000000E+00  1.83473713E-03  1.40373228E-02  6.88426223E-02
  2.32184443E-01  4.67941348E-01  3.62311985E-01 -1.19332420E-01 -1.60854152E-01
  1.14345644E+00  1.00000000E+00  1.00000000E+00  1.83473713E-03  1.40373228E-02
  6.88426223E-02  2.32184443E-01  4.67941348E-01  3.62311985E-01 -1.19332420E-01
 -1.60854152E-01  1.14345644E+00  1.00000000E+00  1.00000000E+00  3.34946043E-02
  2.34726953E-01  8.13757326E-01  1.00000000E+00  3.34946043E-02  2.34726953E-01
  8.13757326E-01  1.00000000E+00  3.34946043E-02  2.34726953E-01  8.13757326E-01
  1.00000000E+00  3.34946043E-02  2.34726953E-01  8.13757326E-01  1.00000000E+00
  3.34946043E-02  2.34726953E-01  8.13757326E-01  1.00000000E+00  3.34946043E-02
  2.34726953E-01  8.13757326E-01  1.00000000E+00  3.34946043E-02  2.34726953E-01
  8.13757326E-01  1.00000000E+00  3.34946043E-02  2.34726953E-01  8.13757326E-01
  1.00000000E+00  3.34946043E-02  2.34726953E-01  8.13757326E-01  1.00000000E+00
  3.34946043E-02  2.34726953E-01  8.13757326E-01  1.00000000E+00  3.34946043E-02
  2.34726953E-01  8.13757326E-01  1.00000000E+00  3.34946043E-02  2.34726953E-01
  8.13757326E-01  1.00000000E+00  3.34946043E-02  2.34726953E-01  8.13757326E-01
  1.00000000E+00
P(S=P) Contraction coefficients            R   N=         151
  0.00000000E+00  0.00000000E+00  0.00000000E+00  0.00000000E+00  0.00000000E+00
  0.00000000E+00  7.08742682E-02  3.39752839E-01  7.27158577E-01  1.00000000E+00
  0.00000000E+00  0.00000000E+00  0.00000000E+00  0.00000000E+00  0.00000000E+00
  0.00000000E+00  0.00000000E+00  7.08742682E-02  3.39752839E-01  7.27158577E-01
  1.00000000E+00  0.00000000E+00  0.00000000E+00  0.00000000E+00  0.00000000E+00
  0.00000000E+00  0.00000000E+00  0.00000000E+00  6.75797439E-02  3.23907296E-01
  7.40895140E-01  1.00000000E+00  0.00000000E+00  0.00000000E+00  0.00000000E+00
  0.00000000E+00  0.00000000E+00  0.00000000E+00  0.00000000E+00  6.89990666E-02
  3.16423961E-01  7.44308291E-01  1.00000000E+00  0.00000000E+00  0.00000000E+00
  0.00000000E+00  0.00000000E+00  0.00000000E+00  0.00000000E+00  0.00000000E+00
  6.89990666E-02  3.16423961E-01  7.44308291E-01  1.00000000E+00  0.00000000E+00
  0.00000000E+00  0.00000000E+00  0.00000000E+00  0.00000000E+00  0.00000000E+00
  0.00000000E+00  6.89990666E-02  3.16423961E-01  7.44308291E-01  1.00000000E+00
  0.00000000E+00  0.00000000E+00  0.00000000E+00  0.00000000E+00  0.00000000E+00
  0.00000000E+00  0.00000000E+00  6.89990666E-02  3.16423961E-01  7.44308291E-01
  1.00000000E+00  0.00000000E+00  0.00000000E+00  0.00000000E+00  0.00000000E+00
  0.00000000E+00  0.00000000E+00  0.00000000E+00  6.89990666E-02  3.16423961E-01
  7.44308291E-01  1.00000000E+00  0.00000000E+00  0.00000000E+00  0.00000000E+00
  0.00000000E+00  0.00000000E+00  0.00000000E+00  0.00000000E+00  6.89990666E-02
  3.16423961E-01  7.44308291E-01  1.00000000E+00  0.00000000E+00  0.00000000E+00
  0.00000000E+00  0.00000000E+00  0.00000000E+00  0.00000000E+00  0.00000000E+00
  0.00000000E+00  0.00000000E+00  0.00000000E+00  0.00000000E+00  0.00000000E+00
  0.00000000E+00  0.00000000E+00  0.00000000E+00  0.00000000E+00  0.00000000E+00
  0.00000000E+00  0.00000000E+00  0.00000000E+00  0.00000000E+00  0.00000000E+00
  0.00000000E+00  0.00000000E+00  0.00000000E+00  0.00000000E+00  0.00000000E+00
  0.00000000E+00  0.00000000E+00  0.00000000E+00  0.00000000E+00  0.00000000E+00
  0.00000000E+00  0.00000000E+00  0.00000000E+00  0.00000000E+00  0.00000000E+00
  0.00000000E+00  0.00000000E+00  0.00000000E+00  0.00000000E+00  0.00000000E+00
  0.00000000E+00  0.00000000E+00  0.00000000E+00  0.00000000E+00  0.00000000E+00
  0.00000000E+00  0.00000000E+00  0.00000000E+00  0.00000000E+00  0.00000000E+00
  0.00000000E+00
Coordinates of each shell                  R   N=         186
 -2.73540849E-01  3.90373487E+00 -1.72866703E+00 -2.73540849E-01  3.90373487E+00
 -1.72866703E+00 -2.73540849E-01  3.90373487E+00 -1.72866703E+00 -2.73540849E-01
  3.90373487E+00 -1.72866703E+00 -4.56089108E+00 -2.59294863E+00 -2.32737854E-01
 -4.56089108E+00 -2.59294863E+00 -2.32737854E-01 -4.56089108E+00 -2.59294863E+00
 -2.32737854E-01 -4.56089108E+00 -2.59294863E+00 -2.32737854E-01  4.65308421E+00
 -2.40043319E+00  1.22356302E-01  4.65308421E+00 -2.40043319E+00  1.22356302E-01
  4.65308421E+00 -2.40043319E+00  1.22356302E-01  4.65308421E+00 -2.40043319E+00
  1.22356302E-01  2.40817653E+00 -9.02451885E-01 -5.30196005E-01  2.40817653E+00
 -9.02451885E-01 -5.30196005E-01  2.40817653E+00 -9.02451885E-01 -5.30196005E-01
  2.40817653E+00 -9.02451885E-01 -5.30196005E-01  2.29961171E+00  1.40984727E+00
  1.18819759E+00  2.29961171E+00  1.40984727E+00  1.18819759E+00  2.29961171E+00
  1.40984727E+00  1.18819759E+00  2.29961171E+00  1.40984727E+00  1.18819759E+00
  5.51923278E-02 -2.52395211E+00 -1.47714223E-01  5.51923278E-02 -2.52395211E+00
 -1.47714223E-01  5.51923278E-02 -2.52395211E+00 -1.47714223E-01  5.51923278E-02
 -2.52395211E+00 -1.47714223E-01 -1.23249933E-01  2.92930319E+00  8.00570081E-01
 -1.23249933E-01  2.92930319E+00  8.00570081E-01 -1.23249933E-01  2.92930319E+00
  8.00570081E-01 -1.23249933E-01  2.92930319E+00  8.00570081E-01 -2.37454904E+00
 -1.03529010E+00 -5.73330205E-01 -2.37454904E+00 -1.03529010E+00 -5.73330205E-01
 -2.37454904E+00 -1.03529010E+00 -5.73330205E-01 -2.37454904E+00 -1.03529010E+00
 -5.73330205E-01 -2.45857234E+00  1.28352332E+00  1.13723216E+00 -2.45857234E+00
  1.28352332E+00  1.13723216E+00 -2.45857234E+00  1.28352332E+00  1.13723216E+00
 -2.45857234E+00  1.28352332E+00  1.13723216E+00  2.42170398E+00 -2.37737471E-01
 -2.50470612E+00  2.42170398E+00 -2.37737471E-01 -2.50470612E+00  2.42435987E+00
  7.69308051E-01  3.15708846E+00  2.42435987E+00  7.69308051E-01  3.15708846E+00
  3.95036221E+00  2.63000950E+00  8.53785064E-01  3.95036221E+00  2.63000950E+00
  8.53785064E-01  7.93767101E-02 -4.16627392E+00 -1.41362435E+00  7.93767101E-02
 -4.16627392E+00 -1.41362435E+00  8.85390318E-02 -3.25023864E+00  1.80029144E+00
  8.85390318E-02 -3.25023864E+00  1.80029144E+00 -1.83666564E-01  4.50153357E+00
  2.16311225E+00 -1.83666564E-01  4.50153357E+00  2.16311225E+00 -2.48195998E+00
 -4.19563948E-01 -2.54334644E+00 -2.48195998E+00 -4.19563948E-01 -2.54334644E+00
 -2.55837098E+00  6.58261109E-01  3.11658263E+00 -2.55837098E+00  6.58261109E-01
  3.11658263E+00 -4.16073116E+00  2.38790301E+00  7.36655313E-01 -4.16073116E+00
  2.38790301E+00  7.36655313E-01  6.23770341E+00 -1.36179483E+00 -2.42450973E-01
  6.23770341E+00 -1.36179483E+00 -2.42450973E-01  4.75017717E+00 -3.92989240E+00
 -1.04953673E+00  4.75017717E+00 -3.92989240E+00 -1.04953673E+00  1.19695579E+00
  4.97811500E+00 -1.98819347E+00  1.19695579E+00  4.97811500E+00 -1.98819347E+00
 -4.50023904E+00 -3.20876471E+00  1.50053152E+00 -4.50023904E+00 -3.20876471E+00
  1.50053152E+00
Constraint Structure                       R   N=          66
 -2.73540849E-01  3.90373487E+00 -1.72866703E+00 -4.56089108E+00 -2.59294863E+00
 -2.32737854E-01  4.65308421E+00 -2.40043319E+00  1.22356302E-01  2.40817653E+00
 -9.02451885E-01 -5.30196005E-01  2.29961171E+00  1.40984727E+00  1.18819759E+00
  5.51923278E-02 -2.52395211E+00 -1.47714223E-01 -1.23249933E-01  2.92930319E+00
  8.00570081E-01 -2.37454904E+00 -1.03529010E+00 -5.73330205E-01 -2.45857234E+00
  1.28352332E+00  1.13723216E+00  2.42170398E+00 -2.37737471E-01 -2.50470612E+00
  2.42435987E+00  7.69308051E-01  3.15708846E+00  3.95036221E+00  2.63000950E+00
  8.53785064E-01  7.93767101E-02 -4.16627392E+00 -1.41362435E+00  8.85390318E-02
 -3.25023864E+00  1.80029144E+00 -1.83666564E-01  4.50153357E+00  2.16311225E+00
 -2.48195998E+00 -4.19563948E-01 -2.54334644E+00 -2.55837098E+00  6.58261109E-01
  3.11658263E+00 -4.16073116E+00  2.38790301E+00  7.36655313E-01  6.23770341E+00
 -1.36179483E+00 -2.42450973E-01  4.75017717E+00 -3.92989240E+00 -1.04953673E+00
  1.19695579E+00  4.97811500E+00 -1.98819347E+00 -4.50023904E+00 -3.20876471E+00
  1.50053152E+00
Num ILSW                                   I              100
ILSW                                       I   N=         100
           0           1           0           0           2           0
           0           0           0           0           0          -1
           0           0           0           0           0           0
           0           0           0           0           1           0
           1           0           0           0           0           0
           0           0      100000           0          -1           0
           0           0           0           0           0           0
           0           0           0           1           1           0
           0           0           1           0           0           0
           0           0           4          40           0           0
           0           0           0           0           0           0
           0           0           0           0           0           0
           0           0           0           0           0           0
           0           0           0           0           0           0
           0           0           0           0           0           0
           0           0           0           0           0           0
           0           0           0           0
Num RLSW                                   I               40
RLSW                                       R   N=          40
  1.00000000E+00  1.00000000E+00  1.00000000E+00  1.00000000E+00  1.00000000E+00
  0.00000000E+00  0.00000000E+00  1.00000000E+00  0.00000000E+00  0.00000000E+00
  0.00000000E+00  0.00000000E+00  1.00000000E+00  0.00000000E+00  0.00000000E+00
  0.00000000E+00  0.00000000E+00  1.00000000E+00  0.00000000E+00  0.00000000E+00
  0.00000000E+00  0.00000000E+00  1.00000000E+00  0.00000000E+00  0.00000000E+00
  0.00000000E+00  0.00000000E+00  1.00000000E+00  0.00000000E+00  0.00000000E+00
  0.00000000E+00  0.00000000E+00  0.00000000E+00  0.00000000E+00  0.00000000E+00
  0.00000000E+00  0.00000000E+00  0.00000000E+00  1.00000000E+00  1.00000000E+00
MxBond                                     I                4
NBond                                      I   N=          22
           2           2           3           4           4           4
           4           4           4           1           1           1
           1           1           1           1           1           1
           1           1           1           1
IBond                                      I   N=          88
           7          21           0           0           8          22
           0           0           4          19          20           0
           3           5           6          10           4           7
          11          12           4           8          13          14
           1           5           9          15           2           6
           9          16           7           8          17          18
           4           0           0           0           5           0
           0           0           5           0           0           0
           6           0           0           0           6           0
           0           0           7           0           0           0
           8           0           0           0           9           0
           0           0           9           0           0           0
           3           0           0           0           3           0
           0           0           1           0           0           0
           2           0           0           0
RBond                                      R   N=          88
  1.00000000E+00  1.00000000E+00  0.00000000E+00  0.00000000E+00  1.00000000E+00
  1.00000000E+00  0.00000000E+00  0.00000000E+00  1.00000000E+00  1.00000000E+00
  1.00000000E+00  0.00000000E+00  1.00000000E+00  1.00000000E+00  1.00000000E+00
  1.00000000E+00  1.00000000E+00  1.00000000E+00  1.00000000E+00  1.00000000E+00
  1.00000000E+00  1.00000000E+00  1.00000000E+00  1.00000000E+00  1.00000000E+00
  1.00000000E+00  1.00000000E+00  1.00000000E+00  1.00000000E+00  1.00000000E+00
  1.00000000E+00  1.00000000E+00  1.00000000E+00  1.00000000E+00  1.00000000E+00
  1.00000000E+00  1.00000000E+00  0.00000000E+00  0.00000000E+00  0.00000000E+00
  1.00000000E+00  0.00000000E+00  0.00000000E+00  0.00000000E+00  1.00000000E+00
  0.00000000E+00  0.00000000E+00  0.00000000E+00  1.00000000E+00  0.00000000E+00
  0.00000000E+00  0.00000000E+00  1.00000000E+00  0.00000000E+00  0.00000000E+00
  0.00000000E+00  1.00000000E+00  0.00000000E+00  0.00000000E+00  0.00000000E+00
  1.00000000E+00  0.00000000E+00  0.00000000E+00  0.00000000E+00  1.00000000E+00
  0.00000000E+00  0.00000000E+00  0.00000000E+00  1.00000000E+00  0.00000000E+00
  0.00000000E+00  0.00000000E+00  1.00000000E+00  0.00000000E+00  0.00000000E+00
  0.00000000E+00  1.00000000E+00  0.00000000E+00  0.00000000E+00  0.00000000E+00
  1.00000000E+00  0.00000000E+00  0.00000000E+00  0.00000000E+00  1.00000000E+00
  0.00000000E+00  0.00000000E+00  0.00000000E+00
Virial Ratio                               R      2.001946549796974E+00
SCF Energy                                 R     -4.389288648987944E+02
MP2 Energy                                 R     -4.402370869423367E+02
Total Energy                               R     -4.402370869423367E+02
Post-SCF wavefunction norm                 R      1.676411099822912E+00
RMS Force                                  R      6.544378402209201E-07
RMS Density                                R      1.252670037220317E-09
External E-field                           R   N=          35
  0.00000000E+00  0.00000000E+00  0.00000000E+00  0.00000000E+00  0.00000000E+00
  0.00000000E+00  0.00000000E+00  0.00000000E+00  0.00000000E+00  0.00000000E+00
  0.00000000E+00  0.00000000E+00  0.00000000E+00  0.00000000E+00  0.00000000E+00
  0.00000000E+00  0.00000000E+00  0.00000000E+00  0.00000000E+00  0.00000000E+00
  0.00000000E+00  0.00000000E+00  0.00000000E+00  0.00000000E+00  0.00000000E+00
  0.00000000E+00  0.00000000E+00  0.00000000E+00  0.00000000E+00  0.00000000E+00
  0.00000000E+00  0.00000000E+00  0.00000000E+00  0.00000000E+00  0.00000000E+00
IOpCl                                      I                0
IROHF                                      I                0
Alpha Orbital Energies                     R   N=         161
 -2.05649606E+01 -2.05527475E+01 -1.55459949E+01 -1.12851108E+01 -1.12699334E+01
 -1.12550694E+01 -1.12250642E+01 -1.12187444E+01 -1.12163742E+01 -1.35816126E+00
 -1.34466763E+00 -1.18910134E+00 -1.08552285E+00 -9.94614863E-01 -9.84254154E-01
 -8.37945881E-01 -8.21105342E-01 -7.67062477E-01 -6.92742717E-01 -6.74705701E-01
 -6.51717272E-01 -6.39726626E-01 -6.22062177E-01 -6.08172864E-01 -5.87781159E-01
 -5.59677840E-01 -5.44700014E-01 -5.27030544E-01 -5.24116671E-01 -4.96393435E-01
 -4.86967933E-01 -4.73221643E-01 -4.48870084E-01 -4.39507588E-01 -4.15339956E-01
 -3.89740572E-01  2.02922053E-01  2.21640400E-01  2.32346257E-01  2.57675618E-01
  2.73106794E-01  2.80736236E-01  3.04330592E-01  3.15134799E-01  3.22851346E-01
  3.33097244E-01  3.37857968E-01  3.51155943E-01  3.57003825E-01  3.88837923E-01
  4.04655137E-01  4.08580603E-01  4.20499947E-01  4.35872648E-01  4.61833376E-01
  4.80163847E-01  5.20412696E-01  5.43699428E-01  7.35993822E-01  7.45779177E-01
  7.49491640E-01  7.88435006E-01  8.06289235E-01  8.22809035E-01  8.31557334E-01
  8.86101710E-01  9.07375388E-01  9.35405378E-01  9.46011012E-01  9.62600306E-01
  9.75876558E-01  9.84333132E-01  9.97835470E-01  1.01361051E+00  1.03392350E+00
  1.06948634E+00  1.09781809E+00  1.11638428E+00  1.12646888E+00  1.13488816E+00
  1.15360220E+00  1.16709702E+00  1.17379509E+00  1.18429189E+00  1.19516668E+00
  1.20171612E+00  1.20636193E+00  1.22805759E+00  1.24440871E+00  1.25501127E+00
  1.27701298E+00  1.28247016E+00  1.30960133E+00  1.35357646E+00  1.35824795E+00
  1.39691493E+00  1.43610541E+00  1.49438565E+00  1.54316237E+00  1.57566272E+00
  1.58229665E+00  1.64554036E+00  1.68229671E+00  1.71167894E+00  1.77567505E+00
  1.80809322E+00  1.84575957E+00  1.89968663E+00  1.93664308E+00  1.95310348E+00
  2.01323001E+00  2.02321779E+00  2.05351733E+00  2.07553572E+00  2.11147165E+00
  2.14174255E+00  2.17509032E+00  2.20909871E+00  2.23364873E+00  2.24581899E+00