12480858                                                                
Freq      RMP2-FC                                                     6-31G(d)            
Number of atoms                            I               15
Info1-9                                    I   N=           9
          27          25        1002           0           0         100
           6           2           1
Charge                                     I                0
Multiplicity                               I                1
Number of electrons                        I               56
Number of alpha electrons                  I               28
Number of beta electrons                   I               28
Number of basis functions                  I              121
Number of independent functions            I              121
Number of point charges in /Mol/           I                0
Number of translation vectors              I                0
Atomic numbers                             I   N=          15
           8           8           8           6           6           6
           6           1           1           1           1           1
           1           1           1
Nuclear charges                            R   N=          15
  8.00000000E+00  8.00000000E+00  8.00000000E+00  6.00000000E+00  6.00000000E+00
  6.00000000E+00  6.00000000E+00  1.00000000E+00  1.00000000E+00  1.00000000E+00
  1.00000000E+00  1.00000000E+00  1.00000000E+00  1.00000000E+00  1.00000000E+00
Current cartesian coordinates              R   N=          45
 -2.43636768E+00  1.13917551E-05 -1.53923710E+00 -1.12630183E+00 -4.29549297E-05
  2.53651947E+00 -4.95033587E+00  8.46519165E-06 -4.01009839E-01  1.97239395E+00
  6.63886699E-06 -8.80618877E-01  3.36624813E+00  2.39493476E+00 -4.94619870E-02
  3.36629162E+00 -2.39490773E+00 -4.95145097E-02 -6.21776765E-01 -1.44332013E-05
  2.80723103E-01  1.74712788E+00  2.89446869E-05 -2.93768584E+00  3.51906350E+00
  2.44640185E+00  2.00957771E+00  2.37685323E+00  4.09662726E+00 -6.78532464E-01
  5.26811207E+00  2.41431481E+00 -8.56941279E-01  3.51907945E+00 -2.44643510E+00
  2.00952595E+00  5.26816945E+00 -2.41421558E+00 -8.56963305E-01  2.37695231E+00
 -4.09660825E+00 -6.78650767E-01 -4.47025643E+00 -4.45101127E-05  1.41272340E+00
Force Field                                I                0
Int Atom Types                             I   N=          15
           0           0           0           0           0           0
           0           0           0           0           0           0
           0           0           0
MM charges                                 R   N=          15
  0.00000000E+00  0.00000000E+00  0.00000000E+00  0.00000000E+00  0.00000000E+00
  0.00000000E+00  0.00000000E+00  0.00000000E+00  0.00000000E+00  0.00000000E+00
  0.00000000E+00  0.00000000E+00  0.00000000E+00  0.00000000E+00  0.00000000E+00
Integer atomic weights                     I   N=          15
          16          16          16          12          12          12
          12           1           1           1           1           1
           1           1           1
Real atomic weights                        R   N=          15
  1.59949146E+01  1.59949146E+01  1.59949146E+01  1.20000000E+01  1.20000000E+01
  1.20000000E+01  1.20000000E+01  1.00782504E+00  1.00782504E+00  1.00782504E+00
  1.00782504E+00  1.00782504E+00  1.00782504E+00  1.00782504E+00  1.00782504E+00
Atom fragment info                         I   N=          15
           0           0           0           0           0           0
           0           0           0           0           0           0
           0           0           0
Atom residue num                           I   N=          15
           0           0           0           0           0           0
           0           0           0           0           0           0
           0           0           0
Nuclear spins                              I   N=          15
           0           0           0           0           0           0
           0           1           1           1           1           1
           1           1           1
Nuclear ZEff                               R   N=          15
 -5.60000000E+00 -5.60000000E+00 -5.60000000E+00 -3.60000000E+00 -3.60000000E+00
 -3.60000000E+00 -3.60000000E+00 -1.00000000E+00 -1.00000000E+00 -1.00000000E+00
 -1.00000000E+00 -1.00000000E+00 -1.00000000E+00 -1.00000000E+00 -1.00000000E+00
Nuclear QMom                               R   N=          15
  0.00000000E+00  0.00000000E+00  0.00000000E+00  0.00000000E+00  0.00000000E+00
  0.00000000E+00  0.00000000E+00  0.00000000E+00  0.00000000E+00  0.00000000E+00
  0.00000000E+00  0.00000000E+00  0.00000000E+00  0.00000000E+00  0.00000000E+00
Nuclear GFac                               R   N=          15
  0.00000000E+00  0.00000000E+00  0.00000000E+00  0.00000000E+00  0.00000000E+00
  0.00000000E+00  0.00000000E+00  2.79284600E+00  2.79284600E+00  2.79284600E+00
  2.79284600E+00  2.79284600E+00  2.79284600E+00  2.79284600E+00  2.79284600E+00
MicOpt                                     I   N=          15
          -1          -1          -1          -1          -1          -1
          -1          -1          -1          -1          -1          -1
          -1          -1          -1
Number of contracted shells                I               44
Number of primitive shells                 I              109
Pure/Cartesian d shells                    I                1
Pure/Cartesian f shells                    I                0
Highest angular momentum                   I                2
Largest degree of contraction              I                6
Shell types                                I   N=          44
           0          -1          -1           2           0          -1
          -1           2           0          -1          -1           2
           0          -1          -1           2           0          -1
          -1           2           0          -1          -1           2
           0          -1          -1           2           0           0
           0           0           0           0           0           0
           0           0           0           0           0           0
           0           0
Number of primitives per shell             I   N=          44
           6           3           1           1           6           3
           1           1           6           3           1           1
           6           3           1           1           6           3
           1           1           6           3           1           1
           6           3           1           1           3           1
           3           1           3           1           3           1
           3           1           3           1           3           1
           3           1
Shell to atom map                          I   N=          44
           1           1           1           1           2           2
           2           2           3           3           3           3
           4           4           4           4           5           5
           5           5           6           6           6           6
           7           7           7           7           8           8
           9           9          10          10          11          11
          12          12          13          13          14          14
          15          15
Primitive exponents                        R   N=         109
  5.48467166E+03  8.25234946E+02  1.88046958E+02  5.29645000E+01  1.68975704E+01
  5.79963534E+00  1.55396162E+01  3.59993359E+00  1.01376175E+00  2.70005823E-01
  8.00000000E-01  5.48467166E+03  8.25234946E+02  1.88046958E+02  5.29645000E+01
  1.68975704E+01  5.79963534E+00  1.55396162E+01  3.59993359E+00  1.01376175E+00
  2.70005823E-01  8.00000000E-01  5.48467166E+03  8.25234946E+02  1.88046958E+02
  5.29645000E+01  1.68975704E+01  5.79963534E+00  1.55396162E+01  3.59993359E+00
  1.01376175E+00  2.70005823E-01  8.00000000E-01  3.04752488E+03  4.57369518E+02
  1.03948685E+02  2.92101553E+01  9.28666296E+00  3.16392696E+00  7.86827235E+00
  1.88128854E+00  5.44249258E-01  1.68714478E-01  8.00000000E-01  3.04752488E+03
  4.57369518E+02  1.03948685E+02  2.92101553E+01  9.28666296E+00  3.16392696E+00
  7.86827235E+00  1.88128854E+00  5.44249258E-01  1.68714478E-01  8.00000000E-01
  3.04752488E+03  4.57369518E+02  1.03948685E+02  2.92101553E+01  9.28666296E+00
  3.16392696E+00  7.86827235E+00  1.88128854E+00  5.44249258E-01  1.68714478E-01
  8.00000000E-01  3.04752488E+03  4.57369518E+02  1.03948685E+02  2.92101553E+01
  9.28666296E+00  3.16392696E+00  7.86827235E+00  1.88128854E+00  5.44249258E-01
  1.68714478E-01  8.00000000E-01  1.87311370E+01  2.82539436E+00  6.40121692E-01
  1.61277759E-01  1.87311370E+01  2.82539436E+00  6.40121692E-01  1.61277759E-01
  1.87311370E+01  2.82539436E+00  6.40121692E-01  1.61277759E-01  1.87311370E+01
  2.82539436E+00  6.40121692E-01  1.61277759E-01  1.87311370E+01  2.82539436E+00
  6.40121692E-01  1.61277759E-01  1.87311370E+01  2.82539436E+00  6.40121692E-01
  1.61277759E-01  1.87311370E+01  2.82539436E+00  6.40121692E-01  1.61277759E-01
  1.87311370E+01  2.82539436E+00  6.40121692E-01  1.61277759E-01
Contraction coefficients                   R   N=         109
  1.83107443E-03  1.39501722E-02  6.84450781E-02  2.32714336E-01  4.70192898E-01
  3.58520853E-01 -1.10777550E-01 -1.48026263E-01  1.13076702E+00  1.00000000E+00
  1.00000000E+00  1.83107443E-03  1.39501722E-02  6.84450781E-02  2.32714336E-01
  4.70192898E-01  3.58520853E-01 -1.10777550E-01 -1.48026263E-01  1.13076702E+00
  1.00000000E+00  1.00000000E+00  1.83107443E-03  1.39501722E-02  6.84450781E-02
  2.32714336E-01  4.70192898E-01  3.58520853E-01 -1.10777550E-01 -1.48026263E-01
  1.13076702E+00  1.00000000E+00  1.00000000E+00  1.83473713E-03  1.40373228E-02
  6.88426223E-02  2.32184443E-01  4.67941348E-01  3.62311985E-01 -1.19332420E-01
 -1.60854152E-01  1.14345644E+00  1.00000000E+00  1.00000000E+00  1.83473713E-03
  1.40373228E-02  6.88426223E-02  2.32184443E-01  4.67941348E-01  3.62311985E-01
 -1.19332420E-01 -1.60854152E-01  1.14345644E+00  1.00000000E+00  1.00000000E+00
  1.83473713E-03  1.40373228E-02  6.88426223E-02  2.32184443E-01  4.67941348E-01
  3.62311985E-01 -1.19332420E-01 -1.60854152E-01  1.14345644E+00  1.00000000E+00
  1.00000000E+00  1.83473713E-03  1.40373228E-02  6.88426223E-02  2.32184443E-01
  4.67941348E-01  3.62311985E-01 -1.19332420E-01 -1.60854152E-01  1.14345644E+00
  1.00000000E+00  1.00000000E+00  3.34946043E-02  2.34726953E-01  8.13757326E-01
  1.00000000E+00  3.34946043E-02  2.34726953E-01  8.13757326E-01  1.00000000E+00
  3.34946043E-02  2.34726953E-01  8.13757326E-01  1.00000000E+00  3.34946043E-02
  2.34726953E-01  8.13757326E-01  1.00000000E+00  3.34946043E-02  2.34726953E-01
  8.13757326E-01  1.00000000E+00  3.34946043E-02  2.34726953E-01  8.13757326E-01
  1.00000000E+00  3.34946043E-02  2.34726953E-01  8.13757326E-01  1.00000000E+00
  3.34946043E-02  2.34726953E-01  8.13757326E-01  1.00000000E+00
P(S=P) Contraction coefficients            R   N=         109
  0.00000000E+00  0.00000000E+00  0.00000000E+00  0.00000000E+00  0.00000000E+00
  0.00000000E+00  7.08742682E-02  3.39752839E-01  7.27158577E-01  1.00000000E+00
  0.00000000E+00  0.00000000E+00  0.00000000E+00  0.00000000E+00  0.00000000E+00
  0.00000000E+00  0.00000000E+00  7.08742682E-02  3.39752839E-01  7.27158577E-01
  1.00000000E+00  0.00000000E+00  0.00000000E+00  0.00000000E+00  0.00000000E+00
  0.00000000E+00  0.00000000E+00  0.00000000E+00  7.08742682E-02  3.39752839E-01
  7.27158577E-01  1.00000000E+00  0.00000000E+00  0.00000000E+00  0.00000000E+00
  0.00000000E+00  0.00000000E+00  0.00000000E+00  0.00000000E+00  6.89990666E-02
  3.16423961E-01  7.44308291E-01  1.00000000E+00  0.00000000E+00  0.00000000E+00
  0.00000000E+00  0.00000000E+00  0.00000000E+00  0.00000000E+00  0.00000000E+00
  6.89990666E-02  3.16423961E-01  7.44308291E-01  1.00000000E+00  0.00000000E+00
  0.00000000E+00  0.00000000E+00  0.00000000E+00  0.00000000E+00  0.00000000E+00
  0.00000000E+00  6.89990666E-02  3.16423961E-01  7.44308291E-01  1.00000000E+00
  0.00000000E+00  0.00000000E+00  0.00000000E+00  0.00000000E+00  0.00000000E+00
  0.00000000E+00  0.00000000E+00  6.89990666E-02  3.16423961E-01  7.44308291E-01
  1.00000000E+00  0.00000000E+00  0.00000000E+00  0.00000000E+00  0.00000000E+00
  0.00000000E+00  0.00000000E+00  0.00000000E+00  0.00000000E+00  0.00000000E+00
  0.00000000E+00  0.00000000E+00  0.00000000E+00  0.00000000E+00  0.00000000E+00
  0.00000000E+00  0.00000000E+00  0.00000000E+00  0.00000000E+00  0.00000000E+00
  0.00000000E+00  0.00000000E+00  0.00000000E+00  0.00000000E+00  0.00000000E+00
  0.00000000E+00  0.00000000E+00  0.00000000E+00  0.00000000E+00  0.00000000E+00
  0.00000000E+00  0.00000000E+00  0.00000000E+00  0.00000000E+00
Coordinates of each shell                  R   N=         132
 -2.43636768E+00  1.13917551E-05 -1.53923710E+00 -2.43636768E+00  1.13917551E-05
 -1.53923710E+00 -2.43636768E+00  1.13917551E-05 -1.53923710E+00 -2.43636768E+00
  1.13917551E-05 -1.53923710E+00 -1.12630183E+00 -4.29549297E-05  2.53651947E+00
 -1.12630183E+00 -4.29549297E-05  2.53651947E+00 -1.12630183E+00 -4.29549297E-05
  2.53651947E+00 -1.12630183E+00 -4.29549297E-05  2.53651947E+00 -4.95033587E+00
  8.46519165E-06 -4.01009839E-01 -4.95033587E+00  8.46519165E-06 -4.01009839E-01
 -4.95033587E+00  8.46519165E-06 -4.01009839E-01 -4.95033587E+00  8.46519165E-06
 -4.01009839E-01  1.97239395E+00  6.63886699E-06 -8.80618877E-01  1.97239395E+00
  6.63886699E-06 -8.80618877E-01  1.97239395E+00  6.63886699E-06 -8.80618877E-01
  1.97239395E+00  6.63886699E-06 -8.80618877E-01  3.36624813E+00  2.39493476E+00
 -4.94619870E-02  3.36624813E+00  2.39493476E+00 -4.94619870E-02  3.36624813E+00
  2.39493476E+00 -4.94619870E-02  3.36624813E+00  2.39493476E+00 -4.94619870E-02
  3.36629162E+00 -2.39490773E+00 -4.95145097E-02  3.36629162E+00 -2.39490773E+00
 -4.95145097E-02  3.36629162E+00 -2.39490773E+00 -4.95145097E-02  3.36629162E+00
 -2.39490773E+00 -4.95145097E-02 -6.21776765E-01 -1.44332013E-05  2.80723103E-01
 -6.21776765E-01 -1.44332013E-05  2.80723103E-01 -6.21776765E-01 -1.44332013E-05
  2.80723103E-01 -6.21776765E-01 -1.44332013E-05  2.80723103E-01  1.74712788E+00
  2.89446869E-05 -2.93768584E+00  1.74712788E+00  2.89446869E-05 -2.93768584E+00
  3.51906350E+00  2.44640185E+00  2.00957771E+00  3.51906350E+00  2.44640185E+00
  2.00957771E+00  2.37685323E+00  4.09662726E+00 -6.78532464E-01  2.37685323E+00
  4.09662726E+00 -6.78532464E-01  5.26811207E+00  2.41431481E+00 -8.56941279E-01
  5.26811207E+00  2.41431481E+00 -8.56941279E-01  3.51907945E+00 -2.44643510E+00
  2.00952595E+00  3.51907945E+00 -2.44643510E+00  2.00952595E+00  5.26816945E+00
 -2.41421558E+00 -8.56963305E-01  5.26816945E+00 -2.41421558E+00 -8.56963305E-01
  2.37695231E+00 -4.09660825E+00 -6.78650767E-01  2.37695231E+00 -4.09660825E+00
 -6.78650767E-01 -4.47025643E+00 -4.45101127E-05  1.41272340E+00 -4.47025643E+00
 -4.45101127E-05  1.41272340E+00
Constraint Structure                       R   N=          45
 -2.43636768E+00  1.13917551E-05 -1.53923710E+00 -1.12630183E+00 -4.29549297E-05
  2.53651947E+00 -4.95033587E+00  8.46519165E-06 -4.01009839E-01  1.97239395E+00
  6.63886699E-06 -8.80618877E-01  3.36624813E+00  2.39493476E+00 -4.94619870E-02
  3.36629162E+00 -2.39490773E+00 -4.95145097E-02 -6.21776765E-01 -1.44332013E-05
  2.80723103E-01  1.74712788E+00  2.89446869E-05 -2.93768584E+00  3.51906350E+00
  2.44640185E+00  2.00957771E+00  2.37685323E+00  4.09662726E+00 -6.78532464E-01
  5.26811207E+00  2.41431481E+00 -8.56941279E-01  3.51907945E+00 -2.44643510E+00
  2.00952595E+00  5.26816945E+00 -2.41421558E+00 -8.56963305E-01  2.37695231E+00
 -4.09660825E+00 -6.78650767E-01 -4.47025643E+00 -4.45101127E-05  1.41272340E+00
Num ILSW                                   I              100
ILSW                                       I   N=         100
           0           1           0           0           2           0
           0           0           0           0           0          -1
           0           0           0           0           0           0
           0           0           0           0           1           0
           1           0           0           0           0           0
           0           0      100000           0          -1           0
           0           0           0           0           0           0
           0           0           0           1           1           0
           0           0           1           0           0           0
           0           0           4          40           0           0
           0           0           0           0           0           0
           0           0           0           0           0           0
           0           0           0           0           0           0
           0           0           0           0           0           0
           0           0           0           0           0           0
           0           0           0           0           0           0
           0           0           0           0
Num RLSW                                   I               40
RLSW                                       R   N=          40
  1.00000000E+00  1.00000000E+00  1.00000000E+00  1.00000000E+00  1.00000000E+00
  0.00000000E+00  0.00000000E+00  1.00000000E+00  0.00000000E+00  0.00000000E+00
  0.00000000E+00  0.00000000E+00  1.00000000E+00  0.00000000E+00  0.00000000E+00
  0.00000000E+00  0.00000000E+00  1.00000000E+00  0.00000000E+00  0.00000000E+00
  0.00000000E+00  0.00000000E+00  1.00000000E+00  0.00000000E+00  0.00000000E+00
  0.00000000E+00  0.00000000E+00  1.00000000E+00  0.00000000E+00  0.00000000E+00
  0.00000000E+00  0.00000000E+00  0.00000000E+00  0.00000000E+00  0.00000000E+00
  0.00000000E+00  0.00000000E+00  0.00000000E+00  1.00000000E+00  1.00000000E+00
MxBond                                     I                4
NBond                                      I   N=          15
           2           1           2           4           4           4
           3           1           1           1           1           1
           1           1           1
IBond                                      I   N=          60
           3           7           0           0           7           0
           0           0           1          15           0           0
           5           6           7           8           4           9
          10          11           4          12          13          14
           1           2           4           0           4           0
           0           0           5           0           0           0
           5           0           0           0           5           0
           0           0           6           0           0           0
           6           0           0           0           6           0
           0           0           3           0           0           0
RBond                                      R   N=          60
  1.00000000E+00  1.50000000E+00  0.00000000E+00  0.00000000E+00  2.00000000E+00
  0.00000000E+00  0.00000000E+00  0.00000000E+00  1.00000000E+00  1.00000000E+00
  0.00000000E+00  0.00000000E+00  1.00000000E+00  1.00000000E+00  1.00000000E+00
  1.00000000E+00  1.00000000E+00  1.00000000E+00  1.00000000E+00  1.00000000E+00
  1.00000000E+00  1.00000000E+00  1.00000000E+00  1.00000000E+00  1.50000000E+00
  2.00000000E+00  1.00000000E+00  0.00000000E+00  1.00000000E+00  0.00000000E+00
  0.00000000E+00  0.00000000E+00  1.00000000E+00  0.00000000E+00  0.00000000E+00
  0.00000000E+00  1.00000000E+00  0.00000000E+00  0.00000000E+00  0.00000000E+00
  1.00000000E+00  0.00000000E+00  0.00000000E+00  0.00000000E+00  1.00000000E+00
  0.00000000E+00  0.00000000E+00  0.00000000E+00  1.00000000E+00  0.00000000E+00
  0.00000000E+00  0.00000000E+00  1.00000000E+00  0.00000000E+00  0.00000000E+00
  0.00000000E+00  1.00000000E+00  0.00000000E+00  0.00000000E+00  0.00000000E+00
Virial Ratio                               R      2.002910073338744E+00
SCF Energy                                 R     -3.806231368374756E+02
MP2 Energy                                 R     -3.816896065345538E+02
Total Energy                               R     -3.816896065345538E+02
Post-SCF wavefunction norm                 R      1.631709349294428E+00
RMS Force                                  R      4.442085098121013E-07
RMS Density                                R      9.797276090966176E-10
External E-field                           R   N=          35
  0.00000000E+00  0.00000000E+00  0.00000000E+00  0.00000000E+00  0.00000000E+00
  0.00000000E+00  0.00000000E+00  0.00000000E+00  0.00000000E+00  0.00000000E+00
  0.00000000E+00  0.00000000E+00  0.00000000E+00  0.00000000E+00  0.00000000E+00
  0.00000000E+00  0.00000000E+00  0.00000000E+00  0.00000000E+00  0.00000000E+00
  0.00000000E+00  0.00000000E+00  0.00000000E+00  0.00000000E+00  0.00000000E+00
  0.00000000E+00  0.00000000E+00  0.00000000E+00  0.00000000E+00  0.00000000E+00
  0.00000000E+00  0.00000000E+00  0.00000000E+00  0.00000000E+00  0.00000000E+00
IOpCl                                      I                0
IROHF                                      I                0
Alpha Orbital Energies                     R   N=         121
 -2.06792568E+01 -2.06536059E+01 -2.05838271E+01 -1.14096370E+01 -1.12678845E+01
 -1.12401087E+01 -1.12400904E+01 -1.52669399E+00 -1.40107039E+00 -1.26216879E+00
 -1.10547300E+00 -9.55947681E-01 -8.92215296E-01 -8.05726506E-01 -7.36449124E-01
 -6.84080123E-01 -6.83969817E-01 -6.41554642E-01 -6.08181650E-01 -5.92963075E-01
 -5.90451262E-01 -5.63837359E-01 -5.40744271E-01 -5.37112980E-01 -5.03406686E-01
 -5.01206888E-01 -4.69395062E-01 -4.69270966E-01  1.59000890E-01  2.07310494E-01
  2.19312778E-01  2.75428596E-01  2.82557796E-01  2.91625675E-01  2.99226958E-01
  3.09287453E-01  3.32376545E-01  3.43075181E-01  3.58488204E-01  4.04217864E-01
  4.20641375E-01  4.83551955E-01  5.45937227E-01  6.82390575E-01  7.11708574E-01
  7.33248717E-01  7.74970775E-01  7.94555169E-01  8.38025937E-01  8.81423987E-01
  8.91542448E-01  9.24274302E-01  9.51797654E-01  9.77990157E-01  1.00616843E+00
  1.00787433E+00  1.07329426E+00  1.08221634E+00  1.09077776E+00  1.12600863E+00
  1.13819949E+00  1.16654585E+00  1.16810783E+00  1.17365993E+00  1.19388158E+00
  1.21811039E+00  1.23499465E+00  1.24608955E+00  1.27200682E+00  1.32667881E+00
  1.35433079E+00  1.35473345E+00  1.43716214E+00  1.48811322E+00  1.53701507E+00
  1.61406252E+00  1.64886661E+00  1.72836244E+00  1.74824368E+00  1.79711134E+00
  1.82704299E+00  1.90120922E+00  1.93747070E+00  1.99912531E+00  2.01517663E+00
  2.04709161E+00  2.04834106E+00  2.10469743E+00  2.11204853E+00  2.16912584E+00
  2.21870198E+00  2.23432392E+00  2.28721823E+00  2.31116529E+00  2.37503954E+00
  2.38470941E+00  2.45034423E+00  2.52429011E+00  2.56674266E+00  2.58021736E+00
  2.60612691E+00  2.63848656E+00  2.65548774E+00  2.72021352E+00  2.81561668E+00
  2.84324320E+00  2.90353066E+00  2.94169735E+00  3.03689226E+00  3.09391310E+00
  3.15551596E+00  3.29955320E+00  3.42072080E+00  3.47501748E+00  3.95047632E+00
  4.35669818E+00  4.56431416E+00  4.69364604E+00  4.71706634E+00  4.75758327E+00
  5.04854046E+00
Alpha MO coefficients                      R   N=       14641
  9.94755358E-01  2.10712011E-02 -2.29709939E-04 -1.49585904E-08  1.39026819E-03
  3.04067083E-03  6.18968789E-04  8.10386819E-09 -8.99253492E-04 -4.10977116E-03
 -3.63029201E-03 -3.85557807E-03  2.66009574E-10  1.66613469E-04  2.08764034E-09
 -1.68060033E-04  5.21203009E-05  2.42514694E-05 -2.78374779E-10  3.71140926E-05
 -4.34896915E-04  3.86581692E-05 -2.71545688E-09  1.21097763E-04  5.05637497E-05
  7.38829260E-06 -2.28674955E-05  7.21727898E-10 -5.54630410E-05  7.14929193E-10
  5.81481131E-03  1.39509462E-04  2.80720744E-04  4.40539220E-10 -1.32086239E-04
  4.88134275E-04  4.22630655E-04 -3.01466408E-09 -2.51435679E-05  1.82863407E-04
 -1.04338119E-04 -2.81059804E-05 -6.45162382E-10 -1.00122693E-04 -1.56571354E-09
 -4.94237095E-06  3.28950402E-05 -1.38448359E-05  3.51903080E-10 -2.01183956E-06
  4.17711770E-04  2.17717860E-04 -4.77955663E-09  6.14900454E-05 -1.01143009E-04
  3.37606909E-06 -2.04621787E-05 -3.76155349E-10 -3.00993088E-06  1.69730998E-10
 -8.22602890E-07  2.30243431E-06  1.04267895E-08  8.34193747E-06  1.19967149E-05
 -1.13011060E-04 -1.85236716E-06  9.77603183E-05 -3.26460134E-05  7.94459381E-06
 -1.50309935E-05 -7.28671264E-06 -3.20217530E-06  8.28581581E-06 -2.28896585E-06
 -8.22618011E-07  2.30279834E-06  1.15267762E-08 -8.34279154E-06  1.19961308E-05
 -1.13019586E-04 -1.85038586E-06 -9.77597185E-05 -3.26429665E-05  7.94358405E-06
 -1.50305705E-05 -7.28671439E-06  3.20263856E-06  8.28590913E-06  2.28911722E-06
  1.07247684E-06  3.79386473E-04 -2.37984958E-04  2.92007410E-09 -2.07486100E-04
  1.17319982E-04 -2.17610543E-04 -2.26942685E-09  4.00466288E-04 -2.12117032E-05
 -4.22504063E-05 -5.78223080E-05  1.27044408E-09 -8.41563436E-05  2.36015011E-10
  6.00050331E-05 -2.09556381E-04  1.26869050E-05  1.27557819E-05 -2.86510318E-07
 -2.94016798E-05  1.85176308E-06 -8.07632090E-06  1.26869447E-05  1.27526141E-05
  1.85246841E-06 -8.07353373E-06 -2.87541530E-07 -2.93977430E-05 -1.01982886E-04
 -4.73186404E-05 -5.88959045E-03 -5.77149936E-05 -2.80313579E-04 -3.85654388E-13
  1.18741530E-04  2.91032500E-04 -1.90932466E-04 -3.33090873E-09  2.55553629E-04
  1.96167789E-04 -2.52010707E-05  7.28657869E-05  2.20691340E-10 -8.60176884E-05
 -1.04686670E-09 -7.57721356E-05 -8.01243686E-06  1.76506686E-05 -1.74742066E-10
  9.68487784E-06 -4.59292866E-05  1.75335488E-05  7.70607423E-11  1.33918292E-05
 -2.05288587E-05 -3.20140636E-05 -1.82506894E-05  4.02170708E-10 -2.55542281E-05
 -2.48486480E-10  9.94778896E-01  2.09692295E-02  1.32285352E-03 -2.89767290E-08
  5.60787919E-04  3.10122392E-03 -9.05288842E-04  1.19249065E-08 -1.23728381E-04
 -4.15634190E-03 -3.51823437E-03 -3.85923089E-03  1.71029338E-09  2.14568027E-04
  8.31071044E-09 -1.61053946E-05 -8.41158108E-05 -6.64702420E-06 -2.62611876E-10
  5.10260061E-06  6.22397148E-04 -3.02111316E-04  1.54642330E-10  9.95643571E-05
  1.23755186E-05 -2.61857324E-05 -1.62393073E-05  3.60367112E-10 -1.53124987E-05
 -1.50306367E-10 -3.27056497E-08  8.25159124E-07  7.08438477E-06  5.73829643E-06
 -5.24517713E-07 -4.57519414E-05  2.65662073E-05 -6.81625050E-07  4.45767019E-06
 -2.63189879E-06  7.84384171E-07 -1.72562667E-06 -4.46790063E-06 -5.34200472E-06
  5.37644281E-06 -3.26958086E-08  8.25119789E-07  7.08447465E-06 -5.73788495E-06
 -5.24538359E-07 -4.57492038E-05  2.65654573E-05  6.82263008E-07  4.45517872E-06
 -2.63197768E-06  7.84849563E-07 -1.72582896E-06  4.46793866E-06 -5.34167487E-06
 -5.37659771E-06 -7.67472067E-06  1.98436855E-05  9.87638951E-05 -1.70267524E-10
  1.65592614E-05 -3.29315608E-04 -4.15510243E-04 -4.84413434E-09  2.58394736E-04
 -8.41492725E-05 -3.53896049E-05 -3.65701184E-05  1.51038623E-10 -2.47706069E-05
  5.89879144E-11 -3.36930953E-05  1.00147516E-05  3.65475486E-06 -5.56056880E-06
  4.45993400E-06  8.20804219E-06 -1.49189043E-06  1.73827438E-05  3.65478300E-06
 -5.55902643E-06 -1.49203134E-06  1.73823524E-05  4.45971685E-06  8.20703248E-06
  3.96084700E-04 -2.79215691E-04  1.73011447E-04 -4.51921826E-05 -5.98176188E-06
  5.65406790E-10 -3.64169424E-05  1.72342030E-04  5.19126561E-05 -7.84604272E-10
  4.52120466E-05  6.97976428E-05 -6.28996905E-05 -9.85104470E-05 -5.87459061E-10
  1.38572389E-05  5.03519292E-10  9.94693362E-01  2.10154956E-02  2.49153356E-04
  1.86058481E-08 -1.54825272E-03  4.27959298E-03 -7.41402960E-05 -1.67496569E-09
  1.16414186E-04 -3.89280319E-03 -4.10834023E-03 -3.62990488E-03  6.09258760E-10
 -6.34631255E-05 -6.94691642E-09  5.93456637E-05 -3.84362859E-05 -8.75459616E-06
  7.05324829E-10 -1.56581538E-05  2.50793188E-04 -5.13350599E-06 -3.08124933E-09
  8.89595428E-05 -6.88437673E-05 -4.23449896E-05 -3.98962607E-05 -1.02381115E-10
  5.78069280E-06 -7.00351965E-10 -3.15945993E-06 -2.30461983E-05 -8.17688633E-06
  1.17439655E-10 -1.61043416E-05  9.50384829E-05  6.28624593E-05  2.35540800E-09
 -5.97397659E-05  5.25689016E-05 -9.23433973E-06 -4.73969704E-05 -4.15885430E-10
  3.82908032E-05  7.91718716E-10  5.54650539E-06  1.50229900E-05 -2.14346116E-05
 -1.18634244E-06  2.77954274E-06 -6.92310028E-05  9.82649430E-05  2.76614042E-05
  2.14477025E-05  1.56818147E-05  2.60697333E-06  1.05403544E-05 -1.52483643E-06
 -4.41519545E-06 -4.91743379E-06  5.54624170E-06  1.50220119E-05 -2.14345405E-05
  1.18563296E-06  2.77926006E-06 -6.92254601E-05  9.82635637E-05 -2.76590093E-05
  2.14492889E-05  1.56817346E-05  2.60620275E-06  1.05399321E-05  1.52537591E-06
 -4.41503419E-06  4.91736639E-06 -4.68389560E-06  4.99540361E-04  4.49663517E-06
  3.74666135E-10 -3.54359267E-05 -2.47551590E-04  1.96335049E-04  3.66112023E-09
 -2.36510206E-04 -1.03411061E-04 -4.55818138E-05 -7.61626078E-04 -2.05792108E-09
  1.76063298E-04  1.06530526E-08 -7.16530038E-06 -6.91378858E-05  2.44657569E-05
 -5.47870710E-05  1.10533953E-05  3.05985604E-05 -6.33015388E-06 -3.91601306E-05
  2.44657115E-05 -5.47894891E-05 -6.33023652E-06 -3.91600955E-05  1.10523817E-05
  3.05990416E-05 -2.85414240E-05 -2.06817367E-04 -6.82672125E-05  7.85653927E-04
 -1.18559009E-06 -3.56881170E-09  2.19047169E-04 -2.21303678E-03 -4.01238637E-05
  3.02039131E-08 -1.97303580E-03 -2.24483626E-04  6.15017607E-04 -3.13141178E-04
  8.65811370E-09 -4.31248131E-04  1.52127068E-08 -2.97108983E-04  5.02866064E-04
 -2.09817874E-05  2.75756604E-09 -2.54015889E-04 -2.37092735E-03  5.35392303E-04
 -1.51360703E-08  1.66784035E-03  2.01228479E-04  3.26996354E-04 -1.61472186E-04
  1.72921321E-09 -1.46719566E-04  5.58407927E-09 -1.64850259E-05 -2.05618474E-04