20134672                                                                
Freq      RMP2-FC                                                     6-31G(d)            
Number of atoms                            I               22
Info1-9                                    I   N=           9
          34          32        1002           0           0         100
           6           2           1
Charge                                     I                0
Multiplicity                               I                1
Number of electrons                        I               64
Number of alpha electrons                  I               32
Number of beta electrons                   I               32
Number of basis functions                  I              148
Number of independent functions            I              148
Number of point charges in /Mol/           I                0
Number of translation vectors              I                0
Atomic numbers                             I   N=          22
           8           6           6           6           6           6
           6           6           1           1           1           1
           1           1           1           1           1           1
           1           1           1           1
Nuclear charges                            R   N=          22
  8.00000000E+00  6.00000000E+00  6.00000000E+00  6.00000000E+00  6.00000000E+00
  6.00000000E+00  6.00000000E+00  6.00000000E+00  1.00000000E+00  1.00000000E+00
  1.00000000E+00  1.00000000E+00  1.00000000E+00  1.00000000E+00  1.00000000E+00
  1.00000000E+00  1.00000000E+00  1.00000000E+00  1.00000000E+00  1.00000000E+00
  1.00000000E+00  1.00000000E+00
Current cartesian coordinates              R   N=          66
 -4.42541079E-06 -1.15328037E+00 -7.99014023E-05  1.76944595E+00  7.82543035E-01
 -8.62911021E-01 -1.76942087E+00  7.82519467E-01  8.62886892E-01  1.73782264E-06
  2.91589385E+00 -5.37909055E-06  4.29292614E+00  5.47470800E-01  4.59892648E-01
 -4.29295229E+00  5.47489246E-01 -4.59821543E-01  5.56022786E+00 -1.98042646E+00
 -9.86914490E-02 -5.56022432E+00 -1.98043324E+00  9.87153498E-02  2.02068479E+00
  6.51318272E-01 -2.92165425E+00 -2.02057171E+00  6.51230218E-01  2.92163684E+00
  7.60183845E-01  4.11147212E+00  1.50384340E+00 -7.60203572E-01  4.11144850E+00
 -1.50386100E+00  3.97248957E+00  7.49501529E-01  2.49748264E+00  5.50241503E+00
  2.12714335E+00 -1.32023075E-01 -3.97259604E+00  7.49598910E-01 -2.49741620E+00
 -5.50242441E+00  2.12713438E+00  1.32201376E-01  4.31725144E+00 -3.52671387E+00
  4.71494987E-01  5.95208261E+00 -2.17898798E+00 -2.11993749E+00  7.34892252E+00
 -2.16574973E+00  9.19558432E-01 -5.95196367E+00 -2.17908979E+00  2.11997457E+00
 -7.34897773E+00 -2.16570749E+00 -9.19440655E-01 -4.31728245E+00 -3.52669562E+00
 -4.71613359E-01
Force Field                                I                0
Int Atom Types                             I   N=          22
           0           0           0           0           0           0
           0           0           0           0           0           0
           0           0           0           0           0           0
           0           0           0           0
MM charges                                 R   N=          22
  0.00000000E+00  0.00000000E+00  0.00000000E+00  0.00000000E+00  0.00000000E+00
  0.00000000E+00  0.00000000E+00  0.00000000E+00  0.00000000E+00  0.00000000E+00
  0.00000000E+00  0.00000000E+00  0.00000000E+00  0.00000000E+00  0.00000000E+00
  0.00000000E+00  0.00000000E+00  0.00000000E+00  0.00000000E+00  0.00000000E+00
  0.00000000E+00  0.00000000E+00
Integer atomic weights                     I   N=          22
          16          12          12          12          12          12
          12          12           1           1           1           1
           1           1           1           1           1           1
           1           1           1           1
Real atomic weights                        R   N=          22
  1.59949146E+01  1.20000000E+01  1.20000000E+01  1.20000000E+01  1.20000000E+01
  1.20000000E+01  1.20000000E+01  1.20000000E+01  1.00782504E+00  1.00782504E+00
  1.00782504E+00  1.00782504E+00  1.00782504E+00  1.00782504E+00  1.00782504E+00
  1.00782504E+00  1.00782504E+00  1.00782504E+00  1.00782504E+00  1.00782504E+00
  1.00782504E+00  1.00782504E+00
Atom fragment info                         I   N=          22
           0           0           0           0           0           0
           0           0           0           0           0           0
           0           0           0           0           0           0
           0           0           0           0
Atom residue num                           I   N=          22
           0           0           0           0           0           0
           0           0           0           0           0           0
           0           0           0           0           0           0
           0           0           0           0
Nuclear spins                              I   N=          22
           0           0           0           0           0           0
           0           0           1           1           1           1
           1           1           1           1           1           1
           1           1           1           1
Nuclear ZEff                               R   N=          22
 -5.60000000E+00 -3.60000000E+00 -3.60000000E+00 -3.60000000E+00 -3.60000000E+00
 -3.60000000E+00 -3.60000000E+00 -3.60000000E+00 -1.00000000E+00 -1.00000000E+00
 -1.00000000E+00 -1.00000000E+00 -1.00000000E+00 -1.00000000E+00 -1.00000000E+00
 -1.00000000E+00 -1.00000000E+00 -1.00000000E+00 -1.00000000E+00 -1.00000000E+00
 -1.00000000E+00 -1.00000000E+00
Nuclear QMom                               R   N=          22
  0.00000000E+00  0.00000000E+00  0.00000000E+00  0.00000000E+00  0.00000000E+00
  0.00000000E+00  0.00000000E+00  0.00000000E+00  0.00000000E+00  0.00000000E+00
  0.00000000E+00  0.00000000E+00  0.00000000E+00  0.00000000E+00  0.00000000E+00
  0.00000000E+00  0.00000000E+00  0.00000000E+00  0.00000000E+00  0.00000000E+00
  0.00000000E+00  0.00000000E+00
Nuclear GFac                               R   N=          22
  0.00000000E+00  0.00000000E+00  0.00000000E+00  0.00000000E+00  0.00000000E+00
  0.00000000E+00  0.00000000E+00  0.00000000E+00  2.79284600E+00  2.79284600E+00
  2.79284600E+00  2.79284600E+00  2.79284600E+00  2.79284600E+00  2.79284600E+00
  2.79284600E+00  2.79284600E+00  2.79284600E+00  2.79284600E+00  2.79284600E+00
  2.79284600E+00  2.79284600E+00
MicOpt                                     I   N=          22
          -1          -1          -1          -1          -1          -1
          -1          -1          -1          -1          -1          -1
          -1          -1          -1          -1          -1          -1
          -1          -1          -1          -1
Number of contracted shells                I               60
Number of primitive shells                 I              144
Pure/Cartesian d shells                    I                1
Pure/Cartesian f shells                    I                0
Highest angular momentum                   I                2
Largest degree of contraction              I                6
Shell types                                I   N=          60
           0          -1          -1           2           0          -1
          -1           2           0          -1          -1           2
           0          -1          -1           2           0          -1
          -1           2           0          -1          -1           2
           0          -1          -1           2           0          -1
          -1           2           0           0           0           0
           0           0           0           0           0           0
           0           0           0           0           0           0
           0           0           0           0           0           0
           0           0           0           0           0           0
Number of primitives per shell             I   N=          60
           6           3           1           1           6           3
           1           1           6           3           1           1
           6           3           1           1           6           3
           1           1           6           3           1           1
           6           3           1           1           6           3
           1           1           3           1           3           1
           3           1           3           1           3           1
           3           1           3           1           3           1
           3           1           3           1           3           1
           3           1           3           1           3           1
Shell to atom map                          I   N=          60
           1           1           1           1           2           2
           2           2           3           3           3           3
           4           4           4           4           5           5
           5           5           6           6           6           6
           7           7           7           7           8           8
           8           8           9           9          10          10
          11          11          12          12          13          13
          14          14          15          15          16          16
          17          17          18          18          19          19
          20          20          21          21          22          22
Primitive exponents                        R   N=         144
  5.48467166E+03  8.25234946E+02  1.88046958E+02  5.29645000E+01  1.68975704E+01
  5.79963534E+00  1.55396162E+01  3.59993359E+00  1.01376175E+00  2.70005823E-01
  8.00000000E-01  3.04752488E+03  4.57369518E+02  1.03948685E+02  2.92101553E+01
  9.28666296E+00  3.16392696E+00  7.86827235E+00  1.88128854E+00  5.44249258E-01
  1.68714478E-01  8.00000000E-01  3.04752488E+03  4.57369518E+02  1.03948685E+02
  2.92101553E+01  9.28666296E+00  3.16392696E+00  7.86827235E+00  1.88128854E+00
  5.44249258E-01  1.68714478E-01  8.00000000E-01  3.04752488E+03  4.57369518E+02
  1.03948685E+02  2.92101553E+01  9.28666296E+00  3.16392696E+00  7.86827235E+00
  1.88128854E+00  5.44249258E-01  1.68714478E-01  8.00000000E-01  3.04752488E+03
  4.57369518E+02  1.03948685E+02  2.92101553E+01  9.28666296E+00  3.16392696E+00
  7.86827235E+00  1.88128854E+00  5.44249258E-01  1.68714478E-01  8.00000000E-01
  3.04752488E+03  4.57369518E+02  1.03948685E+02  2.92101553E+01  9.28666296E+00
  3.16392696E+00  7.86827235E+00  1.88128854E+00  5.44249258E-01  1.68714478E-01
  8.00000000E-01  3.04752488E+03  4.57369518E+02  1.03948685E+02  2.92101553E+01
  9.28666296E+00  3.16392696E+00  7.86827235E+00  1.88128854E+00  5.44249258E-01
  1.68714478E-01  8.00000000E-01  3.04752488E+03  4.57369518E+02  1.03948685E+02
  2.92101553E+01  9.28666296E+00  3.16392696E+00  7.86827235E+00  1.88128854E+00
  5.44249258E-01  1.68714478E-01  8.00000000E-01  1.87311370E+01  2.82539436E+00
  6.40121692E-01  1.61277759E-01  1.87311370E+01  2.82539436E+00  6.40121692E-01
  1.61277759E-01  1.87311370E+01  2.82539436E+00  6.40121692E-01  1.61277759E-01
  1.87311370E+01  2.82539436E+00  6.40121692E-01  1.61277759E-01  1.87311370E+01
  2.82539436E+00  6.40121692E-01  1.61277759E-01  1.87311370E+01  2.82539436E+00
  6.40121692E-01  1.61277759E-01  1.87311370E+01  2.82539436E+00  6.40121692E-01
  1.61277759E-01  1.87311370E+01  2.82539436E+00  6.40121692E-01  1.61277759E-01
  1.87311370E+01  2.82539436E+00  6.40121692E-01  1.61277759E-01  1.87311370E+01
  2.82539436E+00  6.40121692E-01  1.61277759E-01  1.87311370E+01  2.82539436E+00
  6.40121692E-01  1.61277759E-01  1.87311370E+01  2.82539436E+00  6.40121692E-01
  1.61277759E-01  1.87311370E+01  2.82539436E+00  6.40121692E-01  1.61277759E-01
  1.87311370E+01  2.82539436E+00  6.40121692E-01  1.61277759E-01
Contraction coefficients                   R   N=         144
  1.83107443E-03  1.39501722E-02  6.84450781E-02  2.32714336E-01  4.70192898E-01
  3.58520853E-01 -1.10777550E-01 -1.48026263E-01  1.13076702E+00  1.00000000E+00
  1.00000000E+00  1.83473713E-03  1.40373228E-02  6.88426223E-02  2.32184443E-01
  4.67941348E-01  3.62311985E-01 -1.19332420E-01 -1.60854152E-01  1.14345644E+00
  1.00000000E+00  1.00000000E+00  1.83473713E-03  1.40373228E-02  6.88426223E-02
  2.32184443E-01  4.67941348E-01  3.62311985E-01 -1.19332420E-01 -1.60854152E-01
  1.14345644E+00  1.00000000E+00  1.00000000E+00  1.83473713E-03  1.40373228E-02
  6.88426223E-02  2.32184443E-01  4.67941348E-01  3.62311985E-01 -1.19332420E-01
 -1.60854152E-01  1.14345644E+00  1.00000000E+00  1.00000000E+00  1.83473713E-03
  1.40373228E-02  6.88426223E-02  2.32184443E-01  4.67941348E-01  3.62311985E-01
 -1.19332420E-01 -1.60854152E-01  1.14345644E+00  1.00000000E+00  1.00000000E+00
  1.83473713E-03  1.40373228E-02  6.88426223E-02  2.32184443E-01  4.67941348E-01
  3.62311985E-01 -1.19332420E-01 -1.60854152E-01  1.14345644E+00  1.00000000E+00
  1.00000000E+00  1.83473713E-03  1.40373228E-02  6.88426223E-02  2.32184443E-01
  4.67941348E-01  3.62311985E-01 -1.19332420E-01 -1.60854152E-01  1.14345644E+00
  1.00000000E+00  1.00000000E+00  1.83473713E-03  1.40373228E-02  6.88426223E-02
  2.32184443E-01  4.67941348E-01  3.62311985E-01 -1.19332420E-01 -1.60854152E-01
  1.14345644E+00  1.00000000E+00  1.00000000E+00  3.34946043E-02  2.34726953E-01
  8.13757326E-01  1.00000000E+00  3.34946043E-02  2.34726953E-01  8.13757326E-01
  1.00000000E+00  3.34946043E-02  2.34726953E-01  8.13757326E-01  1.00000000E+00
  3.34946043E-02  2.34726953E-01  8.13757326E-01  1.00000000E+00  3.34946043E-02
  2.34726953E-01  8.13757326E-01  1.00000000E+00  3.34946043E-02  2.34726953E-01
  8.13757326E-01  1.00000000E+00  3.34946043E-02  2.34726953E-01  8.13757326E-01
  1.00000000E+00  3.34946043E-02  2.34726953E-01  8.13757326E-01  1.00000000E+00
  3.34946043E-02  2.34726953E-01  8.13757326E-01  1.00000000E+00  3.34946043E-02
  2.34726953E-01  8.13757326E-01  1.00000000E+00  3.34946043E-02  2.34726953E-01
  8.13757326E-01  1.00000000E+00  3.34946043E-02  2.34726953E-01  8.13757326E-01
  1.00000000E+00  3.34946043E-02  2.34726953E-01  8.13757326E-01  1.00000000E+00
  3.34946043E-02  2.34726953E-01  8.13757326E-01  1.00000000E+00
P(S=P) Contraction coefficients            R   N=         144
  0.00000000E+00  0.00000000E+00  0.00000000E+00  0.00000000E+00  0.00000000E+00
  0.00000000E+00  7.08742682E-02  3.39752839E-01  7.27158577E-01  1.00000000E+00
  0.00000000E+00  0.00000000E+00  0.00000000E+00  0.00000000E+00  0.00000000E+00
  0.00000000E+00  0.00000000E+00  6.89990666E-02  3.16423961E-01  7.44308291E-01
  1.00000000E+00  0.00000000E+00  0.00000000E+00  0.00000000E+00  0.00000000E+00
  0.00000000E+00  0.00000000E+00  0.00000000E+00  6.89990666E-02  3.16423961E-01
  7.44308291E-01  1.00000000E+00  0.00000000E+00  0.00000000E+00  0.00000000E+00
  0.00000000E+00  0.00000000E+00  0.00000000E+00  0.00000000E+00  6.89990666E-02
  3.16423961E-01  7.44308291E-01  1.00000000E+00  0.00000000E+00  0.00000000E+00
  0.00000000E+00  0.00000000E+00  0.00000000E+00  0.00000000E+00  0.00000000E+00
  6.89990666E-02  3.16423961E-01  7.44308291E-01  1.00000000E+00  0.00000000E+00
  0.00000000E+00  0.00000000E+00  0.00000000E+00  0.00000000E+00  0.00000000E+00
  0.00000000E+00  6.89990666E-02  3.16423961E-01  7.44308291E-01  1.00000000E+00
  0.00000000E+00  0.00000000E+00  0.00000000E+00  0.00000000E+00  0.00000000E+00
  0.00000000E+00  0.00000000E+00  6.89990666E-02  3.16423961E-01  7.44308291E-01
  1.00000000E+00  0.00000000E+00  0.00000000E+00  0.00000000E+00  0.00000000E+00
  0.00000000E+00  0.00000000E+00  0.00000000E+00  6.89990666E-02  3.16423961E-01
  7.44308291E-01  1.00000000E+00  0.00000000E+00  0.00000000E+00  0.00000000E+00
  0.00000000E+00  0.00000000E+00  0.00000000E+00  0.00000000E+00  0.00000000E+00
  0.00000000E+00  0.00000000E+00  0.00000000E+00  0.00000000E+00  0.00000000E+00
  0.00000000E+00  0.00000000E+00  0.00000000E+00  0.00000000E+00  0.00000000E+00
  0.00000000E+00  0.00000000E+00  0.00000000E+00  0.00000000E+00  0.00000000E+00
  0.00000000E+00  0.00000000E+00  0.00000000E+00  0.00000000E+00  0.00000000E+00
  0.00000000E+00  0.00000000E+00  0.00000000E+00  0.00000000E+00  0.00000000E+00
  0.00000000E+00  0.00000000E+00  0.00000000E+00  0.00000000E+00  0.00000000E+00
  0.00000000E+00  0.00000000E+00  0.00000000E+00  0.00000000E+00  0.00000000E+00
  0.00000000E+00  0.00000000E+00  0.00000000E+00  0.00000000E+00  0.00000000E+00
  0.00000000E+00  0.00000000E+00  0.00000000E+00  0.00000000E+00  0.00000000E+00
  0.00000000E+00  0.00000000E+00  0.00000000E+00  0.00000000E+00
Coordinates of each shell                  R   N=         180
 -4.42541079E-06 -1.15328037E+00 -7.99014023E-05 -4.42541079E-06 -1.15328037E+00
 -7.99014023E-05 -4.42541079E-06 -1.15328037E+00 -7.99014023E-05 -4.42541079E-06
 -1.15328037E+00 -7.99014023E-05  1.76944595E+00  7.82543035E-01 -8.62911021E-01
  1.76944595E+00  7.82543035E-01 -8.62911021E-01  1.76944595E+00  7.82543035E-01
 -8.62911021E-01  1.76944595E+00  7.82543035E-01 -8.62911021E-01 -1.76942087E+00
  7.82519467E-01  8.62886892E-01 -1.76942087E+00  7.82519467E-01  8.62886892E-01
 -1.76942087E+00  7.82519467E-01  8.62886892E-01 -1.76942087E+00  7.82519467E-01
  8.62886892E-01  1.73782263E-06  2.91589385E+00 -5.37909055E-06  1.73782263E-06
  2.91589385E+00 -5.37909055E-06  1.73782263E-06  2.91589385E+00 -5.37909055E-06
  1.73782263E-06  2.91589385E+00 -5.37909055E-06  4.29292614E+00  5.47470800E-01
  4.59892648E-01  4.29292614E+00  5.47470800E-01  4.59892648E-01  4.29292614E+00
  5.47470800E-01  4.59892648E-01  4.29292614E+00  5.47470800E-01  4.59892648E-01
 -4.29295229E+00  5.47489246E-01 -4.59821543E-01 -4.29295229E+00  5.47489246E-01
 -4.59821543E-01 -4.29295229E+00  5.47489246E-01 -4.59821543E-01 -4.29295229E+00
  5.47489246E-01 -4.59821543E-01  5.56022786E+00 -1.98042646E+00 -9.86914490E-02
  5.56022786E+00 -1.98042646E+00 -9.86914490E-02  5.56022786E+00 -1.98042646E+00
 -9.86914490E-02  5.56022786E+00 -1.98042646E+00 -9.86914490E-02 -5.56022432E+00
 -1.98043324E+00  9.87153498E-02 -5.56022432E+00 -1.98043324E+00  9.87153498E-02
 -5.56022432E+00 -1.98043324E+00  9.87153498E-02 -5.56022432E+00 -1.98043324E+00
  9.87153498E-02  2.02068479E+00  6.51318272E-01 -2.92165425E+00  2.02068479E+00
  6.51318272E-01 -2.92165425E+00 -2.02057171E+00  6.51230218E-01  2.92163684E+00
 -2.02057171E+00  6.51230218E-01  2.92163684E+00  7.60183845E-01  4.11147212E+00
  1.50384340E+00  7.60183845E-01  4.11147212E+00  1.50384340E+00 -7.60203572E-01
  4.11144850E+00 -1.50386100E+00 -7.60203572E-01  4.11144850E+00 -1.50386100E+00
  3.97248957E+00  7.49501529E-01  2.49748264E+00  3.97248957E+00  7.49501529E-01
  2.49748264E+00  5.50241503E+00  2.12714335E+00 -1.32023075E-01  5.50241503E+00
  2.12714335E+00 -1.32023075E-01 -3.97259604E+00  7.49598910E-01 -2.49741620E+00
 -3.97259604E+00  7.49598910E-01 -2.49741620E+00 -5.50242441E+00  2.12713438E+00
  1.32201376E-01 -5.50242441E+00  2.12713438E+00  1.32201376E-01  4.31725144E+00
 -3.52671387E+00  4.71494987E-01  4.31725144E+00 -3.52671387E+00  4.71494987E-01
  5.95208261E+00 -2.17898798E+00 -2.11993749E+00  5.95208261E+00 -2.17898798E+00
 -2.11993749E+00  7.34892252E+00 -2.16574973E+00  9.19558432E-01  7.34892252E+00
 -2.16574973E+00  9.19558432E-01 -5.95196367E+00 -2.17908979E+00  2.11997457E+00
 -5.95196367E+00 -2.17908979E+00  2.11997457E+00 -7.34897773E+00 -2.16570749E+00
 -9.19440655E-01 -7.34897773E+00 -2.16570749E+00 -9.19440655E-01 -4.31728245E+00
 -3.52669562E+00 -4.71613359E-01 -4.31728245E+00 -3.52669562E+00 -4.71613359E-01
Constraint Structure                       R   N=          66
 -4.42541079E-06 -1.15328037E+00 -7.99014023E-05  1.76944595E+00  7.82543035E-01
 -8.62911021E-01 -1.76942087E+00  7.82519467E-01  8.62886892E-01  1.73782263E-06
  2.91589385E+00 -5.37909055E-06  4.29292614E+00  5.47470800E-01  4.59892648E-01
 -4.29295229E+00  5.47489246E-01 -4.59821543E-01  5.56022786E+00 -1.98042646E+00
 -9.86914490E-02 -5.56022432E+00 -1.98043324E+00  9.87153498E-02  2.02068479E+00
  6.51318272E-01 -2.92165425E+00 -2.02057171E+00  6.51230218E-01  2.92163684E+00
  7.60183845E-01  4.11147212E+00  1.50384340E+00 -7.60203572E-01  4.11144850E+00
 -1.50386100E+00  3.97248957E+00  7.49501529E-01  2.49748264E+00  5.50241503E+00
  2.12714335E+00 -1.32023075E-01 -3.97259604E+00  7.49598910E-01 -2.49741620E+00
 -5.50242441E+00  2.12713438E+00  1.32201376E-01  4.31725144E+00 -3.52671387E+00
  4.71494987E-01  5.95208261E+00 -2.17898798E+00 -2.11993749E+00  7.34892252E+00
 -2.16574973E+00  9.19558432E-01 -5.95196367E+00 -2.17908979E+00  2.11997457E+00
 -7.34897773E+00 -2.16570749E+00 -9.19440655E-01 -4.31728245E+00 -3.52669562E+00
 -4.71613359E-01
Num ILSW                                   I              100
ILSW                                       I   N=         100
           0           1           0           1           2           0
           0           0           0           0           0          -1
           0           0           0           0           0           0
           0           0           0           0           1           0
           1           0           0           0           0           0
           0           0      100000           0          -1           0
           0           0           0           0           0           0
           0           0           0           1           1           0
           0           0           1           0           0           0
           0           0           4          40           0           0
           0           0           0           0           0           0
           0           0           0           0           0           0
           0           0           0           0           0           0
           0           0           0           0           0           0
           0           0           0           0           0           0
           0           0           0           0           0           0
           0           0           0           0
Num RLSW                                   I               40
RLSW                                       R   N=          40
  1.00000000E+00  1.00000000E+00  1.00000000E+00  1.00000000E+00  1.00000000E+00
  0.00000000E+00  0.00000000E+00  1.00000000E+00  0.00000000E+00  0.00000000E+00
  0.00000000E+00  0.00000000E+00  1.00000000E+00  0.00000000E+00  0.00000000E+00
  0.00000000E+00  0.00000000E+00  1.00000000E+00  0.00000000E+00  0.00000000E+00
  0.00000000E+00  0.00000000E+00  1.00000000E+00  0.00000000E+00  0.00000000E+00
  0.00000000E+00  0.00000000E+00  1.00000000E+00  0.00000000E+00  0.00000000E+00
  0.00000000E+00  0.00000000E+00  0.00000000E+00  0.00000000E+00  0.00000000E+00
  0.00000000E+00  0.00000000E+00  0.00000000E+00  1.00000000E+00  1.00000000E+00
MxBond                                     I                4
NBond                                      I   N=          22
           2           4           4           4           4           4
           4           4           1           1           1           1
           1           1           1           1           1           1
           1           1           1           1
IBond                                      I   N=          88
           2           3           0           0           1           4
           5           9           1           4           6          10
           2           3          11          12           2           7
          13          14           3           8          15          16
           5          17          18          19           6          20
          21          22           2           0           0           0
           3           0           0           0           4           0
           0           0           4           0           0           0
           5           0           0           0           5           0
           0           0           6           0           0           0
           6           0           0           0           7           0
           0           0           7           0           0           0
           7           0           0           0           8           0
           0           0           8           0           0           0
           8           0           0           0
RBond                                      R   N=          88
  1.00000000E+00  1.00000000E+00  0.00000000E+00  0.00000000E+00  1.00000000E+00
  1.00000000E+00  1.00000000E+00  1.00000000E+00  1.00000000E+00  1.00000000E+00
  1.00000000E+00  1.00000000E+00  1.00000000E+00  1.00000000E+00  1.00000000E+00
  1.00000000E+00  1.00000000E+00  1.00000000E+00  1.00000000E+00  1.00000000E+00
  1.00000000E+00  1.00000000E+00  1.00000000E+00  1.00000000E+00  1.00000000E+00
  1.00000000E+00  1.00000000E+00  1.00000000E+00  1.00000000E+00  1.00000000E+00
  1.00000000E+00  1.00000000E+00  1.00000000E+00  0.00000000E+00  0.00000000E+00
  0.00000000E+00  1.00000000E+00  0.00000000E+00  0.00000000E+00  0.00000000E+00
  1.00000000E+00  0.00000000E+00  0.00000000E+00  0.00000000E+00  1.00000000E+00
  0.00000000E+00  0.00000000E+00  0.00000000E+00  1.00000000E+00  0.00000000E+00
  0.00000000E+00  0.00000000E+00  1.00000000E+00  0.00000000E+00  0.00000000E+00
  0.00000000E+00  1.00000000E+00  0.00000000E+00  0.00000000E+00  0.00000000E+00
  1.00000000E+00  0.00000000E+00  0.00000000E+00  0.00000000E+00  1.00000000E+00
  0.00000000E+00  0.00000000E+00  0.00000000E+00  1.00000000E+00  0.00000000E+00
  0.00000000E+00  0.00000000E+00  1.00000000E+00  0.00000000E+00  0.00000000E+00
  0.00000000E+00  1.00000000E+00  0.00000000E+00  0.00000000E+00  0.00000000E+00
  1.00000000E+00  0.00000000E+00  0.00000000E+00  0.00000000E+00  1.00000000E+00
  0.00000000E+00  0.00000000E+00  0.00000000E+00
Virial Ratio                               R      2.001493973189067E+00
SCF Energy                                 R     -3.480609871468014E+02
MP2 Energy                                 R     -3.491551376984390E+02
Total Energy                               R     -3.491551376984390E+02
Post-SCF wavefunction norm                 R      1.645975386405440E+00
RMS Force                                  R      3.294157784065836E-07
RMS Density                                R      4.953131260161457E-10
External E-field                           R   N=          35
  0.00000000E+00  0.00000000E+00  0.00000000E+00  0.00000000E+00  0.00000000E+00
  0.00000000E+00  0.00000000E+00  0.00000000E+00  0.00000000E+00  0.00000000E+00
  0.00000000E+00  0.00000000E+00  0.00000000E+00  0.00000000E+00  0.00000000E+00
  0.00000000E+00  0.00000000E+00  0.00000000E+00  0.00000000E+00  0.00000000E+00
  0.00000000E+00  0.00000000E+00  0.00000000E+00  0.00000000E+00  0.00000000E+00
  0.00000000E+00  0.00000000E+00  0.00000000E+00  0.00000000E+00  0.00000000E+00
  0.00000000E+00  0.00000000E+00  0.00000000E+00  0.00000000E+00  0.00000000E+00
IOpCl                                      I                0
IROHF                                      I                0
Alpha Orbital Energies                     R   N=         148
 -2.05423539E+01 -1.12771793E+01 -1.12771772E+01 -1.12251110E+01 -1.12192377E+01
 -1.12192375E+01 -1.12079241E+01 -1.12079240E+01 -1.36328097E+00 -1.05975668E+00
 -1.04715311E+00 -9.94298102E-01 -9.12916972E-01 -8.47159602E-01 -8.04584998E-01
 -7.35675529E-01 -6.70793752E-01 -6.64166722E-01 -6.06771945E-01 -6.01319465E-01
 -5.83969822E-01 -5.58709615E-01 -5.50383161E-01 -5.21280886E-01 -5.20433671E-01
 -4.97912729E-01 -4.91327924E-01 -4.80125813E-01 -4.79388019E-01 -4.44320215E-01
 -4.31923835E-01 -3.98129706E-01  2.34561040E-01  2.48839949E-01  2.53715980E-01
  2.57471210E-01  2.84201271E-01  3.01157318E-01  3.10074869E-01  3.11902884E-01
  3.12833719E-01  3.25561584E-01  3.35163367E-01  3.44148329E-01  3.44423888E-01
  3.55736971E-01  3.63734348E-01  3.81041303E-01  4.05490756E-01  4.24559306E-01
  4.52642849E-01  4.55116251E-01  4.82589318E-01  5.42640660E-01  6.94740674E-01
  7.04103590E-01  7.20880318E-01  7.35764709E-01  7.58309764E-01  7.65215586E-01
  7.75593548E-01  8.18081650E-01  8.30456456E-01  8.57881119E-01  9.12004596E-01
  9.22967851E-01  9.29031793E-01  9.51289816E-01  9.63631338E-01  9.80969713E-01
  1.03050202E+00  1.04127511E+00  1.09439375E+00  1.09857478E+00  1.13335682E+00
  1.13410633E+00  1.14012396E+00  1.14744590E+00  1.16935069E+00  1.16976961E+00
  1.18034774E+00  1.18512544E+00  1.19325980E+00  1.20817759E+00  1.21047391E+00
  1.24044024E+00  1.24079956E+00  1.25875726E+00  1.26273950E+00  1.29641427E+00
  1.35962645E+00  1.36989103E+00  1.47371287E+00  1.50147488E+00  1.59379978E+00
  1.62893151E+00  1.63703548E+00  1.68634977E+00  1.76991450E+00  1.82269967E+00
  1.86912497E+00  1.88651388E+00  1.91777088E+00  2.02654266E+00  2.05598434E+00
  2.08312058E+00  2.08787256E+00  2.09894767E+00  2.20144728E+00  2.21964201E+00
  2.22229459E+00  2.27547611E+00  2.27621609E+00  2.31326165E+00  2.32616915E+00
  2.34489012E+00  2.39326418E+00  2.41209673E+00  2.42627810E+00  2.46718849E+00
  2.53239228E+00  2.54610014E+00  2.58002654E+00  2.62499561E+00  2.65882504E+00
  2.67409316E+00  2.68370600E+00  2.69565504E+00  2.75915276E+00  2.77527123E+00
  2.81908283E+00  2.83006118E+00  2.98757885E+00  2.99382301E+00  3.01545054E+00
  3.01561856E+00  3.10293926E+00  3.15872573E+00  3.21387892E+00  3.41630644E+00
  4.43255443E+00  4.59696273E+00  4.61296376E+00  4.69653023E+00  4.81277914E+00
  4.91997254E+00  4.95867082E+00  5.10915935E+00
Alpha MO coefficients                      R   N=       21904