70112                                                                   
Freq      RMP2-FC                                                     6-31G(d)            
Number of atoms                            I               19
Info1-9                                    I   N=           9
          31          29        1002           0           0         100
           6           2           1
Charge                                     I                0
Multiplicity                               I                1
Number of electrons                        I               64
Number of alpha electrons                  I               32
Number of beta electrons                   I               32
Number of basis functions                  I              155
Number of independent functions            I              155
Number of point charges in /Mol/           I                0
Number of translation vectors              I                0
Atomic numbers                             I   N=          19
           6           6           6           6           6           6
           6           6           6           1           1           1
           1           1           1           1           1           1
           1
Nuclear charges                            R   N=          19
  6.00000000E+00  6.00000000E+00  6.00000000E+00  6.00000000E+00  6.00000000E+00
  6.00000000E+00  6.00000000E+00  6.00000000E+00  6.00000000E+00  1.00000000E+00
  1.00000000E+00  1.00000000E+00  1.00000000E+00  1.00000000E+00  1.00000000E+00
  1.00000000E+00  1.00000000E+00  1.00000000E+00  1.00000000E+00
Current cartesian coordinates              R   N=          57
  3.05101699E+00 -1.68099991E-06  1.06226935E+00  4.83434026E+00 -1.42154485E+00
 -6.41969616E-01  4.83434200E+00  1.42154687E+00 -6.41962735E-01  2.79834163E-01
 -2.81589154E-06  5.30818560E-01 -1.04843519E+00  2.27930047E+00  3.00362971E-01
 -1.04843855E+00 -2.27930186E+00  3.00364167E-01 -3.64839334E+00  2.28256126E+00
 -1.44944691E-01 -3.64839793E+00 -2.28255827E+00 -1.44945673E-01 -4.95489914E+00
  2.16716323E-06 -3.70442230E-01  3.55032131E+00 -9.64241946E-06  3.05984077E+00
  4.01753130E+00 -2.36818122E+00 -2.26797600E+00  6.42537372E+00 -2.40011355E+00
  2.05099611E-01  6.42538399E+00  2.40010119E+00  2.05107548E-01  4.01753758E+00
  2.36819264E+00 -2.26796565E+00 -2.68942062E-02  4.05651802E+00  4.70838820E-01
 -2.69029236E-02 -4.05652290E+00  4.70839892E-01 -4.65449325E+00  4.06600550E+00
 -3.24531836E-01 -4.65449684E+00 -4.06600287E+00 -3.24533591E-01 -6.97917627E+00
  5.03065600E-06 -7.24020181E-01
Force Field                                I                0
Int Atom Types                             I   N=          19
           0           0           0           0           0           0
           0           0           0           0           0           0
           0           0           0           0           0           0
           0
MM charges                                 R   N=          19
  0.00000000E+00  0.00000000E+00  0.00000000E+00  0.00000000E+00  0.00000000E+00
  0.00000000E+00  0.00000000E+00  0.00000000E+00  0.00000000E+00  0.00000000E+00
  0.00000000E+00  0.00000000E+00  0.00000000E+00  0.00000000E+00  0.00000000E+00
  0.00000000E+00  0.00000000E+00  0.00000000E+00  0.00000000E+00
Integer atomic weights                     I   N=          19
          12          12          12          12          12          12
          12          12          12           1           1           1
           1           1           1           1           1           1
           1
Real atomic weights                        R   N=          19
  1.20000000E+01  1.20000000E+01  1.20000000E+01  1.20000000E+01  1.20000000E+01
  1.20000000E+01  1.20000000E+01  1.20000000E+01  1.20000000E+01  1.00782504E+00
  1.00782504E+00  1.00782504E+00  1.00782504E+00  1.00782504E+00  1.00782504E+00
  1.00782504E+00  1.00782504E+00  1.00782504E+00  1.00782504E+00
Atom fragment info                         I   N=          19
           0           0           0           0           0           0
           0           0           0           0           0           0
           0           0           0           0           0           0
           0
Atom residue num                           I   N=          19
           0           0           0           0           0           0
           0           0           0           0           0           0
           0           0           0           0           0           0
           0
Nuclear spins                              I   N=          19
           0           0           0           0           0           0
           0           0           0           1           1           1
           1           1           1           1           1           1
           1
Nuclear ZEff                               R   N=          19
 -3.60000000E+00 -3.60000000E+00 -3.60000000E+00 -3.60000000E+00 -3.60000000E+00
 -3.60000000E+00 -3.60000000E+00 -3.60000000E+00 -3.60000000E+00 -1.00000000E+00
 -1.00000000E+00 -1.00000000E+00 -1.00000000E+00 -1.00000000E+00 -1.00000000E+00
 -1.00000000E+00 -1.00000000E+00 -1.00000000E+00 -1.00000000E+00
Nuclear QMom                               R   N=          19
  0.00000000E+00  0.00000000E+00  0.00000000E+00  0.00000000E+00  0.00000000E+00
  0.00000000E+00  0.00000000E+00  0.00000000E+00  0.00000000E+00  0.00000000E+00
  0.00000000E+00  0.00000000E+00  0.00000000E+00  0.00000000E+00  0.00000000E+00
  0.00000000E+00  0.00000000E+00  0.00000000E+00  0.00000000E+00
Nuclear GFac                               R   N=          19
  0.00000000E+00  0.00000000E+00  0.00000000E+00  0.00000000E+00  0.00000000E+00
  0.00000000E+00  0.00000000E+00  0.00000000E+00  0.00000000E+00  2.79284600E+00
  2.79284600E+00  2.79284600E+00  2.79284600E+00  2.79284600E+00  2.79284600E+00
  2.79284600E+00  2.79284600E+00  2.79284600E+00  2.79284600E+00
MicOpt                                     I   N=          19
          -1          -1          -1          -1          -1          -1
          -1          -1          -1          -1          -1          -1
          -1          -1          -1          -1          -1          -1
          -1
Number of contracted shells                I               56
Number of primitive shells                 I              139
Pure/Cartesian d shells                    I                1
Pure/Cartesian f shells                    I                0
Highest angular momentum                   I                2
Largest degree of contraction              I                6
Shell types                                I   N=          56
           0          -1          -1           2           0          -1
          -1           2           0          -1          -1           2
           0          -1          -1           2           0          -1
          -1           2           0          -1          -1           2
           0          -1          -1           2           0          -1
          -1           2           0          -1          -1           2
           0           0           0           0           0           0
           0           0           0           0           0           0
           0           0           0           0           0           0
           0           0
Number of primitives per shell             I   N=          56
           6           3           1           1           6           3
           1           1           6           3           1           1
           6           3           1           1           6           3
           1           1           6           3           1           1
           6           3           1           1           6           3
           1           1           6           3           1           1
           3           1           3           1           3           1
           3           1           3           1           3           1
           3           1           3           1           3           1
           3           1
Shell to atom map                          I   N=          56
           1           1           1           1           2           2
           2           2           3           3           3           3
           4           4           4           4           5           5
           5           5           6           6           6           6
           7           7           7           7           8           8
           8           8           9           9           9           9
          10          10          11          11          12          12
          13          13          14          14          15          15
          16          16          17          17          18          18
          19          19
Primitive exponents                        R   N=         139
  3.04752488E+03  4.57369518E+02  1.03948685E+02  2.92101553E+01  9.28666296E+00
  3.16392696E+00  7.86827235E+00  1.88128854E+00  5.44249258E-01  1.68714478E-01
  8.00000000E-01  3.04752488E+03  4.57369518E+02  1.03948685E+02  2.92101553E+01
  9.28666296E+00  3.16392696E+00  7.86827235E+00  1.88128854E+00  5.44249258E-01
  1.68714478E-01  8.00000000E-01  3.04752488E+03  4.57369518E+02  1.03948685E+02
  2.92101553E+01  9.28666296E+00  3.16392696E+00  7.86827235E+00  1.88128854E+00
  5.44249258E-01  1.68714478E-01  8.00000000E-01  3.04752488E+03  4.57369518E+02
  1.03948685E+02  2.92101553E+01  9.28666296E+00  3.16392696E+00  7.86827235E+00
  1.88128854E+00  5.44249258E-01  1.68714478E-01  8.00000000E-01  3.04752488E+03
  4.57369518E+02  1.03948685E+02  2.92101553E+01  9.28666296E+00  3.16392696E+00
  7.86827235E+00  1.88128854E+00  5.44249258E-01  1.68714478E-01  8.00000000E-01
  3.04752488E+03  4.57369518E+02  1.03948685E+02  2.92101553E+01  9.28666296E+00
  3.16392696E+00  7.86827235E+00  1.88128854E+00  5.44249258E-01  1.68714478E-01
  8.00000000E-01  3.04752488E+03  4.57369518E+02  1.03948685E+02  2.92101553E+01
  9.28666296E+00  3.16392696E+00  7.86827235E+00  1.88128854E+00  5.44249258E-01
  1.68714478E-01  8.00000000E-01  3.04752488E+03  4.57369518E+02  1.03948685E+02
  2.92101553E+01  9.28666296E+00  3.16392696E+00  7.86827235E+00  1.88128854E+00
  5.44249258E-01  1.68714478E-01  8.00000000E-01  3.04752488E+03  4.57369518E+02
  1.03948685E+02  2.92101553E+01  9.28666296E+00  3.16392696E+00  7.86827235E+00
  1.88128854E+00  5.44249258E-01  1.68714478E-01  8.00000000E-01  1.87311370E+01
  2.82539436E+00  6.40121692E-01  1.61277759E-01  1.87311370E+01  2.82539436E+00
  6.40121692E-01  1.61277759E-01  1.87311370E+01  2.82539436E+00  6.40121692E-01
  1.61277759E-01  1.87311370E+01  2.82539436E+00  6.40121692E-01  1.61277759E-01
  1.87311370E+01  2.82539436E+00  6.40121692E-01  1.61277759E-01  1.87311370E+01
  2.82539436E+00  6.40121692E-01  1.61277759E-01  1.87311370E+01  2.82539436E+00
  6.40121692E-01  1.61277759E-01  1.87311370E+01  2.82539436E+00  6.40121692E-01
  1.61277759E-01  1.87311370E+01  2.82539436E+00  6.40121692E-01  1.61277759E-01
  1.87311370E+01  2.82539436E+00  6.40121692E-01  1.61277759E-01
Contraction coefficients                   R   N=         139
  1.83473713E-03  1.40373228E-02  6.88426223E-02  2.32184443E-01  4.67941348E-01
  3.62311985E-01 -1.19332420E-01 -1.60854152E-01  1.14345644E+00  1.00000000E+00
  1.00000000E+00  1.83473713E-03  1.40373228E-02  6.88426223E-02  2.32184443E-01
  4.67941348E-01  3.62311985E-01 -1.19332420E-01 -1.60854152E-01  1.14345644E+00
  1.00000000E+00  1.00000000E+00  1.83473713E-03  1.40373228E-02  6.88426223E-02
  2.32184443E-01  4.67941348E-01  3.62311985E-01 -1.19332420E-01 -1.60854152E-01
  1.14345644E+00  1.00000000E+00  1.00000000E+00  1.83473713E-03  1.40373228E-02
  6.88426223E-02  2.32184443E-01  4.67941348E-01  3.62311985E-01 -1.19332420E-01
 -1.60854152E-01  1.14345644E+00  1.00000000E+00  1.00000000E+00  1.83473713E-03
  1.40373228E-02  6.88426223E-02  2.32184443E-01  4.67941348E-01  3.62311985E-01
 -1.19332420E-01 -1.60854152E-01  1.14345644E+00  1.00000000E+00  1.00000000E+00
  1.83473713E-03  1.40373228E-02  6.88426223E-02  2.32184443E-01  4.67941348E-01
  3.62311985E-01 -1.19332420E-01 -1.60854152E-01  1.14345644E+00  1.00000000E+00
  1.00000000E+00  1.83473713E-03  1.40373228E-02  6.88426223E-02  2.32184443E-01
  4.67941348E-01  3.62311985E-01 -1.19332420E-01 -1.60854152E-01  1.14345644E+00
  1.00000000E+00  1.00000000E+00  1.83473713E-03  1.40373228E-02  6.88426223E-02
  2.32184443E-01  4.67941348E-01  3.62311985E-01 -1.19332420E-01 -1.60854152E-01
  1.14345644E+00  1.00000000E+00  1.00000000E+00  1.83473713E-03  1.40373228E-02
  6.88426223E-02  2.32184443E-01  4.67941348E-01  3.62311985E-01 -1.19332420E-01
 -1.60854152E-01  1.14345644E+00  1.00000000E+00  1.00000000E+00  3.34946043E-02
  2.34726953E-01  8.13757326E-01  1.00000000E+00  3.34946043E-02  2.34726953E-01
  8.13757326E-01  1.00000000E+00  3.34946043E-02  2.34726953E-01  8.13757326E-01
  1.00000000E+00  3.34946043E-02  2.34726953E-01  8.13757326E-01  1.00000000E+00
  3.34946043E-02  2.34726953E-01  8.13757326E-01  1.00000000E+00  3.34946043E-02
  2.34726953E-01  8.13757326E-01  1.00000000E+00  3.34946043E-02  2.34726953E-01
  8.13757326E-01  1.00000000E+00  3.34946043E-02  2.34726953E-01  8.13757326E-01
  1.00000000E+00  3.34946043E-02  2.34726953E-01  8.13757326E-01  1.00000000E+00
  3.34946043E-02  2.34726953E-01  8.13757326E-01  1.00000000E+00
P(S=P) Contraction coefficients            R   N=         139
  0.00000000E+00  0.00000000E+00  0.00000000E+00  0.00000000E+00  0.00000000E+00
  0.00000000E+00  6.89990666E-02  3.16423961E-01  7.44308291E-01  1.00000000E+00
  0.00000000E+00  0.00000000E+00  0.00000000E+00  0.00000000E+00  0.00000000E+00
  0.00000000E+00  0.00000000E+00  6.89990666E-02  3.16423961E-01  7.44308291E-01
  1.00000000E+00  0.00000000E+00  0.00000000E+00  0.00000000E+00  0.00000000E+00
  0.00000000E+00  0.00000000E+00  0.00000000E+00  6.89990666E-02  3.16423961E-01
  7.44308291E-01  1.00000000E+00  0.00000000E+00  0.00000000E+00  0.00000000E+00
  0.00000000E+00  0.00000000E+00  0.00000000E+00  0.00000000E+00  6.89990666E-02
  3.16423961E-01  7.44308291E-01  1.00000000E+00  0.00000000E+00  0.00000000E+00
  0.00000000E+00  0.00000000E+00  0.00000000E+00  0.00000000E+00  0.00000000E+00
  6.89990666E-02  3.16423961E-01  7.44308291E-01  1.00000000E+00  0.00000000E+00
  0.00000000E+00  0.00000000E+00  0.00000000E+00  0.00000000E+00  0.00000000E+00
  0.00000000E+00  6.89990666E-02  3.16423961E-01  7.44308291E-01  1.00000000E+00
  0.00000000E+00  0.00000000E+00  0.00000000E+00  0.00000000E+00  0.00000000E+00
  0.00000000E+00  0.00000000E+00  6.89990666E-02  3.16423961E-01  7.44308291E-01
  1.00000000E+00  0.00000000E+00  0.00000000E+00  0.00000000E+00  0.00000000E+00
  0.00000000E+00  0.00000000E+00  0.00000000E+00  6.89990666E-02  3.16423961E-01
  7.44308291E-01  1.00000000E+00  0.00000000E+00  0.00000000E+00  0.00000000E+00
  0.00000000E+00  0.00000000E+00  0.00000000E+00  0.00000000E+00  6.89990666E-02
  3.16423961E-01  7.44308291E-01  1.00000000E+00  0.00000000E+00  0.00000000E+00
  0.00000000E+00  0.00000000E+00  0.00000000E+00  0.00000000E+00  0.00000000E+00
  0.00000000E+00  0.00000000E+00  0.00000000E+00  0.00000000E+00  0.00000000E+00
  0.00000000E+00  0.00000000E+00  0.00000000E+00  0.00000000E+00  0.00000000E+00
  0.00000000E+00  0.00000000E+00  0.00000000E+00  0.00000000E+00  0.00000000E+00
  0.00000000E+00  0.00000000E+00  0.00000000E+00  0.00000000E+00  0.00000000E+00
  0.00000000E+00  0.00000000E+00  0.00000000E+00  0.00000000E+00  0.00000000E+00
  0.00000000E+00  0.00000000E+00  0.00000000E+00  0.00000000E+00  0.00000000E+00
  0.00000000E+00  0.00000000E+00  0.00000000E+00  0.00000000E+00
Coordinates of each shell                  R   N=         168
  3.05101699E+00 -1.68099991E-06  1.06226935E+00  3.05101699E+00 -1.68099991E-06
  1.06226935E+00  3.05101699E+00 -1.68099991E-06  1.06226935E+00  3.05101699E+00
 -1.68099991E-06  1.06226935E+00  4.83434026E+00 -1.42154485E+00 -6.41969616E-01
  4.83434026E+00 -1.42154485E+00 -6.41969616E-01  4.83434026E+00 -1.42154485E+00
 -6.41969616E-01  4.83434026E+00 -1.42154485E+00 -6.41969616E-01  4.83434200E+00
  1.42154687E+00 -6.41962735E-01  4.83434200E+00  1.42154687E+00 -6.41962735E-01
  4.83434200E+00  1.42154687E+00 -6.41962735E-01  4.83434200E+00  1.42154687E+00
 -6.41962735E-01  2.79834163E-01 -2.81589154E-06  5.30818560E-01  2.79834163E-01
 -2.81589154E-06  5.30818560E-01  2.79834163E-01 -2.81589154E-06  5.30818560E-01
  2.79834163E-01 -2.81589154E-06  5.30818560E-01 -1.04843519E+00  2.27930047E+00
  3.00362971E-01 -1.04843519E+00  2.27930047E+00  3.00362971E-01 -1.04843519E+00
  2.27930047E+00  3.00362971E-01 -1.04843519E+00  2.27930047E+00  3.00362971E-01
 -1.04843855E+00 -2.27930186E+00  3.00364167E-01 -1.04843855E+00 -2.27930186E+00
  3.00364167E-01 -1.04843855E+00 -2.27930186E+00  3.00364167E-01 -1.04843855E+00
 -2.27930186E+00  3.00364167E-01 -3.64839334E+00  2.28256126E+00 -1.44944691E-01
 -3.64839334E+00  2.28256126E+00 -1.44944691E-01 -3.64839334E+00  2.28256126E+00
 -1.44944691E-01 -3.64839334E+00  2.28256126E+00 -1.44944691E-01 -3.64839793E+00
 -2.28255827E+00 -1.44945673E-01 -3.64839793E+00 -2.28255827E+00 -1.44945673E-01
 -3.64839793E+00 -2.28255827E+00 -1.44945673E-01 -3.64839793E+00 -2.28255827E+00
 -1.44945673E-01 -4.95489914E+00  2.16716323E-06 -3.70442230E-01 -4.95489914E+00
  2.16716323E-06 -3.70442230E-01 -4.95489914E+00  2.16716323E-06 -3.70442230E-01
 -4.95489914E+00  2.16716323E-06 -3.70442230E-01  3.55032131E+00 -9.64241946E-06
  3.05984077E+00  3.55032131E+00 -9.64241946E-06  3.05984077E+00  4.01753130E+00
 -2.36818122E+00 -2.26797600E+00  4.01753130E+00 -2.36818122E+00 -2.26797600E+00
  6.42537372E+00 -2.40011355E+00  2.05099611E-01  6.42537372E+00 -2.40011355E+00
  2.05099611E-01  6.42538399E+00  2.40010119E+00  2.05107548E-01  6.42538399E+00
  2.40010119E+00  2.05107548E-01  4.01753758E+00  2.36819264E+00 -2.26796565E+00
  4.01753758E+00  2.36819264E+00 -2.26796565E+00 -2.68942062E-02  4.05651802E+00
  4.70838820E-01 -2.68942062E-02  4.05651802E+00  4.70838820E-01 -2.69029236E-02
 -4.05652290E+00  4.70839892E-01 -2.69029236E-02 -4.05652290E+00  4.70839892E-01
 -4.65449325E+00  4.06600550E+00 -3.24531836E-01 -4.65449325E+00  4.06600550E+00
 -3.24531836E-01 -4.65449684E+00 -4.06600287E+00 -3.24533591E-01 -4.65449684E+00
 -4.06600287E+00 -3.24533591E-01 -6.97917627E+00  5.03065600E-06 -7.24020181E-01
 -6.97917627E+00  5.03065600E-06 -7.24020181E-01
Constraint Structure                       R   N=          57
  3.05101699E+00 -1.68099991E-06  1.06226935E+00  4.83434026E+00 -1.42154485E+00
 -6.41969616E-01  4.83434200E+00  1.42154687E+00 -6.41962735E-01  2.79834163E-01
 -2.81589154E-06  5.30818560E-01 -1.04843519E+00  2.27930047E+00  3.00362971E-01
 -1.04843855E+00 -2.27930186E+00  3.00364167E-01 -3.64839334E+00  2.28256126E+00
 -1.44944691E-01 -3.64839793E+00 -2.28255827E+00 -1.44945673E-01 -4.95489914E+00
  2.16716323E-06 -3.70442230E-01  3.55032131E+00 -9.64241946E-06  3.05984077E+00
  4.01753130E+00 -2.36818122E+00 -2.26797600E+00  6.42537372E+00 -2.40011355E+00
  2.05099611E-01  6.42538399E+00  2.40010119E+00  2.05107548E-01  4.01753758E+00
  2.36819264E+00 -2.26796565E+00 -2.68942062E-02  4.05651802E+00  4.70838820E-01
 -2.69029236E-02 -4.05652290E+00  4.70839892E-01 -4.65449325E+00  4.06600550E+00
 -3.24531836E-01 -4.65449684E+00 -4.06600287E+00 -3.24533591E-01 -6.97917627E+00
  5.03065600E-06 -7.24020181E-01
Num ILSW                                   I              100
ILSW                                       I   N=         100
           0           1           0           0           2           0
           0           0           0           0           0          -1
           0           0           0           0           0           0
           0           0           0           0           1           0
           1           0           0           0           0           0
           0           0      100000           0          -1           0
           0           0           0           0           0           0
           0           0           0           1           1           0
           0           0           1           0           0           0
           0           0           4          40           0           0
           0           0           0           0           0           0
           0           0           0           0           0           0
           0           0           0           0           0           0
           0           0           0           0           0           0
           0           0           0           0           0           0
           0           0           0           0           0           0
           0           0           0           0
Num RLSW                                   I               40
RLSW                                       R   N=          40
  1.00000000E+00  1.00000000E+00  1.00000000E+00  1.00000000E+00  1.00000000E+00
  0.00000000E+00  0.00000000E+00  1.00000000E+00  0.00000000E+00  0.00000000E+00
  0.00000000E+00  0.00000000E+00  1.00000000E+00  0.00000000E+00  0.00000000E+00
  0.00000000E+00  0.00000000E+00  1.00000000E+00  0.00000000E+00  0.00000000E+00
  0.00000000E+00  0.00000000E+00  1.00000000E+00  0.00000000E+00  0.00000000E+00
  0.00000000E+00  0.00000000E+00  1.00000000E+00  0.00000000E+00  0.00000000E+00
  0.00000000E+00  0.00000000E+00  0.00000000E+00  0.00000000E+00  0.00000000E+00
  0.00000000E+00  0.00000000E+00  0.00000000E+00  1.00000000E+00  1.00000000E+00
MxBond                                     I                4
NBond                                      I   N=          19
           4           4           4           3           3           3
           3           3           3           1           1           1
           1           1           1           1           1           1
           1
IBond                                      I   N=          76
           2           3           4          10           1           3
          11          12           1           2          13          14
           1           5           6           0           4           7
          15           0           4           8          16           0
           5           9          17           0           6           9
          18           0           7           8          19           0
           1           0           0           0           2           0
           0           0           2           0           0           0
           3           0           0           0           3           0
           0           0           5           0           0           0
           6           0           0           0           7           0
           0           0           8           0           0           0
           9           0           0           0
RBond                                      R   N=          76
  1.00000000E+00  1.00000000E+00  1.00000000E+00  1.00000000E+00  1.00000000E+00
  1.00000000E+00  1.00000000E+00  1.00000000E+00  1.00000000E+00  1.00000000E+00
  1.00000000E+00  1.00000000E+00  1.00000000E+00  1.50000000E+00  1.50000000E+00
  0.00000000E+00  1.50000000E+00  1.50000000E+00  1.00000000E+00  0.00000000E+00
  1.50000000E+00  1.50000000E+00  1.00000000E+00  0.00000000E+00  1.50000000E+00
  1.50000000E+00  1.00000000E+00  0.00000000E+00  1.50000000E+00  1.50000000E+00
  1.00000000E+00  0.00000000E+00  1.50000000E+00  1.50000000E+00  1.00000000E+00
  0.00000000E+00  1.00000000E+00  0.00000000E+00  0.00000000E+00  0.00000000E+00
  1.00000000E+00  0.00000000E+00  0.00000000E+00  0.00000000E+00  1.00000000E+00
  0.00000000E+00  0.00000000E+00  0.00000000E+00  1.00000000E+00  0.00000000E+00
  0.00000000E+00  0.00000000E+00  1.00000000E+00  0.00000000E+00  0.00000000E+00
  0.00000000E+00  1.00000000E+00  0.00000000E+00  0.00000000E+00  0.00000000E+00
  1.00000000E+00  0.00000000E+00  0.00000000E+00  0.00000000E+00  1.00000000E+00
  0.00000000E+00  0.00000000E+00  0.00000000E+00  1.00000000E+00  0.00000000E+00
  0.00000000E+00  0.00000000E+00  1.00000000E+00  0.00000000E+00  0.00000000E+00
  0.00000000E+00
Virial Ratio                               R      2.001750423710942E+00
SCF Energy                                 R     -3.466052485763392E+02
MP2 Energy                                 R     -3.477535253145421E+02
Total Energy                               R     -3.477535253145421E+02
Post-SCF wavefunction norm                 R      1.682020172978982E+00
RMS Force                                  R      5.371562216371701E-07
RMS Density                                R      1.503803026329677E-09
External E-field                           R   N=          35
  0.00000000E+00  0.00000000E+00  0.00000000E+00  0.00000000E+00  0.00000000E+00
  0.00000000E+00  0.00000000E+00  0.00000000E+00  0.00000000E+00  0.00000000E+00
  0.00000000E+00  0.00000000E+00  0.00000000E+00  0.00000000E+00  0.00000000E+00
  0.00000000E+00  0.00000000E+00  0.00000000E+00  0.00000000E+00  0.00000000E+00
  0.00000000E+00  0.00000000E+00  0.00000000E+00  0.00000000E+00  0.00000000E+00
  0.00000000E+00  0.00000000E+00  0.00000000E+00  0.00000000E+00  0.00000000E+00
  0.00000000E+00  0.00000000E+00  0.00000000E+00  0.00000000E+00  0.00000000E+00
IOpCl                                      I                0
IROHF                                      I                0
Alpha Orbital Energies                     R   N=         155
 -1.12362041E+01 -1.12328270E+01 -1.12318319E+01 -1.12314575E+01 -1.12297672E+01
 -1.12280234E+01 -1.12279348E+01 -1.12251476E+01 -1.12245156E+01 -1.16059503E+00
 -1.12370133E+00 -1.00755426E+00 -1.00455321E+00 -8.51619675E-01 -8.30804849E-01
 -8.04811958E-01 -7.69468276E-01 -6.94569118E-01 -6.61232979E-01 -6.32207169E-01
 -6.13876829E-01 -6.03801588E-01 -5.76892087E-01 -5.37678147E-01 -5.12349475E-01
 -4.94712183E-01 -4.88002820E-01 -4.77738156E-01 -4.23876048E-01 -4.10908328E-01
 -3.27098609E-01 -3.17494538E-01  1.44456637E-01  1.46684864E-01  2.43642968E-01
  2.52113163E-01  2.69720074E-01  2.77982431E-01  3.02991855E-01  3.09569903E-01
  3.25842899E-01  3.28029751E-01  3.39443597E-01  3.50714322E-01  3.63997983E-01
  3.83117655E-01  4.32602963E-01  4.40162932E-01  4.47504443E-01  4.84267963E-01
  5.01059934E-01  5.30116953E-01  5.48446457E-01  6.73190656E-01  6.95790499E-01
  7.46743446E-01  7.53878135E-01  7.57160544E-01  7.64271646E-01  7.77191151E-01
  7.94878087E-01  8.14200756E-01  8.26597745E-01  8.33586380E-01  8.46503312E-01
  8.47522344E-01  8.65103008E-01  8.65678923E-01  8.91117156E-01  9.15655016E-01
  9.23823374E-01  9.44483641E-01  9.71028953E-01  1.00137379E+00  1.03358168E+00
  1.05971191E+00  1.10073649E+00  1.11419553E+00  1.11956695E+00  1.12742462E+00
  1.15236965E+00  1.16539249E+00  1.17253389E+00  1.18365549E+00  1.19854739E+00
  1.20404184E+00  1.21976042E+00  1.22807581E+00  1.26000052E+00  1.27959188E+00
  1.32502345E+00  1.33582436E+00  1.41419459E+00  1.42836867E+00  1.47243226E+00
  1.48472636E+00  1.56206763E+00  1.59131631E+00  1.59293373E+00  1.69932187E+00
  1.71193034E+00  1.71233658E+00  1.77694549E+00  1.77872266E+00  1.79934955E+00
  1.91010500E+00  1.94702689E+00  2.09298196E+00  2.11665912E+00  2.11746870E+00
  2.15169371E+00  2.16074474E+00  2.17941863E+00  2.21246103E+00  2.22435230E+00
  2.23897961E+00  2.30039799E+00  2.32680470E+00  2.37166133E+00  2.42541850E+00
  2.43727988E+00  2.46266904E+00  2.46908852E+00  2.48877385E+00  2.51366353E+00
  2.53020510E+00  2.61022688E+00  2.63191905E+00  2.64398679E+00  2.65742127E+00
  2.74082370E+00  2.80197510E+00  2.84832368E+00  2.88821559E+00  2.93024946E+00
  2.94198429E+00  2.99162084E+00  3.00636553E+00  3.08015014E+00  3.09426257E+00
  3.10403728E+00  3.12837914E+00  3.21302184E+00  3.24841705E+00  3.46456124E+00
  3.79342914E+00  4.52035647E+00  4.54801944E+00  4.56878290E+00  4.59839152E+00
  4.76252565E+00  4.78848594E+00  4.82886269E+00  4.93288294E+00  5.14138727E+00
Alpha MO coefficients                      R   N=       24025
  1.00199297E-01  3.33816428E-03  1.12990892E-04  9.64284427E-11 -5.39330800E-05
 -1.45566879E-03 -1.88656503E-03 -1.21000284E-11  1.03689882E-03 -6.66772086E-04
 -2.38649319E-04 -1.43328259E-04  2.35082786E-10 -6.20827683E-05 -5.52663683E-10
  2.37209549E-03 -1.75974542E-04  7.58992695E-05 -9.17229005E-05  5.37861340E-05
  1.31090313E-03 -8.68777774E-04  5.62822505E-04  3.50811622E-04 -2.87847077E-05
 -9.28312952E-05 -9.06447660E-05 -8.63730412E-07 -2.10132945E-05  7.68355271E-05
  2.37215313E-03 -1.75970083E-04  7.58989130E-05  9.17225818E-05  5.37865912E-05
  1.31088489E-03 -8.68772519E-04 -5.62814109E-04  3.50808736E-04 -2.87847185E-05
 -9.28302013E-05 -9.06443573E-05  8.63658885E-07 -2.10132469E-05 -7.68351263E-05
  9.85559235E-01  2.73666229E-02  1.05167650E-04 -6.09130829E-10  1.22372705E-05
 -1.38719337E-02  8.30556457E-04  1.93984436E-09 -8.77087761E-05 -1.56143433E-03
 -1.35914567E-03 -2.15454899E-03  2.48470937E-09  8.13796729E-05 -1.18569422E-10
  7.00652362E-02  1.77472369E-03 -8.47846808E-05  1.69446956E-04 -2.13501058E-05
  3.99849959E-03  6.66824693E-04 -1.76370515E-03  1.82992746E-04 -4.69898778E-04
 -5.78276820E-04 -2.94870128E-04  1.39007927E-04 -4.01858401E-05  1.55562756E-05
  7.00652466E-02  1.77472134E-03 -8.47854976E-05 -1.69448200E-04 -2.13503772E-05
  3.99850459E-03  6.66832853E-04  1.76370733E-03  1.82993843E-04 -4.69898695E-04
 -5.78275516E-04 -2.94869816E-04 -1.39006750E-04 -4.01857491E-05 -1.55557883E-05
  7.53988628E-03  1.42573157E-04 -9.76004614E-06  5.11226361E-06 -2.64635074E-06
 -1.02143977E-03 -9.40223529E-05  6.74713046E-04 -3.48242975E-05  7.54583255E-05
  1.51080068E-05 -1.86918308E-05 -3.42396184E-05  1.63894570E-05 -7.05101335E-06