
    -----------------------------------------------------------------------
          Psi4: An Open-Source Ab Initio Electronic Structure Package
                               Psi4 1.3.2 release

                         Git: Rev {HEAD} ecbda83 


    R. M. Parrish, L. A. Burns, D. G. A. Smith, A. C. Simmonett,
    A. E. DePrince III, E. G. Hohenstein, U. Bozkaya, A. Yu. Sokolov,
    R. Di Remigio, R. M. Richard, J. F. Gonthier, A. M. James,
    H. R. McAlexander, A. Kumar, M. Saitow, X. Wang, B. P. Pritchard,
    P. Verma, H. F. Schaefer III, K. Patkowski, R. A. King, E. F. Valeev,
    F. A. Evangelista, J. M. Turney, T. D. Crawford, and C. D. Sherrill,
    J. Chem. Theory Comput. 13(7) pp 3185--3197 (2017).
    (doi: 10.1021/acs.jctc.7b00174)


                         Additional Contributions by
    P. Kraus, H. Kruse, M. H. Lechner, M. C. Schieber, R. A. Shaw,
    A. Alenaizan, R. Galvelis, Z. L. Glick, S. Lehtola, and J. P. Misiewicz

    -----------------------------------------------------------------------


    Psi4 started on: Thursday, 04 February 2021 08:24PM

    Process ID: 27950
    Host:       node35.bme.utexas.edu
    PSIDATADIR: /home/xy3866/psi4conda/share/psi4
    Memory:     500.0 MiB
    Threads:    8
    
  ==> Input File <==

--------------------------------------------------------------------------
#psi4
#
memory 32 gb

molecule  {
0 1
  S        1.7618360    -1.1877300    -0.0001100
  N       -1.1892720    -1.1162850     0.0000840
  N        1.4363420     1.3812950    -0.0000570
  C       -0.6888070     0.1366280     0.0000400
  C        0.7702180     0.2369850    -0.0000350
  C       -1.4868030     1.2893490     0.0000580
  C       -2.8690220     1.1312400     0.0001290
  C       -3.4040470    -0.1590480     0.0001760
  C       -2.5262420    -1.2439110     0.0001500
  C        3.1967893    -0.1713455    -0.0001691
  C        2.7828300     1.1426020    -0.0001250
  H       -1.0124600     2.2659460     0.0000190
  H       -3.5213850     2.0011240     0.0001460
  H       -4.4778440    -0.3237170     0.0002310
  H       -2.9027010    -2.2653680     0.0001840
  H        4.1496320    -0.6018500    -0.0002240
  H        3.4730500     1.9793660    -0.0001460
units angstrom
no_reorient  #important for SAPT in psi4, default
symmetry c1  #important for SAPT in psi4, default
}

set PROPERTIES_ORIGIN ["COM"]
properties('MP2/aug-cc-pvtz', properties = ['dipole'])
--------------------------------------------------------------------------

  Memory set to  29.802 GiB by Python driver.
    SCF Algorithm Type (re)set to DF.

*** tstart() called on node35.bme.utexas.edu
*** at Thu Feb  4 20:24:14 2021

   => Loading Basis Set <=

    Name: AUG-CC-PVTZ
    Role: ORBITAL
    Keyword: BASIS
    atoms 1     entry S          line   902 file /home/xy3866/psi4conda/share/psi4/basis/aug-cc-pvtz.gbs 
    atoms 2-3   entry N          line   281 file /home/xy3866/psi4conda/share/psi4/basis/aug-cc-pvtz.gbs 
    atoms 4-11  entry C          line   235 file /home/xy3866/psi4conda/share/psi4/basis/aug-cc-pvtz.gbs 
    atoms 12-17 entry H          line    36 file /home/xy3866/psi4conda/share/psi4/basis/aug-cc-pvtz.gbs 


         ---------------------------------------------------------
                                   SCF
               by Justin Turney, Rob Parrish, Andy Simmonett
                          and Daniel G. A. Smith
                              RHF Reference
                        8 Threads,  30517 MiB Core
         ---------------------------------------------------------

  ==> Geometry <==

    Molecular point group: c1
    Full point group: C1

    Geometry (in Angstrom), charge = 0, multiplicity = 1:

       Center              X                  Y                   Z               Mass       
    ------------   -----------------  -----------------  -----------------  -----------------
         S            1.732439392369    -1.170239945392    -0.000108516270    31.972071174400
         N           -1.218668607631    -1.098794945392     0.000085483730    14.003074004430
         N            1.406945392369     1.398785054608    -0.000055516270    14.003074004430
         C           -0.718203607631     0.154118054608     0.000041483730    12.000000000000
         C            0.740821392369     0.254475054608    -0.000033516270    12.000000000000
         C           -1.516199607631     1.306839054608     0.000059483730    12.000000000000
         C           -2.898418607631     1.148730054608     0.000130483730    12.000000000000
         C           -3.433443607631    -0.141557945392     0.000177483730    12.000000000000
         C           -2.555638607631    -1.226420945392     0.000151483730    12.000000000000
         C            3.167392692369    -0.153855445392    -0.000167616270    12.000000000000
         C            2.753433392369     1.160092054608    -0.000123516270    12.000000000000
         H           -1.041856607631     2.283436054608     0.000020483730     1.007825032230
         H           -3.550781607631     2.018614054608     0.000147483730     1.007825032230
         H           -4.507240607631    -0.306226945392     0.000232483730     1.007825032230
         H           -2.932097607631    -2.247877945392     0.000185483730     1.007825032230
         H            4.120235392369    -0.584359945392    -0.000222516270     1.007825032230
         H            3.443653392369     1.996856054608    -0.000144516270     1.007825032230

  Running in c1 symmetry.

  Rotational constants: A =      0.09412  B =      0.02137  C =      0.01742 [cm^-1]
  Rotational constants: A =   2821.68246  B =    640.64471  C =    522.10431 [MHz]
  Nuclear repulsion =  625.840343067353388

  Charge       = 0
  Multiplicity = 1
  Electrons    = 84
  Nalpha       = 42
  Nbeta        = 42

  ==> Algorithm <==

  SCF Algorithm Type is DF.
  DIIS enabled.
  MOM disabled.
  Fractional occupation disabled.
  Guess Type is SAD.
  Energy threshold   = 1.00e-10
  Density threshold  = 1.00e-10
  Integral threshold = 0.00e+00

  ==> Primary Basis <==

  Basis Set: AUG-CC-PVTZ
    Blend: AUG-CC-PVTZ
    Number of shells: 210
    Number of basis function: 648
    Number of Cartesian functions: 759
    Spherical Harmonics?: true
    Max angular momentum: 3

   => Loading Basis Set <=

    Name: (AUG-CC-PVTZ AUX)
    Role: JKFIT
    Keyword: DF_BASIS_SCF
    atoms 1     entry S          line   730 file /home/xy3866/psi4conda/share/psi4/basis/aug-cc-pvtz-jkfit.gbs 
    atoms 2-3   entry N          line   224 file /home/xy3866/psi4conda/share/psi4/basis/aug-cc-pvtz-jkfit.gbs 
    atoms 4-11  entry C          line   162 file /home/xy3866/psi4conda/share/psi4/basis/aug-cc-pvtz-jkfit.gbs 
    atoms 12-17 entry H          line    70 file /home/xy3866/psi4conda/share/psi4/basis/aug-cc-pvtz-jkfit.gbs 

  ==> Pre-Iterations <==

   -------------------------------------------------------
    Irrep   Nso     Nmo     Nalpha   Nbeta   Ndocc  Nsocc
   -------------------------------------------------------
     A        648     648       0       0       0       0
   -------------------------------------------------------
    Total     648     648      42      42      42       0
   -------------------------------------------------------

  ==> Integral Setup <==

  DFHelper Memory: AOs need 4.351 GiB; user supplied 22.352 GiB. Using in-core AOs.

  ==> MemDFJK: Density-Fitted J/K Matrices <==

    J tasked:                   Yes
    K tasked:                   Yes
    wK tasked:                   No
    OpenMP threads:               8
    Memory [MiB]:             22888
    Algorithm:                 Disk
    Schwarz Cutoff:           1E-12
    Mask sparsity (%):       7.6222
    Fitting Condition:        1E-10

   => Auxiliary Basis Set <=

  Basis Set: (AUG-CC-PVTZ AUX)
    Blend: AUG-CC-PVTZ-JKFIT
    Number of shells: 426
    Number of basis function: 1462
    Number of Cartesian functions: 1820
    Spherical Harmonics?: true
    Max angular momentum: 4

  Minimum eigenvalue in the overlap matrix is 1.0613349564E-06.
  Using Symmetric Orthogonalization.

  SCF Guess: Superposition of Atomic Densities via on-the-fly atomic UHF.

  ==> Iterations <==

                           Total Energy        Delta E     RMS |[F,P]|

   @DF-RHF iter SAD:  -812.54170285030034   -8.12542e+02   0.00000e+00 
   @DF-RHF iter   1:  -812.73661098000582   -1.94908e-01   1.01891e-03 DIIS
   @DF-RHF iter   2:  -812.92808297634713   -1.91472e-01   6.03406e-04 DIIS
   @DF-RHF iter   3:  -813.00060335837600   -7.25204e-02   1.41175e-04 DIIS
   @DF-RHF iter   4:  -813.00638408972975   -5.78073e-03   6.28377e-05 DIIS
   @DF-RHF iter   5:  -813.00757376780564   -1.18968e-03   1.64222e-05 DIIS
   @DF-RHF iter   6:  -813.00777538980321   -2.01622e-04   8.18675e-06 DIIS
   @DF-RHF iter   7:  -813.00785004882471   -7.46590e-05   4.28073e-06 DIIS
   @DF-RHF iter   8:  -813.00786617768210   -1.61289e-05   1.32022e-06 DIIS
   @DF-RHF iter   9:  -813.00786807482734   -1.89715e-06   4.66509e-07 DIIS
   @DF-RHF iter  10:  -813.00786823773001   -1.62903e-07   2.41912e-07 DIIS
   @DF-RHF iter  11:  -813.00786829307458   -5.53446e-08   1.24134e-07 DIIS
   @DF-RHF iter  12:  -813.00786830668790   -1.36133e-08   6.62129e-08 DIIS
   @DF-RHF iter  13:  -813.00786831047026   -3.78236e-09   2.56933e-08 DIIS
   @DF-RHF iter  14:  -813.00786831109951   -6.29257e-10   1.06313e-08 DIIS
   @DF-RHF iter  15:  -813.00786831117830   -7.87850e-11   3.81998e-09 DIIS
   @DF-RHF iter  16:  -813.00786831119115   -1.28466e-11   1.52163e-09 DIIS
   @DF-RHF iter  17:  -813.00786831119456   -3.41061e-12   6.95345e-10 DIIS
   @DF-RHF iter  18:  -813.00786831119592   -1.36424e-12   2.85626e-10 DIIS
   @DF-RHF iter  19:  -813.00786831119399    1.93268e-12   1.44611e-10 DIIS
   @DF-RHF iter  20:  -813.00786831119456   -5.68434e-13   6.28529e-11 DIIS
  Energy and wave function converged.


  ==> Post-Iterations <==

    Orbital Energies [Eh]
    ---------------------

    Doubly Occupied:                                                      

       1A    -91.994127     2A    -15.579973     3A    -15.574308  
       4A    -11.316514     5A    -11.298153     6A    -11.286116  
       7A    -11.272102     8A    -11.268315     9A    -11.265280  
      10A    -11.252581    11A    -11.251229    12A     -8.993420  
      13A     -6.674150    14A     -6.673614    15A     -6.672997  
      16A     -1.286766    17A     -1.260181    18A     -1.097300  
      19A     -1.068548    20A     -1.055623    21A     -0.988051  
      22A     -0.878535    23A     -0.869862    24A     -0.795917  
      25A     -0.766398    26A     -0.708189    27A     -0.680476  
      28A     -0.671544    29A     -0.639977    30A     -0.594509  
      31A     -0.590012    32A     -0.580723    33A     -0.563959  
      34A     -0.535099    35A     -0.530250    36A     -0.493024  
      37A     -0.444781    38A     -0.424113    39A     -0.398357  
      40A     -0.390312    41A     -0.372031    42A     -0.309594  

    Virtual:                                                              

      43A      0.025592    44A      0.030312    45A      0.034461  
      46A      0.041757    47A      0.044985    48A      0.050397  
      49A      0.060372    50A      0.073805    51A      0.076717  
      52A      0.085555    53A      0.088854    54A      0.093308  
      55A      0.096685    56A      0.100742    57A      0.107611  
      58A      0.112180    59A      0.114498    60A      0.114535  
      61A      0.118578    62A      0.121108    63A      0.122565  
      64A      0.127548    65A      0.129426    66A      0.136745  
      67A      0.138255    68A      0.146029    69A      0.150032  
      70A      0.154071    71A      0.154556    72A      0.157958  
      73A      0.161121    74A      0.170709    75A      0.176596  
      76A      0.187557    77A      0.187955    78A      0.195869  
      79A      0.199860    80A      0.205609    81A      0.213586  
      82A      0.219623    83A      0.223083    84A      0.225192  
      85A      0.233013    86A      0.242472    87A      0.243209  
      88A      0.245759    89A      0.257454    90A      0.264512  
      91A      0.269569    92A      0.272734    93A      0.279437  
      94A      0.287770    95A      0.292763    96A      0.297938  
      97A      0.300566    98A      0.302732    99A      0.306740  
     100A      0.308485   101A      0.314362   102A      0.322034  
     103A      0.322996   104A      0.326313   105A      0.328036  
     106A      0.333874   107A      0.343580   108A      0.349596  
     109A      0.353165   110A      0.360410   111A      0.364629  
     112A      0.364923   113A      0.385409   114A      0.392939  
     115A      0.395940   116A      0.399265   117A      0.405275  
     118A      0.406463   119A      0.416757   120A      0.417301  
     121A      0.426378   122A      0.434566   123A      0.438265  
     124A      0.442151   125A      0.443669   126A      0.448752  
     127A      0.450067   128A      0.455937   129A      0.459861  
     130A      0.460177   131A      0.464352   132A      0.475825  
     133A      0.481123   134A      0.481648   135A      0.484035  
     136A      0.487926   137A      0.490381   138A      0.492297  
     139A      0.498516   140A      0.504360   141A      0.507227  
     142A      0.518223   143A      0.523721   144A      0.527485  
     145A      0.527514   146A      0.535518   147A      0.541899  
     148A      0.545961   149A      0.547666   150A      0.550290  
     151A      0.559076   152A      0.564953   153A      0.569163  
     154A      0.574506   155A      0.575745   156A      0.579767  
     157A      0.585403   158A      0.598196   159A      0.604753  
     160A      0.608518   161A      0.616894   162A      0.630106  
     163A      0.637716   164A      0.644118   165A      0.649925  
     166A      0.652138   167A      0.654556   168A      0.664239  
     169A      0.664566   170A      0.681205   171A      0.683811  
     172A      0.691797   173A      0.705332   174A      0.708287  
     175A      0.721626   176A      0.722101   177A      0.731020  
     178A      0.737127   179A      0.740511   180A      0.745406  
     181A      0.753745   182A      0.765484   183A      0.780054  
     184A      0.781972   185A      0.787280   186A      0.791994  
     187A      0.800449   188A      0.814683   189A      0.815579  
     190A      0.817370   191A      0.819188   192A      0.829139  
     193A      0.837771   194A      0.847676   195A      0.854547  
     196A      0.855262   197A      0.857088   198A      0.861306  
     199A      0.877020   200A      0.880014   201A      0.891407  
     202A      0.891739   203A      0.897879   204A      0.900954  
     205A      0.911775   206A      0.913193   207A      0.928988  
     208A      0.933377   209A      0.934911   210A      0.946953  
     211A      0.948552   212A      0.951258   213A      0.954088  
     214A      0.965838   215A      0.972167   216A      0.972413  
     217A      0.985540   218A      0.986581   219A      0.991374  
     220A      0.994210   221A      0.998143   222A      1.000641  
     223A      1.007997   224A      1.021952   225A      1.028147  
     226A      1.028985   227A      1.038540   228A      1.039591  
     229A      1.041298   230A      1.054215   231A      1.063352  
     232A      1.066160   233A      1.071805   234A      1.074009  
     235A      1.076963   236A      1.082943   237A      1.085350  
     238A      1.093324   239A      1.103363   240A      1.105663  
     241A      1.113919   242A      1.127626   243A      1.131450  
     244A      1.131851   245A      1.144474   246A      1.146772  
     247A      1.153306   248A      1.163615   249A      1.170510  
     250A      1.176630   251A      1.177068   252A      1.178219  
     253A      1.181183   254A      1.189730   255A      1.190784  
     256A      1.191454   257A      1.201847   258A      1.207335  
     259A      1.210184   260A      1.213327   261A      1.218136  
     262A      1.222373   263A      1.235828   264A      1.240012  
     265A      1.243833   266A      1.247773   267A      1.265050  
     268A      1.274558   269A      1.280940   270A      1.283050  
     271A      1.308933   272A      1.310641   273A      1.313094  
     274A      1.321975   275A      1.336914   276A      1.352185  
     277A      1.352362   278A      1.367674   279A      1.373661  
     280A      1.376595   281A      1.387431   282A      1.395090  
     283A      1.416404   284A      1.425407   285A      1.438631  
     286A      1.441560   287A      1.463780   288A      1.469182  
     289A      1.472192   290A      1.493267   291A      1.495865  
     292A      1.500478   293A      1.512043   294A      1.517839  
     295A      1.530309   296A      1.545801   297A      1.553939  
     298A      1.559802   299A      1.562227   300A      1.573025  
     301A      1.586084   302A      1.592614   303A      1.600037  
     304A      1.602417   305A      1.617766   306A      1.622966  
     307A      1.631202   308A      1.647750   309A      1.664473  
     310A      1.664866   311A      1.674907   312A      1.684141  
     313A      1.689210   314A      1.704901   315A      1.720814  
     316A      1.729046   317A      1.738941   318A      1.743143  
     319A      1.744507   320A      1.759722   321A      1.781995  
     322A      1.790573   323A      1.794853   324A      1.803272  
     325A      1.815342   326A      1.821249   327A      1.828667  
     328A      1.832173   329A      1.844817   330A      1.849471  
     331A      1.859432   332A      1.866363   333A      1.878746  
     334A      1.884448   335A      1.897866   336A      1.905210  
     337A      1.909065   338A      1.916899   339A      1.933123  
     340A      1.937981   341A      1.954902   342A      1.964223  
     343A      1.968987   344A      1.974951   345A      1.990857  
     346A      2.008705   347A      2.013502   348A      2.026720  
     349A      2.036061   350A      2.045686   351A      2.052258  
     352A      2.054637   353A      2.065757   354A      2.073337  
     355A      2.081612   356A      2.107737   357A      2.120003  
     358A      2.129848   359A      2.134878   360A      2.142574  
     361A      2.145766   362A      2.161326   363A      2.179784  
     364A      2.183157   365A      2.187516   366A      2.191521  
     367A      2.211898   368A      2.220743   369A      2.244574  
     370A      2.245587   371A      2.255061   372A      2.270063  
     373A      2.271791   374A      2.284061   375A      2.300860  
     376A      2.308132   377A      2.309452   378A      2.336137  
     379A      2.340171   380A      2.363135   381A      2.366548  
     382A      2.372715   383A      2.373115   384A      2.399049  
     385A      2.402944   386A      2.415630   387A      2.426088  
     388A      2.429501   389A      2.454875   390A      2.462070  
     391A      2.468518   392A      2.480229   393A      2.488202  
     394A      2.493580   395A      2.522659   396A      2.537109  
     397A      2.555135   398A      2.555845   399A      2.577924  
     400A      2.583785   401A      2.624945   402A      2.643091  
     403A      2.653002   404A      2.653362   405A      2.675422  
     406A      2.677632   407A      2.690474   408A      2.712815  
     409A      2.729225   410A      2.737152   411A      2.767877  
     412A      2.790816   413A      2.818891   414A      2.822282  
     415A      2.856560   416A      2.867590   417A      2.878093  
     418A      2.903424   419A      2.958419   420A      2.969168  
     421A      2.995271   422A      3.011526   423A      3.018288  
     424A      3.053223   425A      3.082544   426A      3.088171  
     427A      3.121480   428A      3.133956   429A      3.152992  
     430A      3.163714   431A      3.173784   432A      3.214249  
     433A      3.231281   434A      3.253025   435A      3.266024  
     436A      3.271741   437A      3.301989   438A      3.305343  
     439A      3.326373   440A      3.328917   441A      3.339008  
     442A      3.350455   443A      3.361552   444A      3.367224  
     445A      3.375705   446A      3.418933   447A      3.435789  
     448A      3.438657   449A      3.449460   450A      3.457583  
     451A      3.482216   452A      3.487451   453A      3.488040  
     454A      3.511787   455A      3.524766   456A      3.530230  
     457A      3.542848   458A      3.553025   459A      3.574799  
     460A      3.588696   461A      3.596415   462A      3.613186  
     463A      3.613223   464A      3.624419   465A      3.626258  
     466A      3.643903   467A      3.661633   468A      3.679196  
     469A      3.682897   470A      3.717077   471A      3.729879  
     472A      3.748238   473A      3.752309   474A      3.755288  
     475A      3.760098   476A      3.781717   477A      3.789016  
     478A      3.797781   479A      3.798282   480A      3.824131  
     481A      3.829081   482A      3.842444   483A      3.848433  
     484A      3.855262   485A      3.876151   486A      3.879928  
     487A      3.887979   488A      3.888626   489A      3.915308  
     490A      3.922169   491A      3.930927   492A      3.936584  
     493A      3.941023   494A      3.951438   495A      3.958229  
     496A      3.970527   497A      3.995512   498A      4.000013  
     499A      4.024447   500A      4.039864   501A      4.046409  
     502A      4.056782   503A      4.080162   504A      4.088149  
     505A      4.094233   506A      4.106816   507A      4.126090  
     508A      4.134897   509A      4.147017   510A      4.157917  
     511A      4.167996   512A      4.172184   513A      4.188830  
     514A      4.192612   515A      4.196829   516A      4.212951  
     517A      4.239057   518A      4.243208   519A      4.247729  
     520A      4.265120   521A      4.293698   522A      4.301466  
     523A      4.315412   524A      4.321166   525A      4.344172  
     526A      4.357118   527A      4.363857   528A      4.385121  
     529A      4.389189   530A      4.408715   531A      4.410358  
     532A      4.417317   533A      4.436293   534A      4.455178  
     535A      4.455688   536A      4.468837   537A      4.480799  
     538A      4.484368   539A      4.510571   540A      4.529108  
     541A      4.555916   542A      4.583744   543A      4.598806  
     544A      4.617042   545A      4.660404   546A      4.664516  
     547A      4.667533   548A      4.706773   549A      4.711392  
     550A      4.729719   551A      4.741348   552A      4.772048  
     553A      4.792478   554A      4.816968   555A      4.848975  
     556A      4.857644   557A      4.878143   558A      4.887349  
     559A      4.893678   560A      4.909078   561A      4.913706  
     562A      4.933955   563A      4.957179   564A      4.959333  
     565A      4.971936   566A      5.005393   567A      5.013748  
     568A      5.054934   569A      5.070689   570A      5.078207  
     571A      5.080858   572A      5.094884   573A      5.114668  
     574A      5.118224   575A      5.162023   576A      5.171739  
     577A      5.190224   578A      5.191840   579A      5.195396  
     580A      5.243640   581A      5.252057   582A      5.297137  
     583A      5.304774   584A      5.344182   585A      5.346971  
     586A      5.360722   587A      5.389900   588A      5.410195  
     589A      5.467038   590A      5.494244   591A      5.505179  
     592A      5.554396   593A      5.566996   594A      5.606895  
     595A      5.613934   596A      5.624940   597A      5.663163  
     598A      5.691129   599A      5.720525   600A      5.730777  
     601A      5.744828   602A      5.765443   603A      5.778530  
     604A      5.821032   605A      5.832319   606A      5.838100  
     607A      5.871373   608A      5.905428   609A      5.909302  
     610A      5.914817   611A      5.933836   612A      6.017730  
     613A      6.038926   614A      6.123444   615A      6.147276  
     616A      6.158771   617A      6.191058   618A      6.218406  
     619A      6.253383   620A      6.277708   621A      6.409825  
     622A      6.496685   623A      6.540832   624A      6.592352  
     625A      6.603219   626A      6.653624   627A      6.698148  
     628A      6.735420   629A      6.760703   630A      6.797454  
     631A      6.905602   632A      7.012027   633A      7.036524  
     634A      7.071589   635A      7.086138   636A      7.137475  
     637A      7.423660   638A      9.078377   639A     15.829274  
     640A     16.051150   641A     16.420798   642A     16.803837  
     643A     17.084980   644A     17.995351   645A     18.983037  
     646A     19.357103   647A     19.542032   648A     20.746286  

    Final Occupation by Irrep:
              A 
    DOCC [    42 ]

  @DF-RHF Final Energy:  -813.00786831119456

   => Energetics <=

    Nuclear Repulsion Energy =            625.8403430673533876
    One-Electron Energy =               -2354.9624021190029453
    Two-Electron Energy =                 916.1141907404550011
    Total Energy =                       -813.0078683111945566

Computation Completed

*** tstop() called on node35.bme.utexas.edu at Thu Feb  4 20:26:27 2021
Module time:
	user time   =     485.72 seconds =       8.10 minutes
	system time =     113.30 seconds =       1.89 minutes
	total time  =        133 seconds =       2.22 minutes
Total time:
	user time   =     485.72 seconds =       8.10 minutes
	system time =     113.30 seconds =       1.89 minutes
	total time  =        133 seconds =       2.22 minutes
   => Loading Basis Set <=

    Name: (AUG-CC-PVTZ AUX)
    Role: RIFIT
    Keyword: DF_BASIS_MP2
    atoms 1     entry S          line   666 file /home/xy3866/psi4conda/share/psi4/basis/aug-cc-pvtz-ri.gbs 
    atoms 2-3   entry N          line   206 file /home/xy3866/psi4conda/share/psi4/basis/aug-cc-pvtz-ri.gbs 
    atoms 4-11  entry C          line   148 file /home/xy3866/psi4conda/share/psi4/basis/aug-cc-pvtz-ri.gbs 
    atoms 12-17 entry H          line    30 file /home/xy3866/psi4conda/share/psi4/basis/aug-cc-pvtz-ri.gbs 


*** tstart() called on node35.bme.utexas.edu
*** at Thu Feb  4 20:26:27 2021


  //>>>>>>>>>>>>>>>>>>>>>>>>>>>>>>>>>>>//
  //               DFMP2               //
  //<<<<<<<<<<<<<<<<<<<<<<<<<<<<<<<<<<<//

	 --------------------------------------------------------
	                          DF-MP2                         
	      2nd-Order Density-Fitted Moller-Plesset Theory     
	              RMP2 Wavefunction,   8 Threads             
	                                                         
	        Rob Parrish, Justin Turney, Andy Simmonett,      
	           Ed Hohenstein, and C. David Sherrill          
	 --------------------------------------------------------

   => Auxiliary Basis Set <=

  Basis Set: (AUG-CC-PVTZ AUX)
    Blend: AUG-CC-PVTZ-RI
    Number of shells: 401
    Number of basis function: 1483
    Number of Cartesian functions: 1881
    Spherical Harmonics?: true
    Max angular momentum: 4

	 --------------------------------------------------------
	                 NBF =   648, NAUX =  1483
	 --------------------------------------------------------
	   CLASS    FOCC     OCC    AOCC    AVIR     VIR    FVIR
	   PAIRS       0      42      42     606     606       0
	 --------------------------------------------------------

  DFHelper Memory: AOs need 4.351 GiB; user supplied 22.352 GiB. Using in-core AOs.


         ------------------------------------------------------------
                                     CPHF                           
                                  Rob Parrish                       
         ------------------------------------------------------------

  ==> Geometry <==

    Molecular point group: c1
    Full point group: C1

    Geometry (in Angstrom), charge = 0, multiplicity = 1:

       Center              X                  Y                   Z               Mass       
    ------------   -----------------  -----------------  -----------------  -----------------
         S            1.732439392369    -1.170239945392    -0.000108516270    31.972071174400
         N           -1.218668607631    -1.098794945392     0.000085483730    14.003074004430
         N            1.406945392369     1.398785054608    -0.000055516270    14.003074004430
         C           -0.718203607631     0.154118054608     0.000041483730    12.000000000000
         C            0.740821392369     0.254475054608    -0.000033516270    12.000000000000
         C           -1.516199607631     1.306839054608     0.000059483730    12.000000000000
         C           -2.898418607631     1.148730054608     0.000130483730    12.000000000000
         C           -3.433443607631    -0.141557945392     0.000177483730    12.000000000000
         C           -2.555638607631    -1.226420945392     0.000151483730    12.000000000000
         C            3.167392692369    -0.153855445392    -0.000167616270    12.000000000000
         C            2.753433392369     1.160092054608    -0.000123516270    12.000000000000
         H           -1.041856607631     2.283436054608     0.000020483730     1.007825032230
         H           -3.550781607631     2.018614054608     0.000147483730     1.007825032230
         H           -4.507240607631    -0.306226945392     0.000232483730     1.007825032230
         H           -2.932097607631    -2.247877945392     0.000185483730     1.007825032230
         H            4.120235392369    -0.584359945392    -0.000222516270     1.007825032230
         H            3.443653392369     1.996856054608    -0.000144516270     1.007825032230

  Nuclear repulsion =  625.840343067353388
  Reference energy  = -813.007868311194557

  ==> Basis Set <==

  Basis Set: AUG-CC-PVTZ
    Blend: AUG-CC-PVTZ
    Number of shells: 210
    Number of basis function: 648
    Number of Cartesian functions: 759
    Spherical Harmonics?: true
    Max angular momentum: 3

  ==> CGRSolver (by Rob Parrish) <==

   Number of roots    =         1
   Preconditioning    =    JACOBI
   Convergence cutoff =     1E-06
   Maximum iterations =       100

  ==> CPHFRHamiltonian (by Rob Parrish) <== 

  ==> MemDFJK: Density-Fitted J/K Matrices <==

    J tasked:                   Yes
    K tasked:                   Yes
    wK tasked:                   No
    OpenMP threads:               8
    Memory [MiB]:             22888
    Algorithm:                 Disk
    Schwarz Cutoff:           1E-12
    Mask sparsity (%):       7.6222
    Fitting Condition:        1E-10

   => Auxiliary Basis Set <=

  Basis Set: (AUG-CC-PVTZ AUX)
    Blend: AUG-CC-PVTZ-JKFIT
    Number of shells: 426
    Number of basis function: 1462
    Number of Cartesian functions: 1820
    Spherical Harmonics?: true
    Max angular momentum: 4

  ==> CPHF Iterations <==

  => Iterations <=

             Iter  Converged  Remaining    Residual
  CGR           1          0          1   1.144E-01
  CGR           2          0          1   4.473E-02
  CGR           3          0          1   2.545E-02
  CGR           4          0          1   8.622E-03
  CGR           5          0          1   2.847E-03
  CGR           6          0          1   1.235E-03
  CGR           7          0          1   4.574E-04
  CGR           8          0          1   2.567E-04
  CGR           9          0          1   1.145E-04
  CGR          10          0          1   4.613E-05
  CGR          11          0          1   2.209E-05
  CGR          12          0          1   8.757E-06
  CGR          13          0          1   3.395E-06
  CGR          14          0          1   1.386E-06
  CGR          15          1          0   6.239E-07

    CGRSolver converged.

	-----------------------------------------------------------
	 ==================> DF-MP2 Energies <==================== 
	-----------------------------------------------------------
	 Reference Energy          =    -813.0078683111945566 [Eh]
	 Singles Energy            =      -0.0000000000000000 [Eh]
	 Same-Spin Energy          =      -0.5247359515547789 [Eh]
	 Opposite-Spin Energy      =      -1.5535021354196343 [Eh]
	 Correlation Energy        =      -2.0782380869744133 [Eh]
	 Total Energy              =    -815.0861063981690222 [Eh]
	-----------------------------------------------------------
	 ================> DF-SCS-MP2 Energies <================== 
	-----------------------------------------------------------
	 SCS Same-Spin Scale       =       0.3333333333333333 [-]
	 SCS Opposite-Spin Scale   =       1.2000000000000000 [-]
	 SCS Same-Spin Energy      =      -0.1749119838515930 [Eh]
	 SCS Opposite-Spin Energy  =      -1.8642025625035612 [Eh]
	 SCS Correlation Energy    =      -2.0391145463551541 [Eh]
	 SCS Total Energy          =    -815.0469828575496649 [Eh]
	-----------------------------------------------------------



Properties will be evaluated at   0.000000,  -0.000000,  -0.000000 [a0]

Properties computed using the MP2 density matrix

  Nuclear Dipole Moment: [e a0]
     X:    -4.1435      Y:     2.9311      Z:     0.0002

  Electronic Dipole Moment: [e a0]
     X:     3.8100      Y:    -2.8396      Z:    -0.0002

  Dipole Moment: [e a0]
     X:    -0.3335      Y:     0.0915      Z:    -0.0000     Total:     0.3458

  Dipole Moment: [D]
     X:    -0.8477      Y:     0.2325      Z:    -0.0000     Total:     0.8790


*** tstop() called on node35.bme.utexas.edu at Thu Feb  4 20:31:03 2021
Module time:
	user time   =    1479.62 seconds =      24.66 minutes
	system time =     111.68 seconds =       1.86 minutes
	total time  =        276 seconds =       4.60 minutes
Total time:
	user time   =    1965.55 seconds =      32.76 minutes
	system time =     224.98 seconds =       3.75 minutes
	total time  =        409 seconds =       6.82 minutes

    Psi4 stopped on: Thursday, 04 February 2021 08:31PM
    Psi4 wall time for execution: 0:06:49.41

*** Psi4 exiting successfully. Buy a developer a beer!
