085_Propionamide Gaussian SP Calculation on node142.bme.utexas.edu      
Freq      RMP2-FC                                                     6-31G(d)            
Number of atoms                            I               12
Info1-9                                    I   N=           9
          23          22        1002           0           0         100
           6           2           1
Charge                                     I                0
Multiplicity                               I                1
Number of electrons                        I               40
Number of alpha electrons                  I               20
Number of beta electrons                   I               20
Number of basis functions                  I               89
Number of independent functions            I               89
Number of point charges in /Mol/           I                0
Number of translation vectors              I                0
Atomic numbers                             I   N=          12
           8           7           6           6           6           1
           1           1           1           1           1           1
Nuclear charges                            R   N=          12
  8.00000000E+00  7.00000000E+00  6.00000000E+00  6.00000000E+00  6.00000000E+00
  1.00000000E+00  1.00000000E+00  1.00000000E+00  1.00000000E+00  1.00000000E+00
  1.00000000E+00  1.00000000E+00
Current cartesian coordinates              R   N=          36
 -9.37148814E-01  2.57360588E+00  4.91887199E-02 -3.31030086E+00 -1.01347578E+00
 -1.50535801E-01  1.27293314E+00 -1.43808805E+00  8.50231168E-02  3.71572460E+00
  7.18953104E-02 -6.75787019E-02 -1.04968615E+00  2.53151734E-01  2.04071774E-02
  1.21381455E+00 -2.55418182E+00  1.83312757E+00  1.14282667E+00 -2.79817596E+00
 -1.47309138E+00  5.35069856E+00 -1.18845278E+00  1.28161171E-02  3.79677581E+00
  1.14734558E+00 -1.82585329E+00  3.83521001E+00  1.41711656E+00  1.49033016E+00
 -3.41468425E+00 -2.87105159E+00  2.76659119E-01 -4.88917433E+00  3.11294685E-02
  1.19143001E-01
Force Field                                I                0
Int Atom Types                             I   N=          12
           0           0           0           0           0           0
           0           0           0           0           0           0
MM charges                                 R   N=          12
  0.00000000E+00  0.00000000E+00  0.00000000E+00  0.00000000E+00  0.00000000E+00
  0.00000000E+00  0.00000000E+00  0.00000000E+00  0.00000000E+00  0.00000000E+00
  0.00000000E+00  0.00000000E+00
Integer atomic weights                     I   N=          12
          16          14          12          12          12           1
           1           1           1           1           1           1
Real atomic weights                        R   N=          12
  1.59949146E+01  1.40030740E+01  1.20000000E+01  1.20000000E+01  1.20000000E+01
  1.00782504E+00  1.00782504E+00  1.00782504E+00  1.00782504E+00  1.00782504E+00
  1.00782504E+00  1.00782504E+00
Atom fragment info                         I   N=          12
           0           0           0           0           0           0
           0           0           0           0           0           0
Atom residue num                           I   N=          12
           0           0           0           0           0           0
           0           0           0           0           0           0
Nuclear spins                              I   N=          12
           0           2           0           0           0           1
           1           1           1           1           1           1
Nuclear ZEff                               R   N=          12
 -5.60000000E+00 -4.55000000E+00 -3.60000000E+00 -3.60000000E+00 -3.60000000E+00
 -1.00000000E+00 -1.00000000E+00 -1.00000000E+00 -1.00000000E+00 -1.00000000E+00
 -1.00000000E+00 -1.00000000E+00
Nuclear QMom                               R   N=          12
  0.00000000E+00  2.04400000E+00  0.00000000E+00  0.00000000E+00  0.00000000E+00
  0.00000000E+00  0.00000000E+00  0.00000000E+00  0.00000000E+00  0.00000000E+00
  0.00000000E+00  0.00000000E+00
Nuclear GFac                               R   N=          12
  0.00000000E+00  4.03761000E-01  0.00000000E+00  0.00000000E+00  0.00000000E+00
  2.79284600E+00  2.79284600E+00  2.79284600E+00  2.79284600E+00  2.79284600E+00
  2.79284600E+00  2.79284600E+00
MicOpt                                     I   N=          12
          -1          -1          -1          -1          -1          -1
          -1          -1          -1          -1          -1          -1
Number of contracted shells                I               34
Number of primitive shells                 I               83
Pure/Cartesian d shells                    I                1
Pure/Cartesian f shells                    I                0
Highest angular momentum                   I                2
Largest degree of contraction              I                6
Shell types                                I   N=          34
           0          -1          -1           2           0          -1
          -1           2           0          -1          -1           2
           0          -1          -1           2           0          -1
          -1           2           0           0           0           0
           0           0           0           0           0           0
           0           0           0           0
Number of primitives per shell             I   N=          34
           6           3           1           1           6           3
           1           1           6           3           1           1
           6           3           1           1           6           3
           1           1           3           1           3           1
           3           1           3           1           3           1
           3           1           3           1
Shell to atom map                          I   N=          34
           1           1           1           1           2           2
           2           2           3           3           3           3
           4           4           4           4           5           5
           5           5           6           6           7           7
           8           8           9           9          10          10
          11          11          12          12
Primitive exponents                        R   N=          83
  5.48467166E+03  8.25234946E+02  1.88046958E+02  5.29645000E+01  1.68975704E+01
  5.79963534E+00  1.55396162E+01  3.59993359E+00  1.01376175E+00  2.70005823E-01
  8.00000000E-01  4.17351146E+03  6.27457911E+02  1.42902093E+02  4.02343293E+01
  1.28202129E+01  4.39043701E+00  1.16263619E+01  2.71627981E+00  7.72218397E-01
  2.12031498E-01  8.00000000E-01  3.04752488E+03  4.57369518E+02  1.03948685E+02
  2.92101553E+01  9.28666296E+00  3.16392696E+00  7.86827235E+00  1.88128854E+00
  5.44249258E-01  1.68714478E-01  8.00000000E-01  3.04752488E+03  4.57369518E+02
  1.03948685E+02  2.92101553E+01  9.28666296E+00  3.16392696E+00  7.86827235E+00
  1.88128854E+00  5.44249258E-01  1.68714478E-01  8.00000000E-01  3.04752488E+03
  4.57369518E+02  1.03948685E+02  2.92101553E+01  9.28666296E+00  3.16392696E+00
  7.86827235E+00  1.88128854E+00  5.44249258E-01  1.68714478E-01  8.00000000E-01
  1.87311370E+01  2.82539436E+00  6.40121692E-01  1.61277759E-01  1.87311370E+01
  2.82539436E+00  6.40121692E-01  1.61277759E-01  1.87311370E+01  2.82539436E+00
  6.40121692E-01  1.61277759E-01  1.87311370E+01  2.82539436E+00  6.40121692E-01
  1.61277759E-01  1.87311370E+01  2.82539436E+00  6.40121692E-01  1.61277759E-01
  1.87311370E+01  2.82539436E+00  6.40121692E-01  1.61277759E-01  1.87311370E+01
  2.82539436E+00  6.40121692E-01  1.61277759E-01
Contraction coefficients                   R   N=          83
  1.83107443E-03  1.39501722E-02  6.84450781E-02  2.32714336E-01  4.70192898E-01
  3.58520853E-01 -1.10777550E-01 -1.48026263E-01  1.13076702E+00  1.00000000E+00
  1.00000000E+00  1.83477216E-03  1.39946270E-02  6.85865518E-02  2.32240873E-01
  4.69069948E-01  3.60455199E-01 -1.14961182E-01 -1.69117479E-01  1.14585195E+00
  1.00000000E+00  1.00000000E+00  1.83473713E-03  1.40373228E-02  6.88426223E-02
  2.32184443E-01  4.67941348E-01  3.62311985E-01 -1.19332420E-01 -1.60854152E-01
  1.14345644E+00  1.00000000E+00  1.00000000E+00  1.83473713E-03  1.40373228E-02
  6.88426223E-02  2.32184443E-01  4.67941348E-01  3.62311985E-01 -1.19332420E-01
 -1.60854152E-01  1.14345644E+00  1.00000000E+00  1.00000000E+00  1.83473713E-03
  1.40373228E-02  6.88426223E-02  2.32184443E-01  4.67941348E-01  3.62311985E-01
 -1.19332420E-01 -1.60854152E-01  1.14345644E+00  1.00000000E+00  1.00000000E+00
  3.34946043E-02  2.34726953E-01  8.13757326E-01  1.00000000E+00  3.34946043E-02
  2.34726953E-01  8.13757326E-01  1.00000000E+00  3.34946043E-02  2.34726953E-01
  8.13757326E-01  1.00000000E+00  3.34946043E-02  2.34726953E-01  8.13757326E-01
  1.00000000E+00  3.34946043E-02  2.34726953E-01  8.13757326E-01  1.00000000E+00
  3.34946043E-02  2.34726953E-01  8.13757326E-01  1.00000000E+00  3.34946043E-02
  2.34726953E-01  8.13757326E-01  1.00000000E+00
P(S=P) Contraction coefficients            R   N=          83
  0.00000000E+00  0.00000000E+00  0.00000000E+00  0.00000000E+00  0.00000000E+00
  0.00000000E+00  7.08742682E-02  3.39752839E-01  7.27158577E-01  1.00000000E+00
  0.00000000E+00  0.00000000E+00  0.00000000E+00  0.00000000E+00  0.00000000E+00
  0.00000000E+00  0.00000000E+00  6.75797439E-02  3.23907296E-01  7.40895140E-01
  1.00000000E+00  0.00000000E+00  0.00000000E+00  0.00000000E+00  0.00000000E+00
  0.00000000E+00  0.00000000E+00  0.00000000E+00  6.89990666E-02  3.16423961E-01
  7.44308291E-01  1.00000000E+00  0.00000000E+00  0.00000000E+00  0.00000000E+00
  0.00000000E+00  0.00000000E+00  0.00000000E+00  0.00000000E+00  6.89990666E-02
  3.16423961E-01  7.44308291E-01  1.00000000E+00  0.00000000E+00  0.00000000E+00
  0.00000000E+00  0.00000000E+00  0.00000000E+00  0.00000000E+00  0.00000000E+00
  6.89990666E-02  3.16423961E-01  7.44308291E-01  1.00000000E+00  0.00000000E+00
  0.00000000E+00  0.00000000E+00  0.00000000E+00  0.00000000E+00  0.00000000E+00
  0.00000000E+00  0.00000000E+00  0.00000000E+00  0.00000000E+00  0.00000000E+00
  0.00000000E+00  0.00000000E+00  0.00000000E+00  0.00000000E+00  0.00000000E+00
  0.00000000E+00  0.00000000E+00  0.00000000E+00  0.00000000E+00  0.00000000E+00
  0.00000000E+00  0.00000000E+00  0.00000000E+00  0.00000000E+00  0.00000000E+00
  0.00000000E+00  0.00000000E+00  0.00000000E+00
Coordinates of each shell                  R   N=         102
 -9.37148814E-01  2.57360588E+00  4.91887199E-02 -9.37148814E-01  2.57360588E+00
  4.91887199E-02 -9.37148814E-01  2.57360588E+00  4.91887199E-02 -9.37148814E-01
  2.57360588E+00  4.91887199E-02 -3.31030086E+00 -1.01347578E+00 -1.50535801E-01
 -3.31030086E+00 -1.01347578E+00 -1.50535801E-01 -3.31030086E+00 -1.01347578E+00
 -1.50535801E-01 -3.31030086E+00 -1.01347578E+00 -1.50535801E-01  1.27293314E+00
 -1.43808805E+00  8.50231168E-02  1.27293314E+00 -1.43808805E+00  8.50231168E-02
  1.27293314E+00 -1.43808805E+00  8.50231168E-02  1.27293314E+00 -1.43808805E+00
  8.50231168E-02  3.71572460E+00  7.18953104E-02 -6.75787019E-02  3.71572460E+00
  7.18953104E-02 -6.75787019E-02  3.71572460E+00  7.18953104E-02 -6.75787019E-02
  3.71572460E+00  7.18953104E-02 -6.75787019E-02 -1.04968615E+00  2.53151734E-01
  2.04071774E-02 -1.04968615E+00  2.53151734E-01  2.04071774E-02 -1.04968615E+00
  2.53151734E-01  2.04071774E-02 -1.04968615E+00  2.53151734E-01  2.04071774E-02
  1.21381455E+00 -2.55418182E+00  1.83312757E+00  1.21381455E+00 -2.55418182E+00
  1.83312757E+00  1.14282667E+00 -2.79817596E+00 -1.47309138E+00  1.14282667E+00
 -2.79817596E+00 -1.47309138E+00  5.35069856E+00 -1.18845278E+00  1.28161171E-02
  5.35069856E+00 -1.18845278E+00  1.28161171E-02  3.79677581E+00  1.14734558E+00
 -1.82585329E+00  3.79677581E+00  1.14734558E+00 -1.82585329E+00  3.83521001E+00
  1.41711656E+00  1.49033016E+00  3.83521001E+00  1.41711656E+00  1.49033016E+00
 -3.41468425E+00 -2.87105159E+00  2.76659119E-01 -3.41468425E+00 -2.87105159E+00
  2.76659119E-01 -4.88917433E+00  3.11294685E-02  1.19143001E-01 -4.88917433E+00
  3.11294685E-02  1.19143001E-01
Constraint Structure                       R   N=          36
 -9.37148814E-01  2.57360588E+00  4.91887199E-02 -3.31030086E+00 -1.01347578E+00
 -1.50535801E-01  1.27293314E+00 -1.43808805E+00  8.50231168E-02  3.71572460E+00
  7.18953104E-02 -6.75787019E-02 -1.04968615E+00  2.53151734E-01  2.04071774E-02
  1.21381455E+00 -2.55418182E+00  1.83312757E+00  1.14282667E+00 -2.79817596E+00
 -1.47309138E+00  5.35069856E+00 -1.18845278E+00  1.28161171E-02  3.79677581E+00
  1.14734558E+00 -1.82585329E+00  3.83521001E+00  1.41711656E+00  1.49033016E+00
 -3.41468425E+00 -2.87105159E+00  2.76659119E-01 -4.88917433E+00  3.11294685E-02
  1.19143001E-01
Num ILSW                                   I              100
ILSW                                       I   N=         100
           0           1           0           0           2           0
           0           0           0           0           0          -1
           0           0           0           0           0           0
           0           0           0           0           1           0
           1           0           0           0           0           0
           0           0      100000           0          -1           0
           0           0           0           0           0           0
           0           0           0           1           1           0
           0           0           1           0           0           0
           0           0           4          40           0           0
           0           0           0           0           0           0
           0           0           0           0           0           0
           0           0           0           0           0           0
           0           0           0           0           0           0
           0           0           0           0           0           0
           0           0           0           0           0           0
           0           0           0           0
Num RLSW                                   I               40
RLSW                                       R   N=          40
  1.00000000E+00  1.00000000E+00  1.00000000E+00  1.00000000E+00  1.00000000E+00
  0.00000000E+00  0.00000000E+00  1.00000000E+00  0.00000000E+00  0.00000000E+00
  0.00000000E+00  0.00000000E+00  1.00000000E+00  0.00000000E+00  0.00000000E+00
  0.00000000E+00  0.00000000E+00  1.00000000E+00  0.00000000E+00  0.00000000E+00
  0.00000000E+00  0.00000000E+00  1.00000000E+00  0.00000000E+00  0.00000000E+00
  0.00000000E+00  0.00000000E+00  1.00000000E+00  0.00000000E+00  0.00000000E+00
  0.00000000E+00  0.00000000E+00  0.00000000E+00  0.00000000E+00  0.00000000E+00
  0.00000000E+00  0.00000000E+00  0.00000000E+00  1.00000000E+00  1.00000000E+00
MxBond                                     I                4
NBond                                      I   N=          12
           1           3           4           4           3           1
           1           1           1           1           1           1
IBond                                      I   N=          48
           5           0           0           0           5          11
          12           0           4           5           6           7
           3           8           9          10           1           2
           3           0           3           0           0           0
           3           0           0           0           4           0
           0           0           4           0           0           0
           4           0           0           0           2           0
           0           0           2           0           0           0
RBond                                      R   N=          48
  2.00000000E+00  0.00000000E+00  0.00000000E+00  0.00000000E+00  1.41000000E+00
  1.00000000E+00  1.00000000E+00  0.00000000E+00  1.00000000E+00  1.00000000E+00
  1.00000000E+00  1.00000000E+00  1.00000000E+00  1.00000000E+00  1.00000000E+00
  1.00000000E+00  2.00000000E+00  1.41000000E+00  1.00000000E+00  0.00000000E+00
  1.00000000E+00  0.00000000E+00  0.00000000E+00  0.00000000E+00  1.00000000E+00
  0.00000000E+00  0.00000000E+00  0.00000000E+00  1.00000000E+00  0.00000000E+00
  0.00000000E+00  0.00000000E+00  1.00000000E+00  0.00000000E+00  0.00000000E+00
  0.00000000E+00  1.00000000E+00  0.00000000E+00  0.00000000E+00  0.00000000E+00
  1.00000000E+00  0.00000000E+00  0.00000000E+00  0.00000000E+00  1.00000000E+00
  0.00000000E+00  0.00000000E+00  0.00000000E+00
Virial Ratio                               R      2.002646877893174E+00
SCF Energy                                 R     -2.470088565084269E+02
MP2 Energy                                 R     -2.477356833296393E+02
Total Energy                               R     -2.477356833296393E+02
Post-SCF wavefunction norm                 R      1.567217421994235E+00
RMS Force                                  R      1.728806761860539E-08
RMS Density                                R      2.460766801337694E-09
External E-field                           R   N=          35
  0.00000000E+00  0.00000000E+00  0.00000000E+00  0.00000000E+00  0.00000000E+00
  0.00000000E+00  0.00000000E+00  0.00000000E+00  0.00000000E+00  0.00000000E+00
  0.00000000E+00  0.00000000E+00  0.00000000E+00  0.00000000E+00  0.00000000E+00
  0.00000000E+00  0.00000000E+00  0.00000000E+00  0.00000000E+00  0.00000000E+00
  0.00000000E+00  0.00000000E+00  0.00000000E+00  0.00000000E+00  0.00000000E+00
  0.00000000E+00  0.00000000E+00  0.00000000E+00  0.00000000E+00  0.00000000E+00
  0.00000000E+00  0.00000000E+00  0.00000000E+00  0.00000000E+00  0.00000000E+00
IOpCl                                      I                0
IROHF                                      I                0
Alpha Orbital Energies                     R   N=          89
 -2.05245671E+01 -1.55861484E+01 -1.13531168E+01 -1.12428378E+01 -1.12164866E+01
 -1.36920739E+00 -1.20393265E+00 -1.04955926E+00 -8.90411489E-01 -7.74584001E-01
 -7.11539013E-01 -6.65234139E-01 -6.34848326E-01 -5.93807421E-01 -5.44977223E-01
 -5.23883459E-01 -5.14494934E-01 -4.91167255E-01 -4.18877969E-01 -4.07258997E-01
  1.92998463E-01  2.17133419E-01  2.45601994E-01  2.79903936E-01  3.08902053E-01
  3.11487438E-01  3.23616145E-01  3.54542672E-01  4.00536244E-01  4.32584177E-01
  5.05925455E-01  5.47199464E-01  7.22012389E-01  7.40092863E-01  7.77557748E-01
  8.04383945E-01  8.16819954E-01  9.09063237E-01  9.32688059E-01  9.53299415E-01
  9.61444466E-01  1.00282271E+00  1.03228863E+00  1.04548828E+00  1.12332111E+00
  1.12826363E+00  1.15897487E+00  1.17527988E+00  1.17688984E+00  1.19463873E+00
  1.22598106E+00  1.24401512E+00  1.33143347E+00  1.36370852E+00  1.42673360E+00
  1.45963773E+00  1.60436792E+00  1.64337814E+00  1.68203315E+00  1.81110210E+00
  1.83507878E+00  1.97057876E+00  2.05714009E+00  2.09092401E+00  2.11014885E+00
  2.15544423E+00  2.18767361E+00  2.25176048E+00  2.29156593E+00  2.32360457E+00
  2.37254086E+00  2.50859835E+00  2.53019576E+00  2.60521615E+00  2.65458269E+00
  2.66628020E+00  2.73546966E+00  2.77783553E+00  2.88508630E+00  2.97774810E+00
  2.99764185E+00  3.20905683E+00  3.35918425E+00  3.43990131E+00  4.22315966E+00
  4.42803519E+00  4.58759849E+00  4.76478907E+00  4.92344334E+00
Alpha MO coefficients                      R   N=        7921
  9.94691018E-01  2.09712482E-02 -1.01237537E-04 -1.53435756E-03 -1.69855221E-05
  4.49528745E-03 -6.64382188E-06  5.71152518E-05  6.70242000E-08 -3.90286883E-03
 -3.64490500E-03 -4.11933566E-03  1.27294393E-05  6.23873889E-06  4.80360649E-06
 -7.69914945E-06 -3.13485912E-05 -2.44052717E-06 -3.64993285E-05 -2.26958318E-06
  1.08581275E-04 -6.03888174E-06  9.70926528E-05  7.75600084E-06  5.75412566E-05
 -7.79361894E-05 -4.65960438E-05 -3.69650418E-05  5.31831829E-06  2.77306627E-06
 -2.57140732E-06 -1.75668718E-06  4.49932221E-06 -2.69973269E-05 -3.27223673E-07
 -7.32481480E-05  1.72829575E-04 -5.34520333E-06 -4.06258151E-06  3.35757134E-05
 -5.58321930E-05 -2.11968204E-05  2.79479559E-05  1.30243400E-06 -2.44141417E-07
  4.16125287E-06  2.65659195E-05 -1.37504974E-05  1.69619910E-05 -2.78184492E-06
 -7.82581141E-05  1.27804317E-04 -1.33476506E-05  9.52524879E-06 -1.24196200E-06
 -7.58937692E-06  3.75764005E-06 -9.51007471E-06  1.73387144E-06  1.06223421E-06
 -3.41212350E-06  4.97652279E-04 -1.85275663E-05 -2.22032213E-05 -1.51607540E-06
 -3.07694789E-04  1.62324948E-04 -5.59429887E-04 -5.52379184E-08 -5.33351410E-05
 -7.60958657E-04 -4.39901426E-05 -5.68459372E-05  6.71378259E-07 -1.20752165E-05
  1.01383609E-05 -2.62829516E-05  8.42306482E-06 -2.72191805E-05 -5.32197144E-06
 -6.18159590E-05  2.58058761E-05 -1.84407537E-05  2.91736448E-05 -4.56151873E-05
  2.94682626E-05 -9.05808993E-06 -2.97623232E-05 -3.55417142E-05 -1.40597812E-05
 -1.03986111E-04  4.26157867E-06  2.14259401E-05  3.06225506E-07  5.70009405E-04
  2.68012999E-04 -1.63214739E-04 -1.85779089E-05 -5.70493968E-05 -1.84473558E-05
 -9.12105452E-05 -6.63814783E-05  2.44548656E-07  5.27988816E-06  9.94918775E-01
  2.52213900E-02  9.08121345E-05  1.12966959E-05  5.71853985E-04 -2.58869416E-03
 -6.77211845E-04 -3.07642358E-04 -4.09852468E-04 -3.56341570E-03 -3.54740829E-03
 -3.42868443E-03 -6.59288635E-06 -8.36782242E-06  8.06077253E-06 -9.21768685E-06
 -3.08475132E-05  2.96084962E-05  3.76318800E-06  1.72833732E-06  8.41826307E-05
  1.85098575E-04  1.32806626E-04 -1.00164386E-05 -6.82295393E-05  2.83381183E-05
 -4.24321608E-05 -9.07599844E-06  1.10395309E-06 -1.88313031E-06 -1.20990554E-05
 -5.28038998E-05  3.11553665E-05 -1.02220151E-05 -9.26388096E-07  6.16788598E-05
 -1.80713399E-04  1.58116756E-04 -2.33537881E-06  1.45488000E-06 -2.66766890E-05
 -1.84837689E-05  1.98911119E-06 -1.17802724E-06  1.47241508E-06  1.20286105E-05
  1.77469474E-04 -1.62470123E-04 -1.07859722E-04 -1.22614650E-05  1.32793174E-03
 -1.25205955E-03 -9.48187471E-04  3.54687016E-05 -9.50482075E-05 -1.17822658E-04
 -7.43164079E-05 -3.64487488E-05 -7.28078369E-06 -3.99013024E-07  3.83148865E-06
 -4.14349584E-05  1.80002562E-07 -3.47014417E-05  1.54605983E-05  1.13834238E-04
 -2.11072083E-05 -3.04057697E-05 -2.09451166E-05 -4.01698121E-05  2.59694977E-04
  3.72165729E-04  2.74566430E-04  2.93929756E-04 -2.14732901E-04  8.02879497E-04
 -5.10329997E-05 -3.01654205E-04  7.93139840E-07 -4.22539510E-03  5.84169757E-04
  1.90277320E-03  2.12860137E-05  2.91589609E-04  1.23208057E-04  5.23679279E-04
 -1.14467977E-04 -8.04066900E-06 -7.65539203E-06 -2.91651055E-04  1.65847646E-04
 -1.40003357E-04  2.52449983E-05 -1.03435104E-05  1.58447974E-03  5.59138587E-04
 -1.55449504E-03  4.76527404E-05 -5.99907946E-04 -3.42700855E-04  4.31162382E-05
 -3.44189660E-04 -2.11898430E-05 -8.87328826E-05  2.64214764E-03  1.19871866E-04
  2.38700237E-05 -7.09121519E-05  1.43022899E-05  4.26861195E-03 -2.67920815E-03
  1.07670232E-03 -1.61168297E-04 -3.46941228E-04 -3.34024793E-04 -7.88640757E-05
  1.45300306E-04 -3.25003027E-06  8.31253107E-06 -4.88714382E-05 -1.58022754E-04
  7.68762537E-05 -1.19127328E-05  3.88102663E-06  4.71945785E-04 -3.26231173E-04
 -2.55352761E-04  4.39772426E-05  1.59440394E-05  3.94176632E-05 -7.07834978E-05
  1.31897834E-05 -7.59054991E-06 -1.33362997E-05  9.95855313E-01  2.62480777E-02
 -4.91303502E-04  8.30601819E-05 -6.73054644E-05 -7.68159818E-03 -2.25708152E-03
  5.03809262E-03  2.16198431E-05 -1.35354897E-03 -7.03279943E-04 -2.29422124E-03
  2.12245681E-04  6.54530605E-05  3.14226642E-05 -1.96960539E-04  3.88682425E-04
 -1.82608566E-04  1.96141496E-04 -3.01367821E-05  1.96113556E-04 -4.90263585E-05
  7.49656324E-05 -3.87946690E-05  3.72483797E-05 -2.16102629E-04 -5.66498542E-04
  2.12485882E-04  2.96561929E-04  2.76334550E-06 -5.45680763E-05  8.95290993E-06
  1.68074965E-05 -4.84830259E-06 -2.15331333E-04 -5.57041100E-04 -4.89801961E-06
 -3.87945590E-06  3.59556566E-05  8.68240371E-05 -9.94413948E-05  9.34811960E-05
  9.90510991E-06  2.56987347E-06 -3.65906862E-05 -2.68163546E-04 -9.01511911E-05
  1.48864644E-06 -4.40371877E-07  1.26789762E-03  6.25593253E-04  4.20488929E-04
  4.19893965E-05  1.98680680E-05  7.89943016E-07 -1.83568747E-04  2.40038452E-05
  1.78524589E-05  4.10138525E-06  9.95774862E-01  2.88067982E-02 -2.10217393E-04
  4.82416900E-05  3.01458623E-05 -1.82598004E-02  3.75315487E-04 -1.39726976E-03
 -7.54757596E-06 -1.62448489E-03 -1.70876221E-03 -1.58736621E-03  2.52912676E-05
  3.31767576E-06  9.95654388E-06  1.13808380E-02  3.81608160E-04 -1.17231168E-04
 -7.52374100E-06  2.45073708E-06  4.07722389E-03 -1.54526368E-03 -1.09948718E-03
  1.26631763E-04 -3.66325523E-04 -2.56000666E-04 -9.54692252E-05 -1.76329465E-04
  1.62341605E-05  1.57364053E-05 -2.96499641E-03  1.15836052E-05  5.03623092E-05
 -4.77375748E-05  5.86457727E-06  4.00166372E-03  3.27171846E-03 -8.71071609E-04
  1.09151376E-04 -4.46755213E-04 -3.68181183E-04 -1.51359932E-04  2.07506554E-04
 -1.30318899E-05  3.78876854E-06  2.53325984E-04  2.70324307E-03  2.46688710E-04
  2.63119989E-03 -1.43169058E-04 -2.01305818E-04 -1.49912472E-04  8.61947668E-05
 -1.54050597E-04  8.07111916E-05 -4.67072647E-05  8.82850468E-05 -3.69242346E-05
  2.51129919E-04 -5.17279627E-05 -2.22273094E-04 -5.84549067E-05  4.39232568E-05
  1.11608344E-05  9.54520228E-04  1.33644991E-05 -3.68248080E-04 -4.52633681E-05
 -1.40992051E-04 -9.59156139E-05 -2.29156033E-04 -6.62417264E-06 -8.48619510E-06
  5.76496433E-06 -3.76222720E-05 -1.50846719E-04 -1.78085465E-05 -4.41757835E-06
 -1.99487423E-06  1.22344674E-03  6.02267990E-04  3.35923837E-04  3.73657489E-05
 -1.38926618E-05 -6.49017990E-05 -9.73088170E-05  4.25307025E-05  6.60110912E-06
 -7.47809445E-07 -1.16726370E-02 -2.29055100E-04 -7.88925071E-06 -4.28702620E-06
  8.26779825E-06  3.91102660E-03  1.63799306E-03  9.28809517E-04 -1.68227902E-04
 -3.95063323E-04 -2.19275803E-04 -6.83464541E-05 -1.93126376E-04  2.15651747E-05
  1.45588119E-05  9.95688277E-01  2.84889803E-02 -2.11912087E-04 -1.30850250E-04
  4.56810764E-06 -1.53385711E-02  1.02726126E-03  2.53775663E-04 -5.07827173E-06
 -1.83823614E-03 -1.79848150E-03 -1.79724694E-03 -4.20276811E-05  2.33176539E-06
  5.41475844E-08  3.94539487E-05 -1.43077743E-04 -8.21211784E-05 -5.86276680E-05
  3.35415408E-06 -1.20450974E-03  8.88618955E-04  1.13368289E-04  7.42267413E-05
 -2.14435125E-05 -4.28963886E-05 -4.94253848E-05 -4.01103065E-05 -1.43812461E-05
 -9.04164691E-06 -1.42781354E-04  5.93841359E-05 -1.49236001E-04 -1.22834659E-05
  1.05416871E-04  2.35491469E-03  1.93369791E-04  2.60599936E-03  2.00294996E-04
  2.56639300E-03 -3.87856901E-05  1.43921896E-04 -2.93000664E-05  9.75047907E-05
 -1.80734981E-01  3.93937215E-01 -9.03659345E-03 -1.27360540E-01 -1.60155803E-03
  3.80804654E-01 -6.94610108E-03 -5.57829910E-02 -7.00975500E-04 -3.64189732E-03
  1.67008717E-02 -3.32564072E-03  2.04153343E-03 -2.61048613E-05  3.15989015E-04
 -5.50467701E-02  1.15859472E-01  3.26786708E-02  2.83258739E-02  8.68944134E-03
  9.63642144E-02  6.72906469E-03  1.84704978E-02  3.94908867E-03  7.54719082E-03
  6.26923587E-03 -2.21342119E-03  4.65154912E-03  2.62503973E-04  4.58382885E-04
 -2.07667290E-02  3.89864710E-02 -2.05092851E-02  2.02360283E-02 -5.62120593E-04
  8.25789044E-03  1.15088770E-02  3.42160175E-03  1.46365513E-04  3.86782388E-03
  3.64521271E-03 -5.33807642E-04 -4.92180861E-03  8.91822189E-05 -1.95937685E-04
 -6.10935587E-03  1.23267085E-02 -8.00904371E-03 -5.94429905E-04  3.72022600E-04
 -2.82200866E-03  4.39166367E-04  2.74880968E-03 -4.49453424E-04  1.80095485E-03
  4.16161688E-04  2.58828559E-04  2.30008777E-04 -7.78960082E-05 -7.25508752E-06
 -1.24033193E-01  2.41085345E-01 -1.66147726E-02  1.41174814E-01  5.38282062E-04
  6.86884884E-02  1.33991282E-02 -3.69112018E-02  9.15795548E-04 -1.12553278E-02
  2.75558405E-02 -1.88803329E-02  4.66479256E-03  3.47082858E-04  6.73532533E-04
  7.57418413E-03 -3.03154459E-05  7.52051702E-03  2.25225087E-05  1.77401230E-03
  7.34187080E-04  3.25980855E-03  1.71497446E-03  3.61361278E-03  1.95407046E-03
  2.34822784E-02  1.26107021E-03  2.66677781E-02 -1.25911154E-03  8.40013679E-02
 -1.83795365E-01 -1.48607678E-02  2.93163792E-02 -4.38511031E-04 -1.93607627E-01
 -1.00438559E-02  1.34169416E-02 -3.27475489E-04  6.93815256E-04 -4.00247500E-03
  1.68526206E-03  2.56429723E-03  2.97693119E-05 -6.52744437E-06 -1.83289982E-01
  3.78792557E-01  2.94081627E-02  4.85685958E-03  3.07851635E-02  4.15004167E-01
  1.74777478E-02  2.10950915E-04  1.89934909E-02  1.40707235E-02  1.51781176E-02
 -9.08725469E-03 -2.56260647E-03 -1.31693771E-03 -2.93475087E-03 -2.08644326E-02
  3.91804551E-02 -2.26252619E-02 -1.25837882E-03 -8.37371811E-04  2.60985528E-02
 -1.23632485E-02 -7.05900174E-03 -2.45962967E-04  3.64681604E-03 -9.28438698E-04
  7.28044562E-04 -1.34242470E-03  1.96723449E-04  1.20822378E-04 -2.52973700E-03
  5.56542217E-03 -3.46681431E-03 -3.11837778E-03  9.48705360E-05  7.74718671E-03
  3.84432452E-03 -5.69282733E-03  3.96892390E-04  3.84674066E-04  3.35488790E-04
 -3.87310827E-05  9.56372757E-04 -3.46793170E-05 -7.85934666E-05 -3.94989527E-02
  8.44700737E-02 -1.10562030E-01 -1.64166406E-01 -5.95152351E-03  1.55892260E-02
  1.77705076E-02  4.77064285E-03  6.79701679E-05  2.20425031E-02 -1.32600755E-02
 -3.55991461E-03  1.26769709E-02  1.10593078E-03  2.43822649E-04  1.21477152E-02
  2.22701330E-03  1.31543942E-02  1.72978969E-03  9.15276763E-04 -3.78205663E-03
  1.01126392E-03 -6.43365402E-04  7.66749488E-04 -8.92454514E-04  1.14562194E-01
  1.75344821E-03  1.05597389E-01  1.51434096E-03  3.04116130E-02 -6.86212664E-02
  3.03902855E-02 -3.31707806E-03  6.68026183E-04 -7.07511326E-02  1.35088943E-02