192_IsopropylSulfone Gaussian SP Calculation on node58.bme.utexas.edu   
Freq      RMP2-FC                                                     6-31G(d)            
Number of atoms                            I               23
Info1-9                                    I   N=           9
          34          33        1002           0           0         100
           6           2           1
Charge                                     I                0
Multiplicity                               I                1
Number of electrons                        I               82
Number of alpha electrons                  I               41
Number of beta electrons                   I               41
Number of basis functions                  I              167
Number of independent functions            I              167
Number of point charges in /Mol/           I                0
Number of translation vectors              I                0
Atomic numbers                             I   N=          23
          16           8           8           6           6           6
           6           6           6           1           1           1
           1           1           1           1           1           1
           1           1           1           1           1
Nuclear charges                            R   N=          23
  1.60000000E+01  8.00000000E+00  8.00000000E+00  6.00000000E+00  6.00000000E+00
  6.00000000E+00  6.00000000E+00  6.00000000E+00  6.00000000E+00  1.00000000E+00
  1.00000000E+00  1.00000000E+00  1.00000000E+00  1.00000000E+00  1.00000000E+00
  1.00000000E+00  1.00000000E+00  1.00000000E+00  1.00000000E+00  1.00000000E+00
  1.00000000E+00  1.00000000E+00  1.00000000E+00
Current cartesian coordinates              R   N=          69
  1.92349263E-06 -1.01004153E+00  9.93842380E-06  4.65965581E-01 -2.39510297E+00
 -2.37767222E+00 -4.65961727E-01 -2.39508213E+00  2.37770427E+00 -2.69489714E+00
  1.03097571E+00 -5.30584440E-01  2.69490464E+00  1.03097874E+00  5.30584971E-01
 -3.13455229E+00  2.79514614E+00  1.70182231E+00 -4.95380193E+00 -6.98309942E-01
 -1.02482551E+00  3.13451859E+00  2.79518460E+00 -1.70180212E+00  4.95382173E+00
 -6.98310332E-01  1.02475929E+00 -2.24608448E+00  2.09198265E+00 -2.24966677E+00
  2.24611872E+00  2.09195634E+00  2.24969238E+00 -4.88339642E+00  3.85403903E+00
  1.39488030E+00 -3.32837245E+00  1.69976106E+00  3.44232217E+00 -1.60580320E+00
  4.16368962E+00  1.94331051E+00 -6.60736811E+00  4.61166077E-01 -1.46185768E+00
 -5.36044459E+00 -1.83643465E+00  6.49353710E-01 -4.58509867E+00 -1.96018147E+00
 -2.61487477E+00  4.88340143E+00  3.85402676E+00 -1.39490502E+00  3.32825080E+00
  1.69983106E+00 -3.44233226E+00  1.60579525E+00  4.16377189E+00 -1.94320270E+00
  6.60738184E+00  4.61161340E-01  1.46182565E+00  5.36046391E+00 -1.83637849E+00
 -6.49457922E-01  4.58513283E+00 -1.96023541E+00  2.61476998E+00
Force Field                                I                0
Int Atom Types                             I   N=          23
           0           0           0           0           0           0
           0           0           0           0           0           0
           0           0           0           0           0           0
           0           0           0           0           0
MM charges                                 R   N=          23
  0.00000000E+00  0.00000000E+00  0.00000000E+00  0.00000000E+00  0.00000000E+00
  0.00000000E+00  0.00000000E+00  0.00000000E+00  0.00000000E+00  0.00000000E+00
  0.00000000E+00  0.00000000E+00  0.00000000E+00  0.00000000E+00  0.00000000E+00
  0.00000000E+00  0.00000000E+00  0.00000000E+00  0.00000000E+00  0.00000000E+00
  0.00000000E+00  0.00000000E+00  0.00000000E+00
Integer atomic weights                     I   N=          23
          32          16          16          12          12          12
          12          12          12           1           1           1
           1           1           1           1           1           1
           1           1           1           1           1
Real atomic weights                        R   N=          23
  3.19720718E+01  1.59949146E+01  1.59949146E+01  1.20000000E+01  1.20000000E+01
  1.20000000E+01  1.20000000E+01  1.20000000E+01  1.20000000E+01  1.00782504E+00
  1.00782504E+00  1.00782504E+00  1.00782504E+00  1.00782504E+00  1.00782504E+00
  1.00782504E+00  1.00782504E+00  1.00782504E+00  1.00782504E+00  1.00782504E+00
  1.00782504E+00  1.00782504E+00  1.00782504E+00
Atom fragment info                         I   N=          23
           0           0           0           0           0           0
           0           0           0           0           0           0
           0           0           0           0           0           0
           0           0           0           0           0
Atom residue num                           I   N=          23
           0           0           0           0           0           0
           0           0           0           0           0           0
           0           0           0           0           0           0
           0           0           0           0           0
Nuclear spins                              I   N=          23
           0           0           0           0           0           0
           0           0           0           1           1           1
           1           1           1           1           1           1
           1           1           1           1           1
Nuclear ZEff                               R   N=          23
 -1.36000000E+01 -5.60000000E+00 -5.60000000E+00 -3.60000000E+00 -3.60000000E+00
 -3.60000000E+00 -3.60000000E+00 -3.60000000E+00 -3.60000000E+00 -1.00000000E+00
 -1.00000000E+00 -1.00000000E+00 -1.00000000E+00 -1.00000000E+00 -1.00000000E+00
 -1.00000000E+00 -1.00000000E+00 -1.00000000E+00 -1.00000000E+00 -1.00000000E+00
 -1.00000000E+00 -1.00000000E+00 -1.00000000E+00
Nuclear QMom                               R   N=          23
  0.00000000E+00  0.00000000E+00  0.00000000E+00  0.00000000E+00  0.00000000E+00
  0.00000000E+00  0.00000000E+00  0.00000000E+00  0.00000000E+00  0.00000000E+00
  0.00000000E+00  0.00000000E+00  0.00000000E+00  0.00000000E+00  0.00000000E+00
  0.00000000E+00  0.00000000E+00  0.00000000E+00  0.00000000E+00  0.00000000E+00
  0.00000000E+00  0.00000000E+00  0.00000000E+00
Nuclear GFac                               R   N=          23
  0.00000000E+00  0.00000000E+00  0.00000000E+00  0.00000000E+00  0.00000000E+00
  0.00000000E+00  0.00000000E+00  0.00000000E+00  0.00000000E+00  2.79284600E+00
  2.79284600E+00  2.79284600E+00  2.79284600E+00  2.79284600E+00  2.79284600E+00
  2.79284600E+00  2.79284600E+00  2.79284600E+00  2.79284600E+00  2.79284600E+00
  2.79284600E+00  2.79284600E+00  2.79284600E+00
MicOpt                                     I   N=          23
          -1          -1          -1          -1          -1          -1
          -1          -1          -1          -1          -1          -1
          -1          -1          -1          -1          -1          -1
          -1          -1          -1          -1          -1
Number of contracted shells                I               65
Number of primitive shells                 I              161
Pure/Cartesian d shells                    I                1
Pure/Cartesian f shells                    I                0
Highest angular momentum                   I                2
Largest degree of contraction              I                6
Shell types                                I   N=          65
           0          -1          -1          -1           2           0
          -1          -1           2           0          -1          -1
           2           0          -1          -1           2           0
          -1          -1           2           0          -1          -1
           2           0          -1          -1           2           0
          -1          -1           2           0          -1          -1
           2           0           0           0           0           0
           0           0           0           0           0           0
           0           0           0           0           0           0
           0           0           0           0           0           0
           0           0           0           0           0
Number of primitives per shell             I   N=          65
           6           6           3           1           1           6
           3           1           1           6           3           1
           1           6           3           1           1           6
           3           1           1           6           3           1
           1           6           3           1           1           6
           3           1           1           6           3           1
           1           3           1           3           1           3
           1           3           1           3           1           3
           1           3           1           3           1           3
           1           3           1           3           1           3
           1           3           1           3           1
Shell to atom map                          I   N=          65
           1           1           1           1           1           2
           2           2           2           3           3           3
           3           4           4           4           4           5
           5           5           5           6           6           6
           6           7           7           7           7           8
           8           8           8           9           9           9
           9          10          10          11          11          12
          12          13          13          14          14          15
          15          16          16          17          17          18
          18          19          19          20          20          21
          21          22          22          23          23
Primitive exponents                        R   N=         161
  2.19171000E+04  3.30149000E+03  7.54146000E+02  2.12711000E+02  6.79896000E+01
  2.30515000E+01  4.23735000E+02  1.00710000E+02  3.21599000E+01  1.18079000E+01
  4.63110000E+00  1.87025000E+00  2.61584000E+00  9.22167000E-01  3.41287000E-01
  1.17167000E-01  6.50000000E-01  5.48467166E+03  8.25234946E+02  1.88046958E+02
  5.29645000E+01  1.68975704E+01  5.79963534E+00  1.55396162E+01  3.59993359E+00
  1.01376175E+00  2.70005823E-01  8.00000000E-01  5.48467166E+03  8.25234946E+02
  1.88046958E+02  5.29645000E+01  1.68975704E+01  5.79963534E+00  1.55396162E+01
  3.59993359E+00  1.01376175E+00  2.70005823E-01  8.00000000E-01  3.04752488E+03
  4.57369518E+02  1.03948685E+02  2.92101553E+01  9.28666296E+00  3.16392696E+00
  7.86827235E+00  1.88128854E+00  5.44249258E-01  1.68714478E-01  8.00000000E-01
  3.04752488E+03  4.57369518E+02  1.03948685E+02  2.92101553E+01  9.28666296E+00
  3.16392696E+00  7.86827235E+00  1.88128854E+00  5.44249258E-01  1.68714478E-01
  8.00000000E-01  3.04752488E+03  4.57369518E+02  1.03948685E+02  2.92101553E+01
  9.28666296E+00  3.16392696E+00  7.86827235E+00  1.88128854E+00  5.44249258E-01
  1.68714478E-01  8.00000000E-01  3.04752488E+03  4.57369518E+02  1.03948685E+02
  2.92101553E+01  9.28666296E+00  3.16392696E+00  7.86827235E+00  1.88128854E+00
  5.44249258E-01  1.68714478E-01  8.00000000E-01  3.04752488E+03  4.57369518E+02
  1.03948685E+02  2.92101553E+01  9.28666296E+00  3.16392696E+00  7.86827235E+00
  1.88128854E+00  5.44249258E-01  1.68714478E-01  8.00000000E-01  3.04752488E+03
  4.57369518E+02  1.03948685E+02  2.92101553E+01  9.28666296E+00  3.16392696E+00
  7.86827235E+00  1.88128854E+00  5.44249258E-01  1.68714478E-01  8.00000000E-01
  1.87311370E+01  2.82539436E+00  6.40121692E-01  1.61277759E-01  1.87311370E+01
  2.82539436E+00  6.40121692E-01  1.61277759E-01  1.87311370E+01  2.82539436E+00
  6.40121692E-01  1.61277759E-01  1.87311370E+01  2.82539436E+00  6.40121692E-01
  1.61277759E-01  1.87311370E+01  2.82539436E+00  6.40121692E-01  1.61277759E-01
  1.87311370E+01  2.82539436E+00  6.40121692E-01  1.61277759E-01  1.87311370E+01
  2.82539436E+00  6.40121692E-01  1.61277759E-01  1.87311370E+01  2.82539436E+00
  6.40121692E-01  1.61277759E-01  1.87311370E+01  2.82539436E+00  6.40121692E-01
  1.61277759E-01  1.87311370E+01  2.82539436E+00  6.40121692E-01  1.61277759E-01
  1.87311370E+01  2.82539436E+00  6.40121692E-01  1.61277759E-01  1.87311370E+01
  2.82539436E+00  6.40121692E-01  1.61277759E-01  1.87311370E+01  2.82539436E+00
  6.40121692E-01  1.61277759E-01  1.87311370E+01  2.82539436E+00  6.40121692E-01
  1.61277759E-01
Contraction coefficients                   R   N=         161
  1.86924085E-03  1.42303065E-02  6.96962317E-02  2.38487108E-01  4.83307220E-01
  3.38074154E-01 -2.37677050E-03 -3.16930067E-02 -1.13317024E-01  5.60900118E-02
  5.92255124E-01  4.55006095E-01 -2.50373114E-01  6.69567631E-02  1.05450627E+00
  1.00000000E+00  1.00000000E+00  1.83107443E-03  1.39501722E-02  6.84450781E-02
  2.32714336E-01  4.70192898E-01  3.58520853E-01 -1.10777550E-01 -1.48026263E-01
  1.13076702E+00  1.00000000E+00  1.00000000E+00  1.83107443E-03  1.39501722E-02
  6.84450781E-02  2.32714336E-01  4.70192898E-01  3.58520853E-01 -1.10777550E-01
 -1.48026263E-01  1.13076702E+00  1.00000000E+00  1.00000000E+00  1.83473713E-03
  1.40373228E-02  6.88426223E-02  2.32184443E-01  4.67941348E-01  3.62311985E-01
 -1.19332420E-01 -1.60854152E-01  1.14345644E+00  1.00000000E+00  1.00000000E+00
  1.83473713E-03  1.40373228E-02  6.88426223E-02  2.32184443E-01  4.67941348E-01
  3.62311985E-01 -1.19332420E-01 -1.60854152E-01  1.14345644E+00  1.00000000E+00
  1.00000000E+00  1.83473713E-03  1.40373228E-02  6.88426223E-02  2.32184443E-01
  4.67941348E-01  3.62311985E-01 -1.19332420E-01 -1.60854152E-01  1.14345644E+00
  1.00000000E+00  1.00000000E+00  1.83473713E-03  1.40373228E-02  6.88426223E-02
  2.32184443E-01  4.67941348E-01  3.62311985E-01 -1.19332420E-01 -1.60854152E-01
  1.14345644E+00  1.00000000E+00  1.00000000E+00  1.83473713E-03  1.40373228E-02
  6.88426223E-02  2.32184443E-01  4.67941348E-01  3.62311985E-01 -1.19332420E-01
 -1.60854152E-01  1.14345644E+00  1.00000000E+00  1.00000000E+00  1.83473713E-03
  1.40373228E-02  6.88426223E-02  2.32184443E-01  4.67941348E-01  3.62311985E-01
 -1.19332420E-01 -1.60854152E-01  1.14345644E+00  1.00000000E+00  1.00000000E+00
  3.34946043E-02  2.34726953E-01  8.13757326E-01  1.00000000E+00  3.34946043E-02
  2.34726953E-01  8.13757326E-01  1.00000000E+00  3.34946043E-02  2.34726953E-01
  8.13757326E-01  1.00000000E+00  3.34946043E-02  2.34726953E-01  8.13757326E-01
  1.00000000E+00  3.34946043E-02  2.34726953E-01  8.13757326E-01  1.00000000E+00
  3.34946043E-02  2.34726953E-01  8.13757326E-01  1.00000000E+00  3.34946043E-02
  2.34726953E-01  8.13757326E-01  1.00000000E+00  3.34946043E-02  2.34726953E-01
  8.13757326E-01  1.00000000E+00  3.34946043E-02  2.34726953E-01  8.13757326E-01
  1.00000000E+00  3.34946043E-02  2.34726953E-01  8.13757326E-01  1.00000000E+00
  3.34946043E-02  2.34726953E-01  8.13757326E-01  1.00000000E+00  3.34946043E-02
  2.34726953E-01  8.13757326E-01  1.00000000E+00  3.34946043E-02  2.34726953E-01
  8.13757326E-01  1.00000000E+00  3.34946043E-02  2.34726953E-01  8.13757326E-01
  1.00000000E+00
P(S=P) Contraction coefficients            R   N=         161
  0.00000000E+00  0.00000000E+00  0.00000000E+00  0.00000000E+00  0.00000000E+00
  0.00000000E+00  4.06100998E-03  3.06812999E-02  1.30451999E-01  3.27204999E-01
  4.52850998E-01  2.56041999E-01 -1.45104895E-02  3.10262776E-01  7.54482456E-01
  1.00000000E+00  0.00000000E+00  0.00000000E+00  0.00000000E+00  0.00000000E+00
  0.00000000E+00  0.00000000E+00  0.00000000E+00  7.08742682E-02  3.39752839E-01
  7.27158577E-01  1.00000000E+00  0.00000000E+00  0.00000000E+00  0.00000000E+00
  0.00000000E+00  0.00000000E+00  0.00000000E+00  0.00000000E+00  7.08742682E-02
  3.39752839E-01  7.27158577E-01  1.00000000E+00  0.00000000E+00  0.00000000E+00
  0.00000000E+00  0.00000000E+00  0.00000000E+00  0.00000000E+00  0.00000000E+00
  6.89990666E-02  3.16423961E-01  7.44308291E-01  1.00000000E+00  0.00000000E+00
  0.00000000E+00  0.00000000E+00  0.00000000E+00  0.00000000E+00  0.00000000E+00
  0.00000000E+00  6.89990666E-02  3.16423961E-01  7.44308291E-01  1.00000000E+00
  0.00000000E+00  0.00000000E+00  0.00000000E+00  0.00000000E+00  0.00000000E+00
  0.00000000E+00  0.00000000E+00  6.89990666E-02  3.16423961E-01  7.44308291E-01
  1.00000000E+00  0.00000000E+00  0.00000000E+00  0.00000000E+00  0.00000000E+00
  0.00000000E+00  0.00000000E+00  0.00000000E+00  6.89990666E-02  3.16423961E-01
  7.44308291E-01  1.00000000E+00  0.00000000E+00  0.00000000E+00  0.00000000E+00
  0.00000000E+00  0.00000000E+00  0.00000000E+00  0.00000000E+00  6.89990666E-02
  3.16423961E-01  7.44308291E-01  1.00000000E+00  0.00000000E+00  0.00000000E+00
  0.00000000E+00  0.00000000E+00  0.00000000E+00  0.00000000E+00  0.00000000E+00
  6.89990666E-02  3.16423961E-01  7.44308291E-01  1.00000000E+00  0.00000000E+00
  0.00000000E+00  0.00000000E+00  0.00000000E+00  0.00000000E+00  0.00000000E+00
  0.00000000E+00  0.00000000E+00  0.00000000E+00  0.00000000E+00  0.00000000E+00
  0.00000000E+00  0.00000000E+00  0.00000000E+00  0.00000000E+00  0.00000000E+00
  0.00000000E+00  0.00000000E+00  0.00000000E+00  0.00000000E+00  0.00000000E+00
  0.00000000E+00  0.00000000E+00  0.00000000E+00  0.00000000E+00  0.00000000E+00
  0.00000000E+00  0.00000000E+00  0.00000000E+00  0.00000000E+00  0.00000000E+00
  0.00000000E+00  0.00000000E+00  0.00000000E+00  0.00000000E+00  0.00000000E+00
  0.00000000E+00  0.00000000E+00  0.00000000E+00  0.00000000E+00  0.00000000E+00
  0.00000000E+00  0.00000000E+00  0.00000000E+00  0.00000000E+00  0.00000000E+00
  0.00000000E+00  0.00000000E+00  0.00000000E+00  0.00000000E+00  0.00000000E+00
  0.00000000E+00  0.00000000E+00  0.00000000E+00  0.00000000E+00  0.00000000E+00
  0.00000000E+00
Coordinates of each shell                  R   N=         195
  1.92349263E-06 -1.01004153E+00  9.93842380E-06  1.92349263E-06 -1.01004153E+00
  9.93842380E-06  1.92349263E-06 -1.01004153E+00  9.93842380E-06  1.92349263E-06
 -1.01004153E+00  9.93842380E-06  1.92349263E-06 -1.01004153E+00  9.93842380E-06
  4.65965581E-01 -2.39510297E+00 -2.37767222E+00  4.65965581E-01 -2.39510297E+00
 -2.37767222E+00  4.65965581E-01 -2.39510297E+00 -2.37767222E+00  4.65965581E-01
 -2.39510297E+00 -2.37767222E+00 -4.65961727E-01 -2.39508213E+00  2.37770427E+00
 -4.65961727E-01 -2.39508213E+00  2.37770427E+00 -4.65961727E-01 -2.39508213E+00
  2.37770427E+00 -4.65961727E-01 -2.39508213E+00  2.37770427E+00 -2.69489714E+00
  1.03097571E+00 -5.30584440E-01 -2.69489714E+00  1.03097571E+00 -5.30584440E-01
 -2.69489714E+00  1.03097571E+00 -5.30584440E-01 -2.69489714E+00  1.03097571E+00
 -5.30584440E-01  2.69490464E+00  1.03097874E+00  5.30584971E-01  2.69490464E+00
  1.03097874E+00  5.30584971E-01  2.69490464E+00  1.03097874E+00  5.30584971E-01
  2.69490464E+00  1.03097874E+00  5.30584971E-01 -3.13455229E+00  2.79514614E+00
  1.70182231E+00 -3.13455229E+00  2.79514614E+00  1.70182231E+00 -3.13455229E+00
  2.79514614E+00  1.70182231E+00 -3.13455229E+00  2.79514614E+00  1.70182231E+00
 -4.95380193E+00 -6.98309942E-01 -1.02482551E+00 -4.95380193E+00 -6.98309942E-01
 -1.02482551E+00 -4.95380193E+00 -6.98309942E-01 -1.02482551E+00 -4.95380193E+00
 -6.98309942E-01 -1.02482551E+00  3.13451859E+00  2.79518460E+00 -1.70180212E+00
  3.13451859E+00  2.79518460E+00 -1.70180212E+00  3.13451859E+00  2.79518460E+00
 -1.70180212E+00  3.13451859E+00  2.79518460E+00 -1.70180212E+00  4.95382173E+00
 -6.98310332E-01  1.02475929E+00  4.95382173E+00 -6.98310332E-01  1.02475929E+00
  4.95382173E+00 -6.98310332E-01  1.02475929E+00  4.95382173E+00 -6.98310332E-01
  1.02475929E+00 -2.24608448E+00  2.09198265E+00 -2.24966677E+00 -2.24608448E+00
  2.09198265E+00 -2.24966677E+00  2.24611872E+00  2.09195634E+00  2.24969238E+00
  2.24611872E+00  2.09195634E+00  2.24969238E+00 -4.88339642E+00  3.85403903E+00
  1.39488030E+00 -4.88339642E+00  3.85403903E+00  1.39488030E+00 -3.32837245E+00
  1.69976106E+00  3.44232217E+00 -3.32837245E+00  1.69976106E+00  3.44232217E+00
 -1.60580320E+00  4.16368962E+00  1.94331051E+00 -1.60580320E+00  4.16368962E+00
  1.94331051E+00 -6.60736811E+00  4.61166077E-01 -1.46185768E+00 -6.60736811E+00
  4.61166077E-01 -1.46185768E+00 -5.36044459E+00 -1.83643465E+00  6.49353710E-01
 -5.36044459E+00 -1.83643465E+00  6.49353710E-01 -4.58509867E+00 -1.96018147E+00
 -2.61487477E+00 -4.58509867E+00 -1.96018147E+00 -2.61487477E+00  4.88340143E+00
  3.85402676E+00 -1.39490502E+00  4.88340143E+00  3.85402676E+00 -1.39490502E+00
  3.32825080E+00  1.69983106E+00 -3.44233226E+00  3.32825080E+00  1.69983106E+00
 -3.44233226E+00  1.60579525E+00  4.16377189E+00 -1.94320270E+00  1.60579525E+00
  4.16377189E+00 -1.94320270E+00  6.60738184E+00  4.61161340E-01  1.46182565E+00
  6.60738184E+00  4.61161340E-01  1.46182565E+00  5.36046391E+00 -1.83637849E+00
 -6.49457922E-01  5.36046391E+00 -1.83637849E+00 -6.49457922E-01  4.58513283E+00
 -1.96023541E+00  2.61476998E+00  4.58513283E+00 -1.96023541E+00  2.61476998E+00
Constraint Structure                       R   N=          69
  1.92349263E-06 -1.01004153E+00  9.93842380E-06  4.65965581E-01 -2.39510297E+00
 -2.37767222E+00 -4.65961727E-01 -2.39508213E+00  2.37770427E+00 -2.69489714E+00
  1.03097571E+00 -5.30584440E-01  2.69490464E+00  1.03097874E+00  5.30584971E-01
 -3.13455229E+00  2.79514614E+00  1.70182231E+00 -4.95380193E+00 -6.98309942E-01
 -1.02482551E+00  3.13451859E+00  2.79518460E+00 -1.70180212E+00  4.95382173E+00
 -6.98310332E-01  1.02475929E+00 -2.24608448E+00  2.09198265E+00 -2.24966677E+00
  2.24611872E+00  2.09195634E+00  2.24969238E+00 -4.88339642E+00  3.85403903E+00
  1.39488030E+00 -3.32837245E+00  1.69976106E+00  3.44232217E+00 -1.60580320E+00
  4.16368962E+00  1.94331051E+00 -6.60736811E+00  4.61166077E-01 -1.46185768E+00
 -5.36044459E+00 -1.83643465E+00  6.49353710E-01 -4.58509867E+00 -1.96018147E+00
 -2.61487477E+00  4.88340143E+00  3.85402676E+00 -1.39490502E+00  3.32825080E+00
  1.69983106E+00 -3.44233226E+00  1.60579525E+00  4.16377189E+00 -1.94320270E+00
  6.60738184E+00  4.61161340E-01  1.46182565E+00  5.36046391E+00 -1.83637849E+00
 -6.49457922E-01  4.58513283E+00 -1.96023541E+00  2.61476998E+00
Num ILSW                                   I              100
ILSW                                       I   N=         100
           0           1           0           1           2           0
           0           0           0           0           0          -1
           0           0           0           0           0           0
           0           0           0           0           1           0
           1           0           0           0           0           0
           0           0      100000           0          -1           0
           0           0           0           0           0           0
           0           0           0           1           1           0
           0           0           1           0           0           0
           0           0           4          40           0           0
           0           0           0           0           0           0
           0           0           0           0           0           0
           0           0           0           0           0           0
           0           0           0           0           0           0
           0           0           0           0           0           0
           0           0           0           0           0           0
           0           0           0           0
Num RLSW                                   I               40
RLSW                                       R   N=          40
  1.00000000E+00  1.00000000E+00  1.00000000E+00  1.00000000E+00  1.00000000E+00
  0.00000000E+00  0.00000000E+00  1.00000000E+00  0.00000000E+00  0.00000000E+00
  0.00000000E+00  0.00000000E+00  1.00000000E+00  0.00000000E+00  0.00000000E+00
  0.00000000E+00  0.00000000E+00  1.00000000E+00  0.00000000E+00  0.00000000E+00
  0.00000000E+00  0.00000000E+00  1.00000000E+00  0.00000000E+00  0.00000000E+00
  0.00000000E+00  0.00000000E+00  1.00000000E+00  0.00000000E+00  0.00000000E+00
  0.00000000E+00  0.00000000E+00  0.00000000E+00  0.00000000E+00  0.00000000E+00
  0.00000000E+00  0.00000000E+00  0.00000000E+00  1.00000000E+00  1.00000000E+00
MxBond                                     I                4
NBond                                      I   N=          23
           4           1           1           4           4           4
           4           4           4           1           1           1
           1           1           1           1           1           1
           1           1           1           1           1
IBond                                      I   N=          92
           2           3           4           5           1           0
           0           0           1           0           0           0
           1           6           7          10           1           8
           9          11           4          12          13          14
           4          15          16          17           5          18
          19          20           5          21          22          23
           4           0           0           0           5           0
           0           0           6           0           0           0
           6           0           0           0           6           0
           0           0           7           0           0           0
           7           0           0           0           7           0
           0           0           8           0           0           0
           8           0           0           0           8           0
           0           0           9           0           0           0
           9           0           0           0           9           0
           0           0
RBond                                      R   N=          92
  2.00000000E+00  2.00000000E+00  1.00000000E+00  1.00000000E+00  2.00000000E+00
  0.00000000E+00  0.00000000E+00  0.00000000E+00  2.00000000E+00  0.00000000E+00
  0.00000000E+00  0.00000000E+00  1.00000000E+00  1.00000000E+00  1.00000000E+00
  1.00000000E+00  1.00000000E+00  1.00000000E+00  1.00000000E+00  1.00000000E+00
  1.00000000E+00  1.00000000E+00  1.00000000E+00  1.00000000E+00  1.00000000E+00
  1.00000000E+00  1.00000000E+00  1.00000000E+00  1.00000000E+00  1.00000000E+00
  1.00000000E+00  1.00000000E+00  1.00000000E+00  1.00000000E+00  1.00000000E+00
  1.00000000E+00  1.00000000E+00  0.00000000E+00  0.00000000E+00  0.00000000E+00
  1.00000000E+00  0.00000000E+00  0.00000000E+00  0.00000000E+00  1.00000000E+00
  0.00000000E+00  0.00000000E+00  0.00000000E+00  1.00000000E+00  0.00000000E+00
  0.00000000E+00  0.00000000E+00  1.00000000E+00  0.00000000E+00  0.00000000E+00
  0.00000000E+00  1.00000000E+00  0.00000000E+00  0.00000000E+00  0.00000000E+00
  1.00000000E+00  0.00000000E+00  0.00000000E+00  0.00000000E+00  1.00000000E+00
  0.00000000E+00  0.00000000E+00  0.00000000E+00  1.00000000E+00  0.00000000E+00
  0.00000000E+00  0.00000000E+00  1.00000000E+00  0.00000000E+00  0.00000000E+00
  0.00000000E+00  1.00000000E+00  0.00000000E+00  0.00000000E+00  0.00000000E+00
  1.00000000E+00  0.00000000E+00  0.00000000E+00  0.00000000E+00  1.00000000E+00
  0.00000000E+00  0.00000000E+00  0.00000000E+00  1.00000000E+00  0.00000000E+00
  0.00000000E+00  0.00000000E+00
Virial Ratio                               R      2.001527950272678E+00
SCF Energy                                 R     -7.825298389504831E+02
MP2 Energy                                 R     -7.838309918106324E+02
Total Energy                               R     -7.838309918106324E+02
Post-SCF wavefunction norm                 R      1.688695748142170E+00
RMS Force                                  R      2.528394485017391E-07
RMS Density                                R      1.026967084513262E-09
External E-field                           R   N=          35
  0.00000000E+00  0.00000000E+00  0.00000000E+00  0.00000000E+00  0.00000000E+00
  0.00000000E+00  0.00000000E+00  0.00000000E+00  0.00000000E+00  0.00000000E+00
  0.00000000E+00  0.00000000E+00  0.00000000E+00  0.00000000E+00  0.00000000E+00
  0.00000000E+00  0.00000000E+00  0.00000000E+00  0.00000000E+00  0.00000000E+00
  0.00000000E+00  0.00000000E+00  0.00000000E+00  0.00000000E+00  0.00000000E+00
  0.00000000E+00  0.00000000E+00  0.00000000E+00  0.00000000E+00  0.00000000E+00
  0.00000000E+00  0.00000000E+00  0.00000000E+00  0.00000000E+00  0.00000000E+00
IOpCl                                      I                0
IROHF                                      I                0
Alpha Orbital Energies                     R   N=         167
 -9.21673711E+01 -2.05408894E+01 -2.05408713E+01 -1.12818496E+01 -1.12818353E+01
 -1.12451380E+01 -1.12451357E+01 -1.12344714E+01 -1.12344694E+01 -9.14556550E+00
 -6.83082222E+00 -6.83023023E+00 -6.83010433E+00 -1.42521826E+00 -1.31408214E+00
 -1.11997996E+00 -1.09786955E+00 -9.59198495E-01 -9.57298185E-01 -9.26074046E-01
 -8.39944028E-01 -7.62580480E-01 -7.06288156E-01 -6.58115871E-01 -6.54252880E-01
 -6.44635508E-01 -6.07630415E-01 -5.90297430E-01 -5.79598122E-01 -5.77859524E-01
 -5.63310670E-01 -5.56620229E-01 -5.40595570E-01 -5.15791763E-01 -5.15686960E-01
 -5.08151503E-01 -5.05627954E-01 -4.75816722E-01 -4.63062037E-01 -4.48250659E-01
 -4.10155430E-01  1.94468061E-01  2.21625603E-01  2.30558993E-01  2.51004368E-01
  2.51105584E-01  2.69129660E-01  2.77450781E-01  2.80555443E-01  2.96958852E-01