077_CHBr3 Gaussian SP Calculation on g2-node38.bme.utexas.edu           
Freq      RMP2-FC                                                     6-31G(d)            
Number of atoms                            I                5
Info1-9                                    I   N=           9
          16          15        1002           0           0         100
           6           2           1
Charge                                     I                0
Multiplicity                               I                1
Number of electrons                        I              112
Number of alpha electrons                  I               56
Number of beta electrons                   I               56
Number of basis functions                  I              107
Number of independent functions            I              107
Number of point charges in /Mol/           I                0
Number of translation vectors              I                0
Atomic numbers                             I   N=           5
          35          35          35           6           1
Nuclear charges                            R   N=           5
  3.50000000E+01  3.50000000E+01  3.50000000E+01  6.00000000E+00  1.00000000E+00
Current cartesian coordinates              R   N=          15
 -1.73914253E+00  3.02531171E+00 -8.85346673E-02 -1.75044571E+00 -3.01878576E+00
 -8.85347148E-02  3.48958568E+00 -6.52579158E-03 -8.85354156E-02  1.59301756E-05
 -1.00522604E-06  1.03497344E+00 -5.95276812E-06  4.98345240E-07  3.08632731E+00
Force Field                                I                0
Int Atom Types                             I   N=           5
           0           0           0           0           0
MM charges                                 R   N=           5
  0.00000000E+00  0.00000000E+00  0.00000000E+00  0.00000000E+00  0.00000000E+00
Integer atomic weights                     I   N=           5
          79          79          79          12           1
Real atomic weights                        R   N=           5
  7.89183361E+01  7.89183361E+01  7.89183361E+01  1.20000000E+01  1.00782504E+00
Atom fragment info                         I   N=           5
           0           0           0           0           0
Atom residue num                           I   N=           5
           0           0           0           0           0
Nuclear spins                              I   N=           5
           3           3           3           0           1
Nuclear ZEff                               R   N=           5
 -2.45000000E+01 -2.45000000E+01 -2.45000000E+01 -3.60000000E+00 -1.00000000E+00
Nuclear QMom                               R   N=           5
  3.13000000E+01  3.13000000E+01  3.13000000E+01  0.00000000E+00  0.00000000E+00
Nuclear GFac                               R   N=           5
  2.10639900E+00  2.10639900E+00  2.10639900E+00  0.00000000E+00  2.79284600E+00
MicOpt                                     I   N=           5
          -1          -1          -1          -1          -1
Number of contracted shells                I               42
Number of primitive shells                 I              108
Pure/Cartesian d shells                    I                1
Pure/Cartesian f shells                    I                0
Highest angular momentum                   I                2
Largest degree of contraction              I                8
Shell types                                I   N=          42
           0           0           0           0           0           0
           1           1           1           1           2           2
           0           0           0           0           0           0
           1           1           1           1           2           2
           0           0           0           0           0           0
           1           1           1           1           2           2
           0          -1          -1           2           0           0
Number of primitives per shell             I   N=          42
           8           2           1           1           1           1
           6           3           1           1           5           1
           8           2           1           1           1           1
           6           3           1           1           5           1
           8           2           1           1           1           1
           6           3           1           1           5           1
           6           3           1           1           3           1
Shell to atom map                          I   N=          42
           1           1           1           1           1           1
           1           1           1           1           1           1
           2           2           2           2           2           2
           2           2           2           2           2           2
           3           3           3           3           3           3
           3           3           3           3           3           3
           4           4           4           4           5           5
Primitive exponents                        R   N=         108
  5.74300000E+05  8.90700000E+04  2.02100000E+04  5.73600000E+03  1.89900000E+03
  6.98700000E+02  2.77800000E+02  1.15200000E+02  3.59700000E+01  1.55000000E+01
  4.77100000E+00  2.07700000E+00  4.21100000E-01  1.61000000E-01  4.40600000E+03
  1.04200000E+03  3.32100000E+02  1.21900000E+02  4.92400000E+01  2.11600000E+01
  8.83600000E+00  3.82900000E+00  1.64300000E+00  4.65000000E-01  1.42700000E-01
  1.08400000E+02  3.07100000E+01  1.06600000E+01  3.85100000E+00  1.31700000E+00
  3.38000000E-01  5.74300000E+05  8.90700000E+04  2.02100000E+04  5.73600000E+03
  1.89900000E+03  6.98700000E+02  2.77800000E+02  1.15200000E+02  3.59700000E+01
  1.55000000E+01  4.77100000E+00  2.07700000E+00  4.21100000E-01  1.61000000E-01
  4.40600000E+03  1.04200000E+03  3.32100000E+02  1.21900000E+02  4.92400000E+01
  2.11600000E+01  8.83600000E+00  3.82900000E+00  1.64300000E+00  4.65000000E-01
  1.42700000E-01  1.08400000E+02  3.07100000E+01  1.06600000E+01  3.85100000E+00
  1.31700000E+00  3.38000000E-01  5.74300000E+05  8.90700000E+04  2.02100000E+04
  5.73600000E+03  1.89900000E+03  6.98700000E+02  2.77800000E+02  1.15200000E+02
  3.59700000E+01  1.55000000E+01  4.77100000E+00  2.07700000E+00  4.21100000E-01
  1.61000000E-01  4.40600000E+03  1.04200000E+03  3.32100000E+02  1.21900000E+02
  4.92400000E+01  2.11600000E+01  8.83600000E+00  3.82900000E+00  1.64300000E+00
  4.65000000E-01  1.42700000E-01  1.08400000E+02  3.07100000E+01  1.06600000E+01
  3.85100000E+00  1.31700000E+00  3.38000000E-01  3.04752488E+03  4.57369518E+02
  1.03948685E+02  2.92101553E+01  9.28666296E+00  3.16392696E+00  7.86827235E+00
  1.88128854E+00  5.44249258E-01  1.68714478E-01  8.00000000E-01  1.87311370E+01
  2.82539436E+00  6.40121692E-01  1.61277759E-01
Contraction coefficients                   R   N=         108
  2.10682753E-04  1.61271721E-03  8.36010959E-03  3.40275588E-02  1.08515001E-01
  2.67396944E-01  4.29567221E-01  2.86993117E-01  2.77772914E-01  7.47057636E-01
  1.00000000E+00  1.00000000E+00  1.00000000E+00  1.00000000E+00  1.39552623E-03
  1.23748283E-02  6.10175241E-02  2.26775547E-01  4.05975875E-01  4.50692322E-01
  2.92018585E-01  5.30220862E-01  2.75287404E-01  1.00000000E+00  1.00000000E+00
  2.15879371E-02  1.34176036E-01  3.67870647E-01  4.91895206E-01  2.68321979E-01
  1.00000000E+00  2.10682753E-04  1.61271721E-03  8.36010959E-03  3.40275588E-02
  1.08515001E-01  2.67396944E-01  4.29567221E-01  2.86993117E-01  2.77772914E-01
  7.47057636E-01  1.00000000E+00  1.00000000E+00  1.00000000E+00  1.00000000E+00
  1.39552623E-03  1.23748283E-02  6.10175241E-02  2.26775547E-01  4.05975875E-01
  4.50692322E-01  2.92018585E-01  5.30220862E-01  2.75287404E-01  1.00000000E+00
  1.00000000E+00  2.15879371E-02  1.34176036E-01  3.67870647E-01  4.91895206E-01
  2.68321979E-01  1.00000000E+00  2.10682753E-04  1.61271721E-03  8.36010959E-03
  3.40275588E-02  1.08515001E-01  2.67396944E-01  4.29567221E-01  2.86993117E-01
  2.77772914E-01  7.47057636E-01  1.00000000E+00  1.00000000E+00  1.00000000E+00
  1.00000000E+00  1.39552623E-03  1.23748283E-02  6.10175241E-02  2.26775547E-01
  4.05975875E-01  4.50692322E-01  2.92018585E-01  5.30220862E-01  2.75287404E-01
  1.00000000E+00  1.00000000E+00  2.15879371E-02  1.34176036E-01  3.67870647E-01
  4.91895206E-01  2.68321979E-01  1.00000000E+00  1.83473713E-03  1.40373228E-02
  6.88426223E-02  2.32184443E-01  4.67941348E-01  3.62311985E-01 -1.19332420E-01
 -1.60854152E-01  1.14345644E+00  1.00000000E+00  1.00000000E+00  3.34946043E-02
  2.34726953E-01  8.13757326E-01  1.00000000E+00
P(S=P) Contraction coefficients            R   N=         108
  0.00000000E+00  0.00000000E+00  0.00000000E+00  0.00000000E+00  0.00000000E+00
  0.00000000E+00  0.00000000E+00  0.00000000E+00  0.00000000E+00  0.00000000E+00
  0.00000000E+00  0.00000000E+00  0.00000000E+00  0.00000000E+00  0.00000000E+00
  0.00000000E+00  0.00000000E+00  0.00000000E+00  0.00000000E+00  0.00000000E+00
  0.00000000E+00  0.00000000E+00  0.00000000E+00  0.00000000E+00  0.00000000E+00
  0.00000000E+00  0.00000000E+00  0.00000000E+00  0.00000000E+00  0.00000000E+00
  0.00000000E+00  0.00000000E+00  0.00000000E+00  0.00000000E+00  0.00000000E+00
  0.00000000E+00  0.00000000E+00  0.00000000E+00  0.00000000E+00  0.00000000E+00
  0.00000000E+00  0.00000000E+00  0.00000000E+00  0.00000000E+00  0.00000000E+00
  0.00000000E+00  0.00000000E+00  0.00000000E+00  0.00000000E+00  0.00000000E+00
  0.00000000E+00  0.00000000E+00  0.00000000E+00  0.00000000E+00  0.00000000E+00
  0.00000000E+00  0.00000000E+00  0.00000000E+00  0.00000000E+00  0.00000000E+00
  0.00000000E+00  0.00000000E+00  0.00000000E+00  0.00000000E+00  0.00000000E+00
  0.00000000E+00  0.00000000E+00  0.00000000E+00  0.00000000E+00  0.00000000E+00
  0.00000000E+00  0.00000000E+00  0.00000000E+00  0.00000000E+00  0.00000000E+00
  0.00000000E+00  0.00000000E+00  0.00000000E+00  0.00000000E+00  0.00000000E+00
  0.00000000E+00  0.00000000E+00  0.00000000E+00  0.00000000E+00  0.00000000E+00
  0.00000000E+00  0.00000000E+00  0.00000000E+00  0.00000000E+00  0.00000000E+00
  0.00000000E+00  0.00000000E+00  0.00000000E+00  0.00000000E+00  0.00000000E+00
  0.00000000E+00  0.00000000E+00  0.00000000E+00  0.00000000E+00  6.89990666E-02
  3.16423961E-01  7.44308291E-01  1.00000000E+00  0.00000000E+00  0.00000000E+00
  0.00000000E+00  0.00000000E+00  0.00000000E+00
Coordinates of each shell                  R   N=         126
 -1.73914253E+00  3.02531171E+00 -8.85346673E-02 -1.73914253E+00  3.02531171E+00
 -8.85346673E-02 -1.73914253E+00  3.02531171E+00 -8.85346673E-02 -1.73914253E+00
  3.02531171E+00 -8.85346673E-02 -1.73914253E+00  3.02531171E+00 -8.85346673E-02
 -1.73914253E+00  3.02531171E+00 -8.85346673E-02 -1.73914253E+00  3.02531171E+00
 -8.85346673E-02 -1.73914253E+00  3.02531171E+00 -8.85346673E-02 -1.73914253E+00
  3.02531171E+00 -8.85346673E-02 -1.73914253E+00  3.02531171E+00 -8.85346673E-02
 -1.73914253E+00  3.02531171E+00 -8.85346673E-02 -1.73914253E+00  3.02531171E+00
 -8.85346673E-02 -1.75044571E+00 -3.01878576E+00 -8.85347148E-02 -1.75044571E+00
 -3.01878576E+00 -8.85347148E-02 -1.75044571E+00 -3.01878576E+00 -8.85347148E-02
 -1.75044571E+00 -3.01878576E+00 -8.85347148E-02 -1.75044571E+00 -3.01878576E+00
 -8.85347148E-02 -1.75044571E+00 -3.01878576E+00 -8.85347148E-02 -1.75044571E+00
 -3.01878576E+00 -8.85347148E-02 -1.75044571E+00 -3.01878576E+00 -8.85347148E-02
 -1.75044571E+00 -3.01878576E+00 -8.85347148E-02 -1.75044571E+00 -3.01878576E+00
 -8.85347148E-02 -1.75044571E+00 -3.01878576E+00 -8.85347148E-02 -1.75044571E+00
 -3.01878576E+00 -8.85347148E-02  3.48958568E+00 -6.52579158E-03 -8.85354156E-02
  3.48958568E+00 -6.52579158E-03 -8.85354156E-02  3.48958568E+00 -6.52579158E-03
 -8.85354156E-02  3.48958568E+00 -6.52579158E-03 -8.85354156E-02  3.48958568E+00
 -6.52579158E-03 -8.85354156E-02  3.48958568E+00 -6.52579158E-03 -8.85354156E-02
  3.48958568E+00 -6.52579158E-03 -8.85354156E-02  3.48958568E+00 -6.52579158E-03
 -8.85354156E-02  3.48958568E+00 -6.52579158E-03 -8.85354156E-02  3.48958568E+00
 -6.52579158E-03 -8.85354156E-02  3.48958568E+00 -6.52579158E-03 -8.85354156E-02
  3.48958568E+00 -6.52579158E-03 -8.85354156E-02  1.59301756E-05 -1.00522604E-06
  1.03497344E+00  1.59301756E-05 -1.00522604E-06  1.03497344E+00  1.59301756E-05
 -1.00522604E-06  1.03497344E+00  1.59301756E-05 -1.00522604E-06  1.03497344E+00
 -5.95276812E-06  4.98345240E-07  3.08632731E+00 -5.95276812E-06  4.98345240E-07
  3.08632731E+00
Constraint Structure                       R   N=          15
 -1.73914253E+00  3.02531171E+00 -8.85346673E-02 -1.75044571E+00 -3.01878576E+00
 -8.85347148E-02  3.48958568E+00 -6.52579158E-03 -8.85354156E-02  1.59301756E-05
 -1.00522604E-06  1.03497344E+00 -5.95276812E-06  4.98345240E-07  3.08632731E+00
Num ILSW                                   I              100
ILSW                                       I   N=         100
           0           1           0           0           2           0
           0           0           0           0           0          -1
           0           0           0           0           0           0
           0           0           0           0           1           0
           1           0           0           0           0           0
           0           0      100000           0          -1           0
           0           0           0           0           0           0
           0           0           0           1           1           0
           0           0           1           0           0           0
           0           0           4          40           0           0
           0           0           0           0           0           0
           0           0           0           0           0           0
           0           0           0           0           0           0
           0           0           0           0           0           0
           0           0           0           0           0           0
           0           0           0           0           0           0
           0           0           0           0
Num RLSW                                   I               40
RLSW                                       R   N=          40
  1.00000000E+00  1.00000000E+00  1.00000000E+00  1.00000000E+00  1.00000000E+00
  0.00000000E+00  0.00000000E+00  1.00000000E+00  0.00000000E+00  0.00000000E+00
  0.00000000E+00  0.00000000E+00  1.00000000E+00  0.00000000E+00  0.00000000E+00
  0.00000000E+00  0.00000000E+00  1.00000000E+00  0.00000000E+00  0.00000000E+00
  0.00000000E+00  0.00000000E+00  1.00000000E+00  0.00000000E+00  0.00000000E+00
  0.00000000E+00  0.00000000E+00  1.00000000E+00  0.00000000E+00  0.00000000E+00
  0.00000000E+00  0.00000000E+00  0.00000000E+00  0.00000000E+00  0.00000000E+00
  0.00000000E+00  0.00000000E+00  0.00000000E+00  1.00000000E+00  1.00000000E+00
MxBond                                     I                4
NBond                                      I   N=           5
           1           1           1           4           1
IBond                                      I   N=          20
           4           0           0           0           4           0
           0           0           4           0           0           0
           1           2           3           5           4           0
           0           0
RBond                                      R   N=          20
  1.00000000E+00  0.00000000E+00  0.00000000E+00  0.00000000E+00  1.00000000E+00
  0.00000000E+00  0.00000000E+00  0.00000000E+00  1.00000000E+00  0.00000000E+00
  0.00000000E+00  0.00000000E+00  1.00000000E+00  1.00000000E+00  1.00000000E+00
  1.00000000E+00  1.00000000E+00  0.00000000E+00  0.00000000E+00  0.00000000E+00
Virial Ratio                               R      2.004503214153584E+00
SCF Energy                                 R     -7.748092004629280E+03
MP2 Energy                                 R     -7.748566967895187E+03
Total Energy                               R     -7.748566967895187E+03
Post-SCF wavefunction norm                 R      1.556341163839443E+00
RMS Force                                  R      8.354796736717434E-07
RMS Density                                R      1.450428224629028E-09
External E-field                           R   N=          35
  0.00000000E+00  0.00000000E+00  0.00000000E+00  0.00000000E+00  0.00000000E+00
  0.00000000E+00  0.00000000E+00  0.00000000E+00  0.00000000E+00  0.00000000E+00
  0.00000000E+00  0.00000000E+00  0.00000000E+00  0.00000000E+00  0.00000000E+00
  0.00000000E+00  0.00000000E+00  0.00000000E+00  0.00000000E+00  0.00000000E+00
  0.00000000E+00  0.00000000E+00  0.00000000E+00  0.00000000E+00  0.00000000E+00
  0.00000000E+00  0.00000000E+00  0.00000000E+00  0.00000000E+00  0.00000000E+00
  0.00000000E+00  0.00000000E+00  0.00000000E+00  0.00000000E+00  0.00000000E+00
IOpCl                                      I                0
IROHF                                      I                0
Alpha Orbital Energies                     R   N=         107
 -4.90090653E+02 -4.90090652E+02 -4.90090500E+02 -6.45030970E+01 -6.45030962E+01
 -6.45018501E+01 -5.86418167E+01 -5.86418158E+01 -5.86417823E+01 -5.86399778E+01
 -5.86398322E+01 -5.86398315E+01 -5.86397541E+01 -5.86397534E+01 -5.86396847E+01
 -1.14202250E+01 -9.75123770E+00 -9.75123684E+00 -9.75082544E+00 -7.50085472E+00
 -7.50085371E+00 -7.50085155E+00 -7.49086573E+00 -7.49085913E+00 -7.49085832E+00
 -7.49083756E+00 -7.49083664E+00 -7.49083128E+00 -3.23986471E+00 -3.23984484E+00
 -3.23984397E+00 -3.23521086E+00 -3.23520995E+00 -3.23520066E+00 -3.23517676E+00
 -3.23517554E+00 -3.23517523E+00 -3.22357613E+00 -3.22357408E+00 -3.22357323E+00
 -3.22357109E+00 -3.22357037E+00 -3.22356734E+00 -1.14831974E+00 -1.01591451E+00
 -1.01591283E+00 -8.46995564E-01 -6.39309523E-01 -5.68970200E-01 -5.68968947E-01
 -4.51633036E-01 -4.51631977E-01 -4.28259316E-01 -4.18817607E-01 -4.18816348E-01
 -4.03740139E-01  7.48743966E-02  1.49874238E-01  1.49876018E-01  2.29253018E-01
  3.58206849E-01  4.20635706E-01  4.20636909E-01  5.34165658E-01  5.34166951E-01
  5.45697123E-01  5.60084544E-01  5.60085873E-01  5.99013919E-01  6.18600484E-01
  6.18601176E-01  6.34761380E-01  6.34762078E-01  6.44788864E-01  6.46656227E-01
  6.63560035E-01  6.74538966E-01  6.74539066E-01  6.91718302E-01  7.31618673E-01
  7.31620102E-01  8.39887298E-01  8.39888638E-01  9.30603267E-01  9.55596718E-01
  9.90113973E-01  9.90114557E-01  1.10234378E+00  1.16950008E+00  1.16950043E+00
  1.28230211E+00  1.59486494E+00  1.83688612E+00  1.83688745E+00  1.84368908E+00
  2.01140509E+00  2.01140653E+00  2.33247936E+00  2.33248150E+00  2.47510262E+00
  4.44883224E+00  9.22319830E+00  9.28673981E+00  9.28674329E+00  7.35838295E+01
  7.53055761E+01  7.53056279E+01
Alpha MO coefficients                      R   N=       11449
 -3.77892702E-01 -1.25217952E-02  1.69975038E-02  1.83219179E-02  9.84332852E-03
  8.17453743E-03 -6.71578467E-06  5.38475301E-06 -9.92472514E-07  2.19494144E-05
 -1.46487040E-05  1.53881023E-06 -1.37939391E-04  6.40255919E-05 -5.39683321E-06
  4.46600133E-04 -2.37862058E-04  5.65585473E-05 -1.69631057E-02 -1.69498612E-02
 -1.69470557E-02  9.93367208E-06  2.80839078E-06  3.32050927E-06 -4.23779081E-03
 -4.36684869E-03 -4.38743488E-03 -1.05229901E-04 -1.79663113E-05 -3.41655541E-05
 -4.29362142E-01 -1.42271795E-02  1.93122709E-02  2.08169787E-02  1.11842797E-02
  9.28642711E-03 -7.17220751E-06 -6.37106398E-06 -1.12954433E-06  2.32029870E-05
  1.76019679E-05  1.75535287E-06 -1.43519527E-04 -7.99561656E-05 -6.16337342E-06
  4.66917219E-04  2.91866688E-04  6.42516530E-05 -1.92716458E-02 -1.92595417E-02
 -1.92548963E-02 -1.01889493E-05  2.54883037E-06 -3.41971300E-06 -4.82957920E-03
 -4.94653745E-03 -4.98460574E-03  1.08468577E-04 -1.52705985E-05  3.59705924E-05
  8.14133218E-01  2.69746844E-02 -3.66121784E-02 -3.94633376E-02 -2.12129265E-02
 -1.75766024E-02 -1.73191385E-05 -9.75264190E-08  2.18208969E-06  5.11076283E-05
  3.89890932E-07 -3.47630487E-06 -2.67332200E-04 -3.12920424E-06  1.23561094E-05
  9.12444435E-04  9.41273575E-06 -1.21609508E-04  3.65308244E-02  3.65135379E-02
  3.65022021E-02  4.43107335E-07 -3.16894206E-06  1.75201790E-07  9.16599915E-03
  9.36058037E-03  9.44294399E-03 -4.43685408E-06  4.39841414E-05 -1.43175636E-06
  2.43559230E-07  8.54128634E-07 -3.38952604E-04 -1.17720888E-05  3.83770570E-07
 -4.75080331E-06  6.39263659E-04  2.22023929E-05  9.79067684E-07 -1.26542990E-05
  1.22296504E-05  2.64110609E-07  5.79520651E-07  3.52420422E-05  1.22384610E-06
  2.16664411E-07  2.12360447E-06  7.17683076E-01  2.37797357E-02 -3.22770651E-02
 -3.47911323E-02 -1.86978252E-02 -1.55052483E-02  6.15995140E-06 -1.40504873E-05
  1.90978018E-06 -1.70402820E-05  4.21048991E-05 -3.01387834E-06  7.72489527E-05
 -2.27543308E-04  1.06632681E-05 -2.79311318E-04  7.71325054E-04 -1.07276871E-04
  3.21897799E-02  3.22067081E-02  3.21805279E-02 -4.56902744E-06  3.27268438E-06
 -1.34738721E-06  8.25770134E-03  8.07761866E-03  8.32719997E-03  5.50538371E-05
 -3.43776333E-05  2.51572345E-05 -6.88476949E-01 -2.28118598E-02  3.09630469E-02
  3.33746552E-02  1.79373591E-02  1.48718776E-02 -5.70823344E-06 -1.36063161E-05
 -1.83508735E-06  1.55579478E-05  4.08892358E-05  2.90232810E-06 -6.78364339E-05
 -2.22083701E-04 -1.02795743E-05  2.48649614E-04  7.50816037E-04  1.02894865E-04
 -3.08784240E-02 -3.08962195E-02 -3.08703494E-02 -3.90207934E-06 -3.47359557E-06
 -1.08850661E-06 -7.92906170E-03 -7.74071566E-03 -7.98768025E-03  4.79555567E-05
  3.56800057E-05  2.24531681E-05 -2.99689777E-02 -9.92908097E-04  1.34755562E-03
  1.45245848E-03  7.81017722E-04  6.46196451E-04  6.32079950E-07 -3.55042721E-06
 -8.13571162E-08 -1.86070656E-06  1.32665003E-05  1.31755541E-07  9.64656606E-06
 -9.91670019E-05 -4.71991718E-07 -3.27519169E-05  3.03837115E-04  4.47083640E-06
 -1.34447559E-03 -1.34393355E-03 -1.34347691E-03  1.31267939E-05  1.24902719E-07
  4.62445230E-06 -3.37763550E-04 -3.43951389E-04 -3.47383430E-04 -1.32708880E-04
 -1.67549404E-06 -3.68658674E-05 -2.70063155E-08 -9.40095510E-08  1.17714632E-05
 -3.38954608E-04 -4.25929647E-08  5.26539824E-07 -2.22005845E-05  6.39264633E-04
 -1.08117565E-07  5.25371967E-07 -4.79161469E-07 -2.94233403E-08  1.43704200E-05
 -1.22412762E-06  3.52442963E-05 -2.41464614E-08 -2.35920437E-07  5.76239436E-01
  1.89092385E-02 -2.53349372E-02 -2.71814852E-02 -1.55223765E-02 -9.69648262E-03
  8.12065361E-06 -1.41026341E-05  5.02172068E-06 -2.51523040E-05  4.36655780E-05
 -1.52237950E-05  8.02600820E-05 -1.38958094E-04  6.64919108E-05  1.25813566E-04
 -2.20882448E-04 -6.67529708E-05  2.51472558E-02  2.51378702E-02  2.51546256E-02
  9.21953063E-06  4.09403556E-07 -7.42795905E-07  6.04707566E-03  6.17165000E-03
  5.94250034E-03 -1.22634564E-04  5.86220305E-06 -9.95328549E-06  5.75822387E-01
  1.88954200E-02 -2.53161809E-02 -2.71612682E-02 -1.55115107E-02 -9.68747378E-03
  8.16980621E-06  1.40639617E-05  5.02060948E-06 -2.53057169E-05 -4.35465794E-05
 -1.52220331E-05  8.07359280E-05  1.38523623E-04  6.64856879E-05  1.26796078E-04
  2.20861154E-04 -6.66908366E-05  2.51284907E-02  2.51192146E-02  2.51359255E-02
 -9.26232669E-06  4.10186881E-07  7.40555612E-07  6.04307122E-03  6.16616206E-03
  5.93766160E-03  1.23199783E-04  5.92009833E-06  9.94523917E-06  5.71150367E-01
  1.87406203E-02 -2.51060713E-02 -2.69347957E-02 -1.53897998E-02 -9.58654737E-03
 -1.61651237E-05  2.91768338E-08  5.00815103E-06  5.00713787E-05 -8.97059604E-08
 -1.52022779E-05 -1.58792839E-04  2.67566324E-07  6.64157371E-05 -2.59924058E-04
  5.76189160E-07 -6.59956290E-05  2.49049423E-02  2.49235739E-02  2.49264468E-02
  4.41200969E-08 -8.28397215E-07  2.91937919E-09  6.17518114E-03  5.92771379E-03
  5.88345258E-03 -5.73721314E-07 -1.18242552E-05  1.11947295E-08  6.11966536E-05
  2.15243592E-04  1.35594180E-06 -1.02811537E-07  9.64415049E-05 -1.19305296E-03
 -2.54337717E-06  1.93336669E-07  2.42178294E-04 -5.30866609E-05 -5.31865703E-05
  6.60843479E-05  4.36310150E-09 -1.42560395E-07  1.09078486E-08  5.47303198E-05
  5.35206355E-04  1.60977458E-01 -4.43207133E-01  1.03970627E-01  1.39802306E-01
  7.51646075E-02  6.45466309E-02 -1.80339093E-04  3.01788544E-04 -1.15834216E-04
  1.57278506E-04 -8.28235310E-05 -1.61338663E-06 -1.10344356E-03  5.04691263E-04
 -4.25190781E-05  3.55709452E-03 -1.86557873E-03  4.46585814E-04 -1.29234336E-01
 -1.29133961E-01 -1.29100956E-01  8.96510712E-05  1.94818834E-05  3.23375662E-05
 -3.31680852E-02 -3.42253741E-02 -3.43652594E-02 -8.34112482E-04 -1.47900240E-04
 -2.67976508E-04  1.84340375E-01 -5.07530406E-01  1.19059849E-01  1.60091831E-01
  8.60737626E-02  7.39128921E-02 -2.06831849E-04 -3.45376760E-04 -1.32646072E-04
  1.64899244E-04  1.03199969E-04 -1.84019030E-06 -1.15031466E-03 -6.40112971E-04
 -4.87232279E-05  3.72845407E-03  2.32508563E-03  5.11392289E-04 -1.47977226E-01
 -1.47888024E-01 -1.47837375E-01 -9.32063341E-05  1.67683190E-05 -3.39807167E-05
 -3.81100948E-02 -3.90638572E-02 -3.93523579E-02  8.60767159E-04 -1.25378576E-04
  2.82634366E-04 -3.45683306E-01  9.51741800E-01 -2.23262111E-01 -3.00207023E-01
 -1.61417180E-01 -1.38574496E-01 -7.54859151E-04  1.14966275E-06  2.48755222E-04
  3.22691967E-04  3.58746628E-06  3.30501240E-06 -2.12014186E-03 -2.71160724E-05
  9.20267198E-05  7.26890672E-03  8.13556019E-05 -9.58818443E-04  2.77494798E-01
  2.77315488E-01  2.77226839E-01  3.80898222E-06 -3.93362046E-05  1.52846491E-06
  7.15887155E-02  7.31225230E-02  7.37874701E-02 -3.84421343E-05  3.40088718E-04
 -1.21750165E-05  2.28596971E-07  8.97854934E-07 -2.68560904E-03 -9.98003235E-05
  3.78509827E-07 -4.53329368E-06  5.05352429E-03  1.87796838E-04  1.07730371E-06
 -1.70922657E-04  1.70348060E-04  2.29122283E-07  8.42796814E-06  3.31224020E-04
  1.23076152E-05  1.87640192E-07  2.01037909E-06 -3.05995587E-01  8.42473535E-01
 -1.97631108E-01 -2.65742027E-01 -1.42882280E-01 -1.22675605E-01  3.30308035E-04
 -5.80843646E-04  2.20189956E-04 -9.89337552E-05  2.72534735E-04  2.97519705E-06
  6.13540329E-04 -1.81211711E-03  8.12356018E-05 -2.22532679E-03  6.14651245E-03
 -8.48784849E-04  2.45480712E-01  2.45635644E-01  2.45400241E-01 -5.40188822E-05
  3.24217580E-05 -2.15326659E-05  6.47652770E-02  6.33349792E-02  6.53187758E-02
  4.27066055E-04 -2.69600833E-04  1.92453603E-04  2.92534517E-01 -8.05412090E-01
  1.88936785E-01  2.54051425E-01  1.36597333E-01  1.17276675E-01 -3.17341885E-04
 -5.54403886E-04 -2.10504570E-04  8.73769592E-05  2.64946032E-04 -2.83310677E-06
 -5.32313443E-04 -1.76536372E-03 -7.77127348E-05  1.96357298E-03  5.97496064E-03
  8.11434717E-04 -2.34674621E-01 -2.34836289E-01 -2.34604489E-01 -4.75614692E-05
 -3.39130993E-05 -1.88210560E-05 -6.19839474E-02 -6.04803752E-02 -6.24447382E-02
  3.67180295E-04  2.80944522E-04  1.69925925E-04  1.35023336E-02 -3.71748307E-02
  8.72047200E-03  1.17259251E-02  6.30512826E-03  5.41191951E-03  2.94723219E-05
 -6.75948616E-06 -9.71656003E-06 -1.24073578E-05  1.07390267E-04 -1.25292982E-07
  8.13118554E-05 -7.96407378E-04 -3.61166943E-06 -2.79100403E-04  2.43299888E-03
  3.74465051E-05 -1.08384259E-02 -1.08321289E-02 -1.08283208E-02  1.07514370E-04
  1.60592147E-06  3.72702070E-05 -2.79965786E-03 -2.85251362E-03 -2.88192606E-03
 -1.06980817E-03 -1.38254760E-05 -2.95591587E-04 -2.57594169E-08 -9.58540917E-08
  9.97992483E-05 -2.68560261E-03 -4.29979872E-08  5.08995288E-07 -1.87790032E-04
  5.05349418E-03 -1.18063240E-07  7.33096377E-06 -7.27280431E-06 -2.68463494E-08
  1.97061367E-04 -1.23101437E-05  3.31238282E-04 -2.21028191E-08 -2.30090871E-07
 -2.44790889E-01  6.72628110E-01 -1.55109273E-01 -2.09532455E-01 -1.19709403E-01
 -7.70299062E-02  2.69122785E-04 -4.68135176E-04  1.82111014E-04 -1.69355815E-04
  2.94517733E-04 -1.00095317E-04  6.21783336E-04 -1.08098245E-03  5.25330803E-04
  1.01892893E-03 -1.77448892E-03 -5.45738355E-04  1.93139884E-01  1.93078944E-01
  1.93196785E-01  6.03363633E-05  8.56596052E-06 -1.49300474E-05  4.76597120E-02
  4.86551942E-02  4.68052027E-02 -9.86099580E-04  4.46989475E-05 -7.75220388E-05
 -2.44768876E-01  6.72567503E-01 -1.55095055E-01 -2.09513338E-01 -1.19699122E-01
 -7.70210861E-02  2.70848355E-04  4.67083851E-04  1.82095461E-04 -1.70449129E-04
 -2.93862290E-04 -1.00095442E-04  6.25779366E-04  1.07851749E-03  5.25324878E-04
  1.02571217E-03  1.77110860E-03 -5.45678858E-04  1.93121832E-01  1.93061665E-01
  1.93179131E-01 -6.06015076E-05  8.61938582E-06  1.48965434E-05  4.76614529E-02
  4.86442374E-02  4.68005041E-02  9.90399665E-04  4.50081225E-05  7.73666083E-05
 -2.44520676E-01  6.71884172E-01 -1.54934793E-01 -2.09297835E-01 -1.19583295E-01
 -7.69215878E-02 -5.39392319E-04  1.00825995E-06  1.81918839E-04  3.39475994E-04
 -6.30941999E-07 -1.00096862E-04 -1.24534265E-03  2.29974677E-06  5.25256187E-04
 -2.05190218E-03  3.92680169E-06 -5.45015383E-04  1.92832056E-01  1.92953173E-01
  1.92980130E-01  2.65461688E-07 -1.71839857E-05  3.34910575E-08  4.90899305E-02
  4.71118367E-02  4.67474968E-02 -4.31071522E-06 -8.97320239E-05  1.57071716E-07
  4.70774346E-04  1.88497792E-03  1.32480125E-06 -9.91999097E-08  7.78690016E-04
 -9.29573768E-03 -2.38213329E-06  1.82415164E-07  1.96783550E-03 -5.72585753E-04
 -5.72755425E-04  4.55832851E-04  9.27354628E-09 -1.76667913E-07  1.39726851E-08
  4.05806417E-04  4.24307066E-03  9.68158838E-05 -7.03364805E-04  1.16782468E-03
  6.20126302E-04 -1.38296492E-03  6.18019915E-03  2.00852573E-01 -2.90034915E-01
  9.26993291E-02  1.28330564E-02 -1.84655903E-02  5.88419805E-03 -4.31509620E-03
  5.63304440E-03 -1.70899018E-03  3.39635971E-03 -2.62313670E-03  6.48375560E-04
 -1.16331942E-03 -9.84798818E-04 -1.02934670E-03  6.61830485E-05  9.05693330E-06
 -1.56379362E-05 -1.09622873E-03 -2.40088799E-03 -2.09738623E-03 -5.53916775E-04