6590                                                                    
Freq      RMP2-FC                                                     6-31G(d)            
Number of atoms                            I               14
Info1-9                                    I   N=           9
          26          24        1002           0           0         100
           6           2           1
Charge                                     I                0
Multiplicity                               I                1
Number of electrons                        I               48
Number of alpha electrons                  I               24
Number of beta electrons                   I               24
Number of basis functions                  I              106
Number of independent functions            I              106
Number of point charges in /Mol/           I                0
Number of translation vectors              I                0
Atomic numbers                             I   N=          14
           8           8           6           6           6           6
           1           1           1           1           1           1
           1           1
Nuclear charges                            R   N=          14
  8.00000000E+00  8.00000000E+00  6.00000000E+00  6.00000000E+00  6.00000000E+00
  6.00000000E+00  1.00000000E+00  1.00000000E+00  1.00000000E+00  1.00000000E+00
  1.00000000E+00  1.00000000E+00  1.00000000E+00  1.00000000E+00
Current cartesian coordinates              R   N=          42
 -3.14016451E+00  1.43197362E+00 -7.69690678E-01 -2.12174559E+00 -2.29222235E+00
  1.07197269E+00  1.21027007E+00  3.24740039E-01 -7.43080482E-01  2.06525853E+00
  2.55848661E+00  8.96241934E-01  2.96167860E+00 -1.94473627E+00 -4.78483893E-01
 -1.46357695E+00 -3.85735048E-01 -4.38604657E-02  1.16008569E+00  9.54272598E-01
 -2.71729139E+00  3.99015822E+00  3.10981399E+00  3.84916725E-01  2.05925520E+00
  2.02349298E+00  2.89425902E+00  8.24283292E-01  4.18811014E+00  6.45516906E-01
  3.00192769E+00 -2.59723321E+00  1.47979037E+00  4.88058763E+00 -1.42717125E+00
 -1.04535120E+00  2.33060678E+00 -3.51949079E+00 -1.65526952E+00 -4.79340521E+00
  8.33663398E-01 -1.89729586E-01
Force Field                                I                0
Int Atom Types                             I   N=          14
           0           0           0           0           0           0
           0           0           0           0           0           0
           0           0
MM charges                                 R   N=          14
  0.00000000E+00  0.00000000E+00  0.00000000E+00  0.00000000E+00  0.00000000E+00
  0.00000000E+00  0.00000000E+00  0.00000000E+00  0.00000000E+00  0.00000000E+00
  0.00000000E+00  0.00000000E+00  0.00000000E+00  0.00000000E+00
Integer atomic weights                     I   N=          14
          16          16          12          12          12          12
           1           1           1           1           1           1
           1           1
Real atomic weights                        R   N=          14
  1.59949146E+01  1.59949146E+01  1.20000000E+01  1.20000000E+01  1.20000000E+01
  1.20000000E+01  1.00782504E+00  1.00782504E+00  1.00782504E+00  1.00782504E+00
  1.00782504E+00  1.00782504E+00  1.00782504E+00  1.00782504E+00
Atom fragment info                         I   N=          14
           0           0           0           0           0           0
           0           0           0           0           0           0
           0           0
Atom residue num                           I   N=          14
           0           0           0           0           0           0
           0           0           0           0           0           0
           0           0
Nuclear spins                              I   N=          14
           0           0           0           0           0           0
           1           1           1           1           1           1
           1           1
Nuclear ZEff                               R   N=          14
 -5.60000000E+00 -5.60000000E+00 -3.60000000E+00 -3.60000000E+00 -3.60000000E+00
 -3.60000000E+00 -1.00000000E+00 -1.00000000E+00 -1.00000000E+00 -1.00000000E+00
 -1.00000000E+00 -1.00000000E+00 -1.00000000E+00 -1.00000000E+00
Nuclear QMom                               R   N=          14
  0.00000000E+00  0.00000000E+00  0.00000000E+00  0.00000000E+00  0.00000000E+00
  0.00000000E+00  0.00000000E+00  0.00000000E+00  0.00000000E+00  0.00000000E+00
  0.00000000E+00  0.00000000E+00  0.00000000E+00  0.00000000E+00
Nuclear GFac                               R   N=          14
  0.00000000E+00  0.00000000E+00  0.00000000E+00  0.00000000E+00  0.00000000E+00
  0.00000000E+00  2.79284600E+00  2.79284600E+00  2.79284600E+00  2.79284600E+00
  2.79284600E+00  2.79284600E+00  2.79284600E+00  2.79284600E+00
MicOpt                                     I   N=          14
          -1          -1          -1          -1          -1          -1
          -1          -1          -1          -1          -1          -1
          -1          -1
Number of contracted shells                I               40
Number of primitive shells                 I               98
Pure/Cartesian d shells                    I                1
Pure/Cartesian f shells                    I                0
Highest angular momentum                   I                2
Largest degree of contraction              I                6
Shell types                                I   N=          40
           0          -1          -1           2           0          -1
          -1           2           0          -1          -1           2
           0          -1          -1           2           0          -1
          -1           2           0          -1          -1           2
           0           0           0           0           0           0
           0           0           0           0           0           0
           0           0           0           0
Number of primitives per shell             I   N=          40
           6           3           1           1           6           3
           1           1           6           3           1           1
           6           3           1           1           6           3
           1           1           6           3           1           1
           3           1           3           1           3           1
           3           1           3           1           3           1
           3           1           3           1
Shell to atom map                          I   N=          40
           1           1           1           1           2           2
           2           2           3           3           3           3
           4           4           4           4           5           5
           5           5           6           6           6           6
           7           7           8           8           9           9
          10          10          11          11          12          12
          13          13          14          14
Primitive exponents                        R   N=          98
  5.48467166E+03  8.25234946E+02  1.88046958E+02  5.29645000E+01  1.68975704E+01
  5.79963534E+00  1.55396162E+01  3.59993359E+00  1.01376175E+00  2.70005823E-01
  8.00000000E-01  5.48467166E+03  8.25234946E+02  1.88046958E+02  5.29645000E+01
  1.68975704E+01  5.79963534E+00  1.55396162E+01  3.59993359E+00  1.01376175E+00
  2.70005823E-01  8.00000000E-01  3.04752488E+03  4.57369518E+02  1.03948685E+02
  2.92101553E+01  9.28666296E+00  3.16392696E+00  7.86827235E+00  1.88128854E+00
  5.44249258E-01  1.68714478E-01  8.00000000E-01  3.04752488E+03  4.57369518E+02
  1.03948685E+02  2.92101553E+01  9.28666296E+00  3.16392696E+00  7.86827235E+00
  1.88128854E+00  5.44249258E-01  1.68714478E-01  8.00000000E-01  3.04752488E+03
  4.57369518E+02  1.03948685E+02  2.92101553E+01  9.28666296E+00  3.16392696E+00
  7.86827235E+00  1.88128854E+00  5.44249258E-01  1.68714478E-01  8.00000000E-01
  3.04752488E+03  4.57369518E+02  1.03948685E+02  2.92101553E+01  9.28666296E+00
  3.16392696E+00  7.86827235E+00  1.88128854E+00  5.44249258E-01  1.68714478E-01
  8.00000000E-01  1.87311370E+01  2.82539436E+00  6.40121692E-01  1.61277759E-01
  1.87311370E+01  2.82539436E+00  6.40121692E-01  1.61277759E-01  1.87311370E+01
  2.82539436E+00  6.40121692E-01  1.61277759E-01  1.87311370E+01  2.82539436E+00
  6.40121692E-01  1.61277759E-01  1.87311370E+01  2.82539436E+00  6.40121692E-01
  1.61277759E-01  1.87311370E+01  2.82539436E+00  6.40121692E-01  1.61277759E-01
  1.87311370E+01  2.82539436E+00  6.40121692E-01  1.61277759E-01  1.87311370E+01
  2.82539436E+00  6.40121692E-01  1.61277759E-01
Contraction coefficients                   R   N=          98
  1.83107443E-03  1.39501722E-02  6.84450781E-02  2.32714336E-01  4.70192898E-01
  3.58520853E-01 -1.10777550E-01 -1.48026263E-01  1.13076702E+00  1.00000000E+00
  1.00000000E+00  1.83107443E-03  1.39501722E-02  6.84450781E-02  2.32714336E-01
  4.70192898E-01  3.58520853E-01 -1.10777550E-01 -1.48026263E-01  1.13076702E+00
  1.00000000E+00  1.00000000E+00  1.83473713E-03  1.40373228E-02  6.88426223E-02
  2.32184443E-01  4.67941348E-01  3.62311985E-01 -1.19332420E-01 -1.60854152E-01
  1.14345644E+00  1.00000000E+00  1.00000000E+00  1.83473713E-03  1.40373228E-02
  6.88426223E-02  2.32184443E-01  4.67941348E-01  3.62311985E-01 -1.19332420E-01
 -1.60854152E-01  1.14345644E+00  1.00000000E+00  1.00000000E+00  1.83473713E-03
  1.40373228E-02  6.88426223E-02  2.32184443E-01  4.67941348E-01  3.62311985E-01
 -1.19332420E-01 -1.60854152E-01  1.14345644E+00  1.00000000E+00  1.00000000E+00
  1.83473713E-03  1.40373228E-02  6.88426223E-02  2.32184443E-01  4.67941348E-01
  3.62311985E-01 -1.19332420E-01 -1.60854152E-01  1.14345644E+00  1.00000000E+00
  1.00000000E+00  3.34946043E-02  2.34726953E-01  8.13757326E-01  1.00000000E+00
  3.34946043E-02  2.34726953E-01  8.13757326E-01  1.00000000E+00  3.34946043E-02
  2.34726953E-01  8.13757326E-01  1.00000000E+00  3.34946043E-02  2.34726953E-01
  8.13757326E-01  1.00000000E+00  3.34946043E-02  2.34726953E-01  8.13757326E-01
  1.00000000E+00  3.34946043E-02  2.34726953E-01  8.13757326E-01  1.00000000E+00
  3.34946043E-02  2.34726953E-01  8.13757326E-01  1.00000000E+00  3.34946043E-02
  2.34726953E-01  8.13757326E-01  1.00000000E+00
P(S=P) Contraction coefficients            R   N=          98
  0.00000000E+00  0.00000000E+00  0.00000000E+00  0.00000000E+00  0.00000000E+00
  0.00000000E+00  7.08742682E-02  3.39752839E-01  7.27158577E-01  1.00000000E+00
  0.00000000E+00  0.00000000E+00  0.00000000E+00  0.00000000E+00  0.00000000E+00
  0.00000000E+00  0.00000000E+00  7.08742682E-02  3.39752839E-01  7.27158577E-01
  1.00000000E+00  0.00000000E+00  0.00000000E+00  0.00000000E+00  0.00000000E+00
  0.00000000E+00  0.00000000E+00  0.00000000E+00  6.89990666E-02  3.16423961E-01
  7.44308291E-01  1.00000000E+00  0.00000000E+00  0.00000000E+00  0.00000000E+00
  0.00000000E+00  0.00000000E+00  0.00000000E+00  0.00000000E+00  6.89990666E-02
  3.16423961E-01  7.44308291E-01  1.00000000E+00  0.00000000E+00  0.00000000E+00
  0.00000000E+00  0.00000000E+00  0.00000000E+00  0.00000000E+00  0.00000000E+00
  6.89990666E-02  3.16423961E-01  7.44308291E-01  1.00000000E+00  0.00000000E+00
  0.00000000E+00  0.00000000E+00  0.00000000E+00  0.00000000E+00  0.00000000E+00
  0.00000000E+00  6.89990666E-02  3.16423961E-01  7.44308291E-01  1.00000000E+00
  0.00000000E+00  0.00000000E+00  0.00000000E+00  0.00000000E+00  0.00000000E+00
  0.00000000E+00  0.00000000E+00  0.00000000E+00  0.00000000E+00  0.00000000E+00
  0.00000000E+00  0.00000000E+00  0.00000000E+00  0.00000000E+00  0.00000000E+00
  0.00000000E+00  0.00000000E+00  0.00000000E+00  0.00000000E+00  0.00000000E+00
  0.00000000E+00  0.00000000E+00  0.00000000E+00  0.00000000E+00  0.00000000E+00
  0.00000000E+00  0.00000000E+00  0.00000000E+00  0.00000000E+00  0.00000000E+00
  0.00000000E+00  0.00000000E+00  0.00000000E+00
Coordinates of each shell                  R   N=         120
 -3.14016451E+00  1.43197362E+00 -7.69690678E-01 -3.14016451E+00  1.43197362E+00
 -7.69690678E-01 -3.14016451E+00  1.43197362E+00 -7.69690678E-01 -3.14016451E+00
  1.43197362E+00 -7.69690678E-01 -2.12174559E+00 -2.29222235E+00  1.07197269E+00
 -2.12174559E+00 -2.29222235E+00  1.07197269E+00 -2.12174559E+00 -2.29222235E+00
  1.07197269E+00 -2.12174559E+00 -2.29222235E+00  1.07197269E+00  1.21027007E+00
  3.24740039E-01 -7.43080482E-01  1.21027007E+00  3.24740039E-01 -7.43080482E-01
  1.21027007E+00  3.24740039E-01 -7.43080482E-01  1.21027007E+00  3.24740039E-01
 -7.43080482E-01  2.06525853E+00  2.55848661E+00  8.96241934E-01  2.06525853E+00
  2.55848661E+00  8.96241934E-01  2.06525853E+00  2.55848661E+00  8.96241934E-01
  2.06525853E+00  2.55848661E+00  8.96241934E-01  2.96167860E+00 -1.94473627E+00
 -4.78483893E-01  2.96167860E+00 -1.94473627E+00 -4.78483893E-01  2.96167860E+00
 -1.94473627E+00 -4.78483893E-01  2.96167860E+00 -1.94473627E+00 -4.78483893E-01
 -1.46357695E+00 -3.85735048E-01 -4.38604657E-02 -1.46357695E+00 -3.85735048E-01
 -4.38604657E-02 -1.46357695E+00 -3.85735048E-01 -4.38604657E-02 -1.46357695E+00
 -3.85735048E-01 -4.38604657E-02  1.16008569E+00  9.54272598E-01 -2.71729139E+00
  1.16008569E+00  9.54272598E-01 -2.71729139E+00  3.99015822E+00  3.10981399E+00
  3.84916725E-01  3.99015822E+00  3.10981399E+00  3.84916725E-01  2.05925520E+00
  2.02349298E+00  2.89425902E+00  2.05925520E+00  2.02349298E+00  2.89425902E+00
  8.24283292E-01  4.18811014E+00  6.45516906E-01  8.24283292E-01  4.18811014E+00
  6.45516906E-01  3.00192769E+00 -2.59723321E+00  1.47979037E+00  3.00192769E+00
 -2.59723321E+00  1.47979037E+00  4.88058763E+00 -1.42717125E+00 -1.04535120E+00
  4.88058763E+00 -1.42717125E+00 -1.04535120E+00  2.33060678E+00 -3.51949079E+00
 -1.65526952E+00  2.33060678E+00 -3.51949079E+00 -1.65526952E+00 -4.79340521E+00
  8.33663398E-01 -1.89729586E-01 -4.79340521E+00  8.33663398E-01 -1.89729586E-01
Constraint Structure                       R   N=          42
 -3.14016451E+00  1.43197362E+00 -7.69690678E-01 -2.12174559E+00 -2.29222235E+00
  1.07197269E+00  1.21027007E+00  3.24740039E-01 -7.43080482E-01  2.06525853E+00
  2.55848661E+00  8.96241934E-01  2.96167860E+00 -1.94473627E+00 -4.78483893E-01
 -1.46357695E+00 -3.85735048E-01 -4.38604657E-02  1.16008569E+00  9.54272598E-01
 -2.71729139E+00  3.99015822E+00  3.10981399E+00  3.84916725E-01  2.05925520E+00
  2.02349298E+00  2.89425902E+00  8.24283292E-01  4.18811014E+00  6.45516906E-01
  3.00192769E+00 -2.59723321E+00  1.47979037E+00  4.88058763E+00 -1.42717125E+00
 -1.04535120E+00  2.33060678E+00 -3.51949079E+00 -1.65526952E+00 -4.79340521E+00
  8.33663398E-01 -1.89729586E-01
Num ILSW                                   I              100
ILSW                                       I   N=         100
           0           1           0           1           2           0
           0           0           0           0           0          -1
           0           0           0           0           0           0
           0           0           0           0           1           0
           1           0           0           0           0           0
           0           0      100000           0          -1           0
           0           0           0           0           0           0
           0           0           0           1           1           0
           0           0           1           0           0           0
           0           0           4          40           0           0
           0           0           0           0           0           0
           0           0           0           0           0           0
           0           0           0           0           0           0
           0           0           0           0           0           0
           0           0           0           0           0           0
           0           0           0           0           0           0
           0           0           0           0
Num RLSW                                   I               40
RLSW                                       R   N=          40
  1.00000000E+00  1.00000000E+00  1.00000000E+00  1.00000000E+00  1.00000000E+00
  0.00000000E+00  0.00000000E+00  1.00000000E+00  0.00000000E+00  0.00000000E+00
  0.00000000E+00  0.00000000E+00  1.00000000E+00  0.00000000E+00  0.00000000E+00
  0.00000000E+00  0.00000000E+00  1.00000000E+00  0.00000000E+00  0.00000000E+00
  0.00000000E+00  0.00000000E+00  1.00000000E+00  0.00000000E+00  0.00000000E+00
  0.00000000E+00  0.00000000E+00  1.00000000E+00  0.00000000E+00  0.00000000E+00
  0.00000000E+00  0.00000000E+00  0.00000000E+00  0.00000000E+00  0.00000000E+00
  0.00000000E+00  0.00000000E+00  0.00000000E+00  1.00000000E+00  1.00000000E+00
MxBond                                     I                4
NBond                                      I   N=          14
           2           1           4           4           4           3
           1           1           1           1           1           1
           1           1
IBond                                      I   N=          56
           6          14           0           0           6           0
           0           0           4           5           6           7
           3           8           9          10           3          11
          12          13           1           2           3           0
           3           0           0           0           4           0
           0           0           4           0           0           0
           4           0           0           0           5           0
           0           0           5           0           0           0
           5           0           0           0           1           0
           0           0
RBond                                      R   N=          56
  1.50000000E+00  1.00000000E+00  0.00000000E+00  0.00000000E+00  2.00000000E+00
  0.00000000E+00  0.00000000E+00  0.00000000E+00  1.00000000E+00  1.00000000E+00
  1.00000000E+00  1.00000000E+00  1.00000000E+00  1.00000000E+00  1.00000000E+00
  1.00000000E+00  1.00000000E+00  1.00000000E+00  1.00000000E+00  1.00000000E+00
  1.50000000E+00  2.00000000E+00  1.00000000E+00  0.00000000E+00  1.00000000E+00
  0.00000000E+00  0.00000000E+00  0.00000000E+00  1.00000000E+00  0.00000000E+00
  0.00000000E+00  0.00000000E+00  1.00000000E+00  0.00000000E+00  0.00000000E+00
  0.00000000E+00  1.00000000E+00  0.00000000E+00  0.00000000E+00  0.00000000E+00
  1.00000000E+00  0.00000000E+00  0.00000000E+00  0.00000000E+00  1.00000000E+00
  0.00000000E+00  0.00000000E+00  0.00000000E+00  1.00000000E+00  0.00000000E+00
  0.00000000E+00  0.00000000E+00  1.00000000E+00  0.00000000E+00  0.00000000E+00
  0.00000000E+00
Virial Ratio                               R      2.002567176878362E+00
SCF Energy                                 R     -3.058765239229176E+02
MP2 Energy                                 R     -3.067528937192819E+02
Total Energy                               R     -3.067528937192819E+02
Post-SCF wavefunction norm                 R      1.594897352113844E+00
RMS Force                                  R      1.023895770458736E-07
RMS Density                                R      2.518003863929806E-09
External E-field                           R   N=          35
  0.00000000E+00  0.00000000E+00  0.00000000E+00  0.00000000E+00  0.00000000E+00
  0.00000000E+00  0.00000000E+00  0.00000000E+00  0.00000000E+00  0.00000000E+00
  0.00000000E+00  0.00000000E+00  0.00000000E+00  0.00000000E+00  0.00000000E+00
  0.00000000E+00  0.00000000E+00  0.00000000E+00  0.00000000E+00  0.00000000E+00
  0.00000000E+00  0.00000000E+00  0.00000000E+00  0.00000000E+00  0.00000000E+00
  0.00000000E+00  0.00000000E+00  0.00000000E+00  0.00000000E+00  0.00000000E+00
  0.00000000E+00  0.00000000E+00  0.00000000E+00  0.00000000E+00  0.00000000E+00
IOpCl                                      I                0
IROHF                                      I                0
Alpha Orbital Energies                     R   N=         106
 -2.06183638E+01 -2.05571264E+01 -1.13879704E+01 -1.12525071E+01 -1.12315876E+01
 -1.12211054E+01 -1.45509293E+00 -1.35141594E+00 -1.09500931E+00 -9.42595694E-01
 -8.94583613E-01 -7.70791996E-01 -7.00313356E-01 -6.88011471E-01 -6.37833239E-01
 -6.07418304E-01 -5.96939194E-01 -5.58956233E-01 -5.47863978E-01 -5.23554475E-01
 -4.95889093E-01 -4.90807692E-01 -4.72747293E-01 -4.41284015E-01  1.77021783E-01
  2.22009898E-01  2.40381093E-01  2.81764716E-01  2.96540995E-01  3.03181760E-01
  3.16202059E-01  3.41586880E-01  3.46250275E-01  3.91519160E-01  4.02660400E-01
  4.44054267E-01  5.05161403E-01  5.35116982E-01  6.96666082E-01  7.20494000E-01
  7.36483781E-01  7.71667295E-01  8.01462706E-01  8.55238308E-01  9.15295355E-01
  9.24376877E-01  9.40166954E-01  9.74278242E-01  9.81971252E-01  1.03107709E+00
  1.06347470E+00  1.07778434E+00  1.11591833E+00  1.14533768E+00  1.15681913E+00
  1.17469987E+00  1.19115115E+00  1.19986196E+00  1.21471659E+00  1.23322968E+00
  1.24417930E+00  1.28291771E+00  1.32533258E+00  1.37655755E+00  1.38971940E+00
  1.50020794E+00  1.61449467E+00  1.64357562E+00  1.68826023E+00  1.76193932E+00
  1.83824965E+00  1.91423217E+00  1.96089487E+00  2.01025672E+00  2.03004251E+00
  2.04768241E+00  2.09908284E+00  2.11934437E+00  2.14726488E+00  2.22684041E+00
  2.27034512E+00  2.27936233E+00  2.30707832E+00  2.36655181E+00  2.40508041E+00
  2.43138586E+00  2.57869303E+00  2.58716947E+00  2.63534488E+00  2.66683095E+00
  2.70465421E+00  2.78165512E+00  2.84400584E+00  2.91060153E+00  2.96615960E+00
  3.01799181E+00  3.12397371E+00  3.21496278E+00  3.35209156E+00  3.46728989E+00
  4.26468940E+00  4.49907156E+00  4.63151025E+00  4.72605718E+00  4.75159541E+00
  5.03790195E+00
Alpha MO coefficients                      R   N=       11236
  9.94640119E-01  2.11815954E-02 -2.52757528E-04 -1.07517419E-03  6.21953012E-04
  3.97893482E-03  2.49200232E-04  5.30197862E-04 -3.16862514E-04 -4.15791472E-03
 -4.05256341E-03 -3.98086733E-03  2.58025476E-05  2.64556761E-05  6.61303395E-05
 -2.85440601E-04  2.11931493E-05  2.03493548E-05 -3.35523317E-05  1.84050597E-05
 -2.51019809E-04  6.19780865E-05 -8.69697721E-05  2.32940762E-05  3.48873952E-05
 -4.66747938E-05 -1.28871982E-05  3.83586181E-05 -3.01569345E-05  1.46950256E-05
 -9.85917723E-06 -4.67453053E-06 -1.13646410E-05  2.75530862E-05 -3.30667596E-06
  6.18857327E-04  1.17066151E-04 -3.28608890E-04  1.23834534E-04 -7.62649485E-05
 -2.48467297E-06 -3.06992507E-05  1.31948283E-05 -3.34810356E-07 -3.33785382E-06
 -1.14392876E-06 -1.23543362E-05 -2.42874115E-05 -1.66486037E-05  4.84824309E-06
  1.20316919E-04  7.00908627E-06  1.71261771E-04 -6.89698014E-05  1.65399393E-05
 -1.83217335E-05  3.70630972E-06  4.74926777E-06  1.68953965E-06 -4.98019327E-06
  3.97713581E-06  3.13335190E-05  1.53905833E-05 -1.60961870E-05 -8.16130851E-07
 -3.84336792E-04  1.09229284E-04 -1.20749991E-04  1.01997258E-05 -7.09532742E-06
  5.19203685E-07  6.28397458E-07  1.05999640E-05  2.14197275E-06 -2.35414194E-06
 -5.18391881E-06  3.69614578E-04 -2.08053904E-04  2.22897173E-04 -9.29590045E-05
 -1.28109124E-04 -3.70710641E-04 -2.04924570E-04  1.89716597E-04 -3.77324337E-05
 -5.10680754E-05 -5.16524461E-05  3.97683462E-05 -2.28306273E-05 -1.04488266E-05
  3.91769020E-05 -4.57579114E-05 -1.84849147E-05 -4.99114760E-05  5.79116957E-06
  4.65505399E-05  4.13594878E-05 -2.22460053E-04  1.58823081E-05 -1.26473672E-06
  8.94873901E-06  1.53034958E-05  1.28878496E-05  1.31791531E-05  4.36941148E-04
 -2.52559550E-04  2.80932472E-04 -5.27259988E-05 -1.02450173E-06  3.58006235E-05
 -2.02038949E-05  2.12744706E-04  3.85855220E-05 -7.75355043E-05  3.64580214E-05
  4.43536878E-05 -8.91570040E-05 -8.33059735E-05 -3.55368023E-05 -8.52952266E-07
  1.44199129E-05  9.94692613E-01  2.09889406E-02  4.05505508E-04  1.31047888E-03
 -7.56383367E-04  4.47077389E-03 -1.97855956E-05 -2.76710113E-05  5.43526159E-06
 -3.88803354E-03 -3.74080958E-03 -4.00331469E-03  6.91401921E-05 -7.94855830E-05
 -2.51902536E-04 -3.61346220E-06 -2.25251948E-05 -1.61996086E-06  2.33104711E-05
 -1.11571110E-05  3.63824487E-05  1.20858360E-04 -4.78519177E-05  1.98858492E-05
  3.76817409E-05 -2.58879095E-05 -2.51894936E-05 -4.73744753E-05  1.45565401E-05
  1.65523612E-05  4.53388907E-06  1.57607102E-05 -1.16732556E-05 -5.35256040E-06
  2.57827441E-07 -8.77300894E-05  6.18003776E-05  4.73687654E-05 -1.10751983E-05
  3.99843405E-06  7.07465105E-06  1.30580079E-05 -2.00682021E-07 -3.78991377E-06
 -3.59410679E-07  5.46515292E-06  2.99750730E-05 -2.00309346E-05 -1.16877564E-05
  6.13804364E-06 -1.07304139E-04  1.37941007E-04 -2.91688658E-05 -1.80315160E-05
  7.45954881E-06 -9.28693541E-06  5.28880789E-06  6.99667304E-06  4.32094013E-07
  2.49175779E-06 -6.07206760E-06  4.83835157E-04  5.81258605E-06  4.35388186E-05
 -2.82301583E-05 -3.78708867E-04  3.01654050E-04  3.48176737E-04 -2.11297643E-04
 -1.23050168E-04 -5.80688306E-04 -2.21951760E-04 -1.89613536E-04  1.15188265E-04
  3.62780628E-04  6.90552995E-06 -3.01212944E-05 -3.19039426E-06 -3.26511125E-05
  6.84936182E-06  3.17401387E-05  1.27150134E-05 -2.88214262E-06  3.26442557E-05
 -3.95113458E-05 -6.73504976E-06 -6.11732589E-05  2.44547135E-05 -4.81304192E-06
 -2.06493794E-05 -1.65977648E-05 -1.05019659E-04  5.33986853E-04  6.33998220E-06
 -1.39388146E-04  8.43354682E-05 -8.42178547E-04 -1.51606313E-05  1.42969801E-03
 -7.47564361E-04 -1.57622639E-04 -3.17252551E-04  3.00445885E-04  4.69683770E-04
 -1.47771476E-04  3.88634954E-04 -2.60719621E-04  7.17115260E-04  3.38214225E-05
  2.30307134E-04 -1.57898847E-04 -3.81076619E-03  1.67306338E-04 -1.70392653E-03
  1.03789604E-03  3.18811026E-04  9.08033260E-05  3.26649840E-04  1.06703457E-04
 -2.05150292E-05  2.29532698E-04  2.27073627E-03  2.47144050E-04  6.56916225E-06
 -1.09493646E-05  2.88946939E-05  3.07255271E-03 -2.50642663E-03 -3.91931199E-04
 -3.56844839E-04 -3.67276374E-04 -2.08671831E-04 -1.09685566E-04 -5.56707285E-05
  8.40767747E-05 -2.04388424E-05 -9.43318967E-05 -3.85547071E-04  1.68774575E-04
  6.37714581E-05 -2.89126858E-05  1.34991658E-03 -1.02107128E-03 -7.38434794E-04
  1.01692547E-04 -4.33140274E-05 -2.99635999E-05 -1.10202215E-04  6.49399738E-05
  1.23102477E-05  3.83324463E-05 -4.96728331E-05 -2.15362593E-04  8.22267073E-05
  9.58975757E-06 -2.64260612E-05  6.93130375E-04 -4.63056515E-04  2.82212336E-04
  2.94857122E-04  2.10978217E-05  1.95637510E-05 -5.93155346E-05 -2.93967414E-05
 -4.45894316E-05 -6.09600967E-06  9.95934339E-01  2.60330981E-02 -9.06233927E-04
  3.46691242E-04  2.50739458E-05 -6.60860008E-03 -3.97388440E-03 -2.64102200E-03
  1.73207797E-03 -1.14290023E-03 -7.95316030E-04 -1.78977645E-03 -4.72520398E-06
 -1.43731942E-04 -8.61110528E-04 -1.95697595E-04  4.81798189E-05  3.09278822E-05
  6.05256175E-04 -1.71341264E-04 -2.11435661E-04 -1.31538819E-04 -1.32259683E-04
 -8.01196076E-05 -1.41406362E-04  2.53563932E-06  2.88496753E-04 -6.32930921E-05
  6.93860600E-05  2.90646360E-04  9.05710918E-05 -7.90562721E-05 -4.75659344E-04
 -1.26037883E-04  6.24939724E-05 -2.72062223E-06  2.02641507E-03  6.72509766E-04
 -5.97316414E-04  1.94985446E-04 -1.06849296E-04 -1.99923950E-04 -3.28743026E-04
 -5.78331211E-05  1.81339789E-06 -8.97780033E-05  4.14118297E-06 -3.96119733E-05
 -1.21033664E-06 -2.95941036E-05 -6.24348601E-06 -3.72101438E-04 -6.28700044E-04
  2.49292146E-04  5.06074919E-06 -2.00002331E-05  1.05949299E-04 -6.38927969E-05
 -5.75619883E-05  4.39311798E-05 -1.28775922E-04  9.95850061E-01  2.90713385E-02
 -3.30833284E-04 -4.58188161E-05  2.35333433E-04 -2.13919169E-02  6.93428763E-04
  7.47077528E-04 -1.82487343E-03 -1.32554275E-03 -1.39920501E-03 -1.30971048E-03
 -5.32526139E-05  2.39625816E-05 -1.81709125E-05  1.37060307E-02  3.68290740E-04
 -6.37341091E-05 -1.54048973E-04 -8.70714052E-05  4.93338994E-03 -7.31089642E-04
 -1.83645528E-03 -9.28602785E-04 -1.82517647E-04 -2.89623568E-04 -2.79816853E-04
 -6.68165341E-05 -6.66514805E-05 -2.22788055E-04  9.62535838E-03  3.54767286E-04
 -1.47397421E-04  1.40863501E-04  2.63583913E-05  4.64706587E-03 -1.13024765E-03
  1.69592582E-03 -5.59800493E-05 -2.51868416E-04 -3.22305422E-04 -6.58980475E-05
  1.71936456E-04 -6.23627939E-05  7.47176709E-05 -2.56139134E-03  7.88887618E-05
  1.67041818E-04  2.97399342E-05  8.65526340E-08  4.47614117E-03  3.80433352E-03
 -6.27179447E-04 -4.67713740E-05 -5.44057076E-04 -2.48777617E-04 -1.64691620E-04
 -7.33804055E-05  1.56163944E-04  8.23762871E-05  3.08398694E-04  2.57973005E-03
 -1.51125667E-04 -8.76985673E-05 -2.09489806E-04 -1.65197932E-04 -1.65176274E-04
 -6.26480417E-05 -1.77524974E-04  1.78122636E-05 -1.55645542E-04 -2.21019581E-04
 -1.28129927E-04 -7.11677833E-05 -1.67756744E-05  3.91505772E-04  2.54306917E-05
  1.25822702E-04  4.91278455E-06 -3.20408172E-07 -1.94222675E-05 -7.74827328E-04
 -3.16813995E-04  4.01759676E-05 -3.38815551E-05  1.72797855E-05  1.07974026E-04
  5.43580408E-05  1.46682576E-05  7.62233327E-06 -6.49754261E-06  2.30027618E-05
  1.01085417E-04  4.33519670E-05  3.55960053E-05  1.28294229E-05 -4.09890821E-04
 -2.32078802E-04 -2.25069683E-04 -5.33119748E-05  6.77264268E-05  5.56911321E-05
  9.13987622E-05 -4.21569362E-05  5.12601322E-06 -2.06250670E-06 -1.39546416E-02
 -3.68285036E-05  6.84131458E-05  5.43648569E-05  3.20789042E-05  1.77643779E-03
  7.94275162E-04  1.75715914E-03  5.11522644E-04 -1.89422613E-04 -2.97055606E-04
 -1.61000977E-04 -8.47665244E-05 -6.75466637E-05 -1.96698485E-04  9.95674134E-01
  2.84745950E-02 -8.01186921E-05 -2.48742745E-04 -7.62319825E-05 -1.50457753E-02
  3.16991749E-04  7.93052620E-04  2.99473972E-04 -1.76096589E-03 -1.77569936E-03
 -1.79742370E-03 -2.90085207E-05 -1.94525208E-05 -4.44564887E-05 -1.17704145E-03