66606466                                                                
Freq      RMP2-FC                                                     6-31G(d)            
Number of atoms                            I               15
Info1-9                                    I   N=           9
          27          25        1002           0           0         100
           6           2           1
Charge                                     I                0
Multiplicity                               I                1
Number of electrons                        I               74
Number of alpha electrons                  I               37
Number of beta electrons                   I               37
Number of basis functions                  I              151
Number of independent functions            I              151
Number of point charges in /Mol/           I                0
Number of translation vectors              I                0
Atomic numbers                             I   N=          15
          16           8           7           7           6           6
           6           6           6           1           1           1
           1           1           1
Nuclear charges                            R   N=          15
  1.60000000E+01  8.00000000E+00  7.00000000E+00  7.00000000E+00  6.00000000E+00
  6.00000000E+00  6.00000000E+00  6.00000000E+00  6.00000000E+00  1.00000000E+00
  1.00000000E+00  1.00000000E+00  1.00000000E+00  1.00000000E+00  1.00000000E+00
Current cartesian coordinates              R   N=          45
  2.93110860E+00 -2.05443364E+00  1.13034796E-06 -2.69138298E+00 -2.95852757E+00
 -2.13928538E-06 -3.80450243E+00  1.26114469E+00 -2.94548031E-07  1.28674451E+00
  2.54719165E+00 -1.35901670E-06  5.39425128E-01  1.57563664E-01 -7.03394990E-07
 -2.14277460E+00 -6.85435416E-01 -1.04250178E-06 -6.51407111E+00  8.67030178E-01
  1.78869431E-06  5.08585385E+00  3.57957202E-01  7.31833979E-07  3.86697812E+00
  2.66108033E+00 -6.17396609E-07 -3.05900083E+00  3.02704353E+00  2.25918894E-06
 -7.37922575E+00  1.69562065E+00 -1.68411269E+00 -7.37922119E+00  1.69560676E+00
  1.68412550E+00 -6.83678040E+00 -1.16700355E+00 -6.19972240E-06  7.09872710E+00
 -5.17399685E-03  1.61270111E-06  4.80066438E+00  4.48553533E+00 -8.24009535E-07
Force Field                                I                0
Int Atom Types                             I   N=          15
           0           0           0           0           0           0
           0           0           0           0           0           0
           0           0           0
MM charges                                 R   N=          15
  0.00000000E+00  0.00000000E+00  0.00000000E+00  0.00000000E+00  0.00000000E+00
  0.00000000E+00  0.00000000E+00  0.00000000E+00  0.00000000E+00  0.00000000E+00
  0.00000000E+00  0.00000000E+00  0.00000000E+00  0.00000000E+00  0.00000000E+00
Integer atomic weights                     I   N=          15
          32          16          14          14          12          12
          12          12          12           1           1           1
           1           1           1
Real atomic weights                        R   N=          15
  3.19720718E+01  1.59949146E+01  1.40030740E+01  1.40030740E+01  1.20000000E+01
  1.20000000E+01  1.20000000E+01  1.20000000E+01  1.20000000E+01  1.00782504E+00
  1.00782504E+00  1.00782504E+00  1.00782504E+00  1.00782504E+00  1.00782504E+00
Atom fragment info                         I   N=          15
           0           0           0           0           0           0
           0           0           0           0           0           0
           0           0           0
Atom residue num                           I   N=          15
           0           0           0           0           0           0
           0           0           0           0           0           0
           0           0           0
Nuclear spins                              I   N=          15
           0           0           2           2           0           0
           0           0           0           1           1           1
           1           1           1
Nuclear ZEff                               R   N=          15
 -1.36000000E+01 -5.60000000E+00 -4.55000000E+00 -4.55000000E+00 -3.60000000E+00
 -3.60000000E+00 -3.60000000E+00 -3.60000000E+00 -3.60000000E+00 -1.00000000E+00
 -1.00000000E+00 -1.00000000E+00 -1.00000000E+00 -1.00000000E+00 -1.00000000E+00
Nuclear QMom                               R   N=          15
  0.00000000E+00  0.00000000E+00  2.04400000E+00  2.04400000E+00  0.00000000E+00
  0.00000000E+00  0.00000000E+00  0.00000000E+00  0.00000000E+00  0.00000000E+00
  0.00000000E+00  0.00000000E+00  0.00000000E+00  0.00000000E+00  0.00000000E+00
Nuclear GFac                               R   N=          15
  0.00000000E+00  0.00000000E+00  4.03761000E-01  4.03761000E-01  0.00000000E+00
  0.00000000E+00  0.00000000E+00  0.00000000E+00  0.00000000E+00  2.79284600E+00
  2.79284600E+00  2.79284600E+00  2.79284600E+00  2.79284600E+00  2.79284600E+00
MicOpt                                     I   N=          15
          -1          -1          -1          -1          -1          -1
          -1          -1          -1          -1          -1          -1
          -1          -1          -1
Number of contracted shells                I               49
Number of primitive shells                 I              129
Pure/Cartesian d shells                    I                1
Pure/Cartesian f shells                    I                0
Highest angular momentum                   I                2
Largest degree of contraction              I                6
Shell types                                I   N=          49
           0          -1          -1          -1           2           0
          -1          -1           2           0          -1          -1
           2           0          -1          -1           2           0
          -1          -1           2           0          -1          -1
           2           0          -1          -1           2           0
          -1          -1           2           0          -1          -1
           2           0           0           0           0           0
           0           0           0           0           0           0
           0
Number of primitives per shell             I   N=          49
           6           6           3           1           1           6
           3           1           1           6           3           1
           1           6           3           1           1           6
           3           1           1           6           3           1
           1           6           3           1           1           6
           3           1           1           6           3           1
           1           3           1           3           1           3
           1           3           1           3           1           3
           1
Shell to atom map                          I   N=          49
           1           1           1           1           1           2
           2           2           2           3           3           3
           3           4           4           4           4           5
           5           5           5           6           6           6
           6           7           7           7           7           8
           8           8           8           9           9           9
           9          10          10          11          11          12
          12          13          13          14          14          15
          15
Primitive exponents                        R   N=         129
  2.19171000E+04  3.30149000E+03  7.54146000E+02  2.12711000E+02  6.79896000E+01
  2.30515000E+01  4.23735000E+02  1.00710000E+02  3.21599000E+01  1.18079000E+01
  4.63110000E+00  1.87025000E+00  2.61584000E+00  9.22167000E-01  3.41287000E-01
  1.17167000E-01  6.50000000E-01  5.48467166E+03  8.25234946E+02  1.88046958E+02
  5.29645000E+01  1.68975704E+01  5.79963534E+00  1.55396162E+01  3.59993359E+00
  1.01376175E+00  2.70005823E-01  8.00000000E-01  4.17351146E+03  6.27457911E+02
  1.42902093E+02  4.02343293E+01  1.28202129E+01  4.39043701E+00  1.16263619E+01
  2.71627981E+00  7.72218397E-01  2.12031498E-01  8.00000000E-01  4.17351146E+03
  6.27457911E+02  1.42902093E+02  4.02343293E+01  1.28202129E+01  4.39043701E+00
  1.16263619E+01  2.71627981E+00  7.72218397E-01  2.12031498E-01  8.00000000E-01
  3.04752488E+03  4.57369518E+02  1.03948685E+02  2.92101553E+01  9.28666296E+00
  3.16392696E+00  7.86827235E+00  1.88128854E+00  5.44249258E-01  1.68714478E-01
  8.00000000E-01  3.04752488E+03  4.57369518E+02  1.03948685E+02  2.92101553E+01
  9.28666296E+00  3.16392696E+00  7.86827235E+00  1.88128854E+00  5.44249258E-01
  1.68714478E-01  8.00000000E-01  3.04752488E+03  4.57369518E+02  1.03948685E+02
  2.92101553E+01  9.28666296E+00  3.16392696E+00  7.86827235E+00  1.88128854E+00
  5.44249258E-01  1.68714478E-01  8.00000000E-01  3.04752488E+03  4.57369518E+02
  1.03948685E+02  2.92101553E+01  9.28666296E+00  3.16392696E+00  7.86827235E+00
  1.88128854E+00  5.44249258E-01  1.68714478E-01  8.00000000E-01  3.04752488E+03
  4.57369518E+02  1.03948685E+02  2.92101553E+01  9.28666296E+00  3.16392696E+00
  7.86827235E+00  1.88128854E+00  5.44249258E-01  1.68714478E-01  8.00000000E-01
  1.87311370E+01  2.82539436E+00  6.40121692E-01  1.61277759E-01  1.87311370E+01
  2.82539436E+00  6.40121692E-01  1.61277759E-01  1.87311370E+01  2.82539436E+00
  6.40121692E-01  1.61277759E-01  1.87311370E+01  2.82539436E+00  6.40121692E-01
  1.61277759E-01  1.87311370E+01  2.82539436E+00  6.40121692E-01  1.61277759E-01
  1.87311370E+01  2.82539436E+00  6.40121692E-01  1.61277759E-01
Contraction coefficients                   R   N=         129
  1.86924085E-03  1.42303065E-02  6.96962317E-02  2.38487108E-01  4.83307220E-01
  3.38074154E-01 -2.37677050E-03 -3.16930067E-02 -1.13317024E-01  5.60900118E-02
  5.92255124E-01  4.55006095E-01 -2.50373114E-01  6.69567631E-02  1.05450627E+00
  1.00000000E+00  1.00000000E+00  1.83107443E-03  1.39501722E-02  6.84450781E-02
  2.32714336E-01  4.70192898E-01  3.58520853E-01 -1.10777550E-01 -1.48026263E-01
  1.13076702E+00  1.00000000E+00  1.00000000E+00  1.83477216E-03  1.39946270E-02
  6.85865518E-02  2.32240873E-01  4.69069948E-01  3.60455199E-01 -1.14961182E-01
 -1.69117479E-01  1.14585195E+00  1.00000000E+00  1.00000000E+00  1.83477216E-03
  1.39946270E-02  6.85865518E-02  2.32240873E-01  4.69069948E-01  3.60455199E-01
 -1.14961182E-01 -1.69117479E-01  1.14585195E+00  1.00000000E+00  1.00000000E+00
  1.83473713E-03  1.40373228E-02  6.88426223E-02  2.32184443E-01  4.67941348E-01
  3.62311985E-01 -1.19332420E-01 -1.60854152E-01  1.14345644E+00  1.00000000E+00
  1.00000000E+00  1.83473713E-03  1.40373228E-02  6.88426223E-02  2.32184443E-01
  4.67941348E-01  3.62311985E-01 -1.19332420E-01 -1.60854152E-01  1.14345644E+00
  1.00000000E+00  1.00000000E+00  1.83473713E-03  1.40373228E-02  6.88426223E-02
  2.32184443E-01  4.67941348E-01  3.62311985E-01 -1.19332420E-01 -1.60854152E-01
  1.14345644E+00  1.00000000E+00  1.00000000E+00  1.83473713E-03  1.40373228E-02
  6.88426223E-02  2.32184443E-01  4.67941348E-01  3.62311985E-01 -1.19332420E-01
 -1.60854152E-01  1.14345644E+00  1.00000000E+00  1.00000000E+00  1.83473713E-03
  1.40373228E-02  6.88426223E-02  2.32184443E-01  4.67941348E-01  3.62311985E-01
 -1.19332420E-01 -1.60854152E-01  1.14345644E+00  1.00000000E+00  1.00000000E+00
  3.34946043E-02  2.34726953E-01  8.13757326E-01  1.00000000E+00  3.34946043E-02
  2.34726953E-01  8.13757326E-01  1.00000000E+00  3.34946043E-02  2.34726953E-01
  8.13757326E-01  1.00000000E+00  3.34946043E-02  2.34726953E-01  8.13757326E-01
  1.00000000E+00  3.34946043E-02  2.34726953E-01  8.13757326E-01  1.00000000E+00
  3.34946043E-02  2.34726953E-01  8.13757326E-01  1.00000000E+00
P(S=P) Contraction coefficients            R   N=         129
  0.00000000E+00  0.00000000E+00  0.00000000E+00  0.00000000E+00  0.00000000E+00
  0.00000000E+00  4.06100998E-03  3.06812999E-02  1.30451999E-01  3.27204999E-01
  4.52850998E-01  2.56041999E-01 -1.45104895E-02  3.10262776E-01  7.54482456E-01
  1.00000000E+00  0.00000000E+00  0.00000000E+00  0.00000000E+00  0.00000000E+00
  0.00000000E+00  0.00000000E+00  0.00000000E+00  7.08742682E-02  3.39752839E-01
  7.27158577E-01  1.00000000E+00  0.00000000E+00  0.00000000E+00  0.00000000E+00
  0.00000000E+00  0.00000000E+00  0.00000000E+00  0.00000000E+00  6.75797439E-02
  3.23907296E-01  7.40895140E-01  1.00000000E+00  0.00000000E+00  0.00000000E+00
  0.00000000E+00  0.00000000E+00  0.00000000E+00  0.00000000E+00  0.00000000E+00
  6.75797439E-02  3.23907296E-01  7.40895140E-01  1.00000000E+00  0.00000000E+00
  0.00000000E+00  0.00000000E+00  0.00000000E+00  0.00000000E+00  0.00000000E+00
  0.00000000E+00  6.89990666E-02  3.16423961E-01  7.44308291E-01  1.00000000E+00
  0.00000000E+00  0.00000000E+00  0.00000000E+00  0.00000000E+00  0.00000000E+00
  0.00000000E+00  0.00000000E+00  6.89990666E-02  3.16423961E-01  7.44308291E-01
  1.00000000E+00  0.00000000E+00  0.00000000E+00  0.00000000E+00  0.00000000E+00
  0.00000000E+00  0.00000000E+00  0.00000000E+00  6.89990666E-02  3.16423961E-01
  7.44308291E-01  1.00000000E+00  0.00000000E+00  0.00000000E+00  0.00000000E+00
  0.00000000E+00  0.00000000E+00  0.00000000E+00  0.00000000E+00  6.89990666E-02
  3.16423961E-01  7.44308291E-01  1.00000000E+00  0.00000000E+00  0.00000000E+00
  0.00000000E+00  0.00000000E+00  0.00000000E+00  0.00000000E+00  0.00000000E+00
  6.89990666E-02  3.16423961E-01  7.44308291E-01  1.00000000E+00  0.00000000E+00
  0.00000000E+00  0.00000000E+00  0.00000000E+00  0.00000000E+00  0.00000000E+00
  0.00000000E+00  0.00000000E+00  0.00000000E+00  0.00000000E+00  0.00000000E+00
  0.00000000E+00  0.00000000E+00  0.00000000E+00  0.00000000E+00  0.00000000E+00
  0.00000000E+00  0.00000000E+00  0.00000000E+00  0.00000000E+00  0.00000000E+00
  0.00000000E+00  0.00000000E+00  0.00000000E+00  0.00000000E+00
Coordinates of each shell                  R   N=         147
  2.93110860E+00 -2.05443364E+00  1.13034796E-06  2.93110860E+00 -2.05443364E+00
  1.13034796E-06  2.93110860E+00 -2.05443364E+00  1.13034796E-06  2.93110860E+00
 -2.05443364E+00  1.13034796E-06  2.93110860E+00 -2.05443364E+00  1.13034796E-06
 -2.69138298E+00 -2.95852757E+00 -2.13928538E-06 -2.69138298E+00 -2.95852757E+00
 -2.13928538E-06 -2.69138298E+00 -2.95852757E+00 -2.13928538E-06 -2.69138298E+00
 -2.95852757E+00 -2.13928538E-06 -3.80450243E+00  1.26114469E+00 -2.94548031E-07
 -3.80450243E+00  1.26114469E+00 -2.94548031E-07 -3.80450243E+00  1.26114469E+00
 -2.94548031E-07 -3.80450243E+00  1.26114469E+00 -2.94548031E-07  1.28674451E+00
  2.54719165E+00 -1.35901670E-06  1.28674451E+00  2.54719165E+00 -1.35901670E-06
  1.28674451E+00  2.54719165E+00 -1.35901670E-06  1.28674451E+00  2.54719165E+00
 -1.35901670E-06  5.39425128E-01  1.57563664E-01 -7.03394990E-07  5.39425128E-01
  1.57563664E-01 -7.03394990E-07  5.39425128E-01  1.57563664E-01 -7.03394990E-07
  5.39425128E-01  1.57563664E-01 -7.03394990E-07 -2.14277460E+00 -6.85435416E-01
 -1.04250178E-06 -2.14277460E+00 -6.85435416E-01 -1.04250178E-06 -2.14277460E+00
 -6.85435416E-01 -1.04250178E-06 -2.14277460E+00 -6.85435416E-01 -1.04250178E-06
 -6.51407111E+00  8.67030178E-01  1.78869431E-06 -6.51407111E+00  8.67030178E-01
  1.78869431E-06 -6.51407111E+00  8.67030178E-01  1.78869431E-06 -6.51407111E+00
  8.67030178E-01  1.78869431E-06  5.08585385E+00  3.57957202E-01  7.31833979E-07
  5.08585385E+00  3.57957202E-01  7.31833979E-07  5.08585385E+00  3.57957202E-01
  7.31833979E-07  5.08585385E+00  3.57957202E-01  7.31833979E-07  3.86697812E+00
  2.66108033E+00 -6.17396609E-07  3.86697812E+00  2.66108033E+00 -6.17396609E-07
  3.86697812E+00  2.66108033E+00 -6.17396609E-07  3.86697812E+00  2.66108033E+00
 -6.17396609E-07 -3.05900083E+00  3.02704353E+00  2.25918894E-06 -3.05900083E+00
  3.02704353E+00  2.25918894E-06 -7.37922575E+00  1.69562065E+00 -1.68411269E+00
 -7.37922575E+00  1.69562065E+00 -1.68411269E+00 -7.37922119E+00  1.69560676E+00
  1.68412550E+00 -7.37922119E+00  1.69560676E+00  1.68412550E+00 -6.83678040E+00
 -1.16700355E+00 -6.19972240E-06 -6.83678040E+00 -1.16700355E+00 -6.19972240E-06
  7.09872710E+00 -5.17399685E-03  1.61270111E-06  7.09872710E+00 -5.17399685E-03
  1.61270111E-06  4.80066438E+00  4.48553533E+00 -8.24009535E-07  4.80066438E+00
  4.48553533E+00 -8.24009535E-07
Constraint Structure                       R   N=          45
  2.93110860E+00 -2.05443364E+00  1.13034796E-06 -2.69138298E+00 -2.95852757E+00
 -2.13928538E-06 -3.80450243E+00  1.26114469E+00 -2.94548031E-07  1.28674451E+00
  2.54719165E+00 -1.35901670E-06  5.39425128E-01  1.57563664E-01 -7.03394990E-07
 -2.14277460E+00 -6.85435416E-01 -1.04250178E-06 -6.51407111E+00  8.67030178E-01
  1.78869431E-06  5.08585385E+00  3.57957202E-01  7.31833979E-07  3.86697812E+00
  2.66108033E+00 -6.17396609E-07 -3.05900083E+00  3.02704353E+00  2.25918894E-06
 -7.37922575E+00  1.69562065E+00 -1.68411269E+00 -7.37922119E+00  1.69560676E+00
  1.68412550E+00 -6.83678040E+00 -1.16700355E+00 -6.19972240E-06  7.09872710E+00
 -5.17399685E-03  1.61270111E-06  4.80066438E+00  4.48553533E+00 -8.24009535E-07
Num ILSW                                   I              100
ILSW                                       I   N=         100
           0           1           0           0           2           0
           0           0           0           0           0          -1
           0           0           0           0           0           0
           0           0           0           0           1           0
           1           0           0           0           0           0
           0           0      100000           0          -1           0
           0           0           0           0           0           0
           0           0           0           1           1           0
           0           0           1           0           0           0
           0           0           4          40           0           0
           0           0           0           0           0           0
           0           0           0           0           0           0
           0           0           0           0           0           0
           0           0           0           0           0           0
           0           0           0           0           0           0
           0           0           0           0           0           0
           0           0           0           0
Num RLSW                                   I               40
RLSW                                       R   N=          40
  1.00000000E+00  1.00000000E+00  1.00000000E+00  1.00000000E+00  1.00000000E+00
  0.00000000E+00  0.00000000E+00  1.00000000E+00  0.00000000E+00  0.00000000E+00
  0.00000000E+00  0.00000000E+00  1.00000000E+00  0.00000000E+00  0.00000000E+00
  0.00000000E+00  0.00000000E+00  1.00000000E+00  0.00000000E+00  0.00000000E+00
  0.00000000E+00  0.00000000E+00  1.00000000E+00  0.00000000E+00  0.00000000E+00
  0.00000000E+00  0.00000000E+00  1.00000000E+00  0.00000000E+00  0.00000000E+00
  0.00000000E+00  0.00000000E+00  0.00000000E+00  0.00000000E+00  0.00000000E+00
  0.00000000E+00  0.00000000E+00  0.00000000E+00  1.00000000E+00  1.00000000E+00
MxBond                                     I                4
NBond                                      I   N=          15
           2           1           3           2           3           3
           4           3           3           1           1           1
           1           1           1
IBond                                      I   N=          60
           5           8           0           0           6           0
           0           0           6           7          10           0
           5           9           0           0           1           4
           6           0           2           3           5           0
           3          11          12          13           1           9
          14           0           4           8          15           0
           3           0           0           0           7           0
           0           0           7           0           0           0
           7           0           0           0           8           0
           0           0           9           0           0           0
RBond                                      R   N=          60
  1.00000000E+00  1.00000000E+00  0.00000000E+00  0.00000000E+00  2.00000000E+00
  0.00000000E+00  0.00000000E+00  0.00000000E+00  1.00000000E+00  1.00000000E+00
  1.00000000E+00  0.00000000E+00  1.50000000E+00  1.00000000E+00  0.00000000E+00
  0.00000000E+00  1.00000000E+00  1.50000000E+00  1.00000000E+00  0.00000000E+00
  2.00000000E+00  1.00000000E+00  1.00000000E+00  0.00000000E+00  1.00000000E+00
  1.00000000E+00  1.00000000E+00  1.00000000E+00  1.00000000E+00  1.50000000E+00
  1.00000000E+00  0.00000000E+00  1.00000000E+00  1.50000000E+00  1.00000000E+00
  0.00000000E+00  1.00000000E+00  0.00000000E+00  0.00000000E+00  0.00000000E+00
  1.00000000E+00  0.00000000E+00  0.00000000E+00  0.00000000E+00  1.00000000E+00
  0.00000000E+00  0.00000000E+00  0.00000000E+00  1.00000000E+00  0.00000000E+00
  0.00000000E+00  0.00000000E+00  1.00000000E+00  0.00000000E+00  0.00000000E+00
  0.00000000E+00  1.00000000E+00  0.00000000E+00  0.00000000E+00  0.00000000E+00
Virial Ratio                               R      2.001617895340013E+00
SCF Energy                                 R     -7.741035144793777E+02
MP2 Energy                                 R     -7.753754461489043E+02
Total Energy                               R     -7.753754461489043E+02
Post-SCF wavefunction norm                 R      1.700667004309202E+00
RMS Force                                  R      6.084545147384154E-08
RMS Density                                R      2.533095035368893E-09
External E-field                           R   N=          35
  0.00000000E+00  0.00000000E+00  0.00000000E+00  0.00000000E+00  0.00000000E+00
  0.00000000E+00  0.00000000E+00  0.00000000E+00  0.00000000E+00  0.00000000E+00
  0.00000000E+00  0.00000000E+00  0.00000000E+00  0.00000000E+00  0.00000000E+00
  0.00000000E+00  0.00000000E+00  0.00000000E+00  0.00000000E+00  0.00000000E+00
  0.00000000E+00  0.00000000E+00  0.00000000E+00  0.00000000E+00  0.00000000E+00
  0.00000000E+00  0.00000000E+00  0.00000000E+00  0.00000000E+00  0.00000000E+00
  0.00000000E+00  0.00000000E+00  0.00000000E+00  0.00000000E+00  0.00000000E+00
IOpCl                                      I                0
IROHF                                      I                0
Alpha Orbital Energies                     R   N=         151
 -9.19988310E+01 -2.05338100E+01 -1.56006733E+01 -1.55953343E+01 -1.13701644E+01
 -1.13236682E+01 -1.12851157E+01 -1.12833492E+01 -1.12628378E+01 -9.00877657E+00
 -6.69094529E+00 -6.69011682E+00 -6.68870417E+00 -1.38036820E+00 -1.29532970E+00
 -1.23409489E+00 -1.08120960E+00 -1.03439380E+00 -9.57910225E-01 -8.45676236E-01
 -8.03173860E-01 -7.74057524E-01 -7.16699835E-01 -6.51962728E-01 -6.47235714E-01
 -6.29550800E-01 -5.95182563E-01 -5.80692562E-01 -5.66134590E-01 -5.50218060E-01
 -5.27190580E-01 -5.15752320E-01 -4.62161048E-01 -4.30309710E-01 -4.03007659E-01
 -3.87236318E-01 -3.45793246E-01  7.18692241E-02  1.78451716E-01  1.84736192E-01
  2.44387155E-01  2.51007663E-01  2.63304443E-01  2.75868771E-01  2.85449688E-01
  3.03391690E-01  3.20920955E-01  3.21171653E-01  3.59906514E-01  3.83713500E-01
  3.94216634E-01  4.26044107E-01  5.19757408E-01  5.22301870E-01  5.25012762E-01
  5.61274373E-01  5.74123283E-01  6.26410371E-01  7.03815390E-01  7.26386927E-01
  7.37320976E-01  7.53513522E-01  7.63247240E-01  7.75303464E-01  7.87976005E-01
  8.15451295E-01  8.40820788E-01  8.66268622E-01  9.01587630E-01  9.08026279E-01
  9.23933830E-01  9.67051312E-01  9.79072733E-01  9.86200174E-01  1.01915680E+00
  1.04082729E+00  1.05179770E+00  1.07092149E+00  1.07861133E+00  1.10927388E+00
  1.11388770E+00  1.12287776E+00  1.15446755E+00  1.16544228E+00  1.16953116E+00
  1.20262456E+00  1.22049033E+00  1.25606950E+00  1.27500599E+00  1.28950916E+00
  1.31201693E+00  1.32864533E+00  1.34669315E+00  1.40542303E+00  1.43810618E+00
  1.49079014E+00  1.53318110E+00  1.57107167E+00  1.58858970E+00  1.62896848E+00
  1.63140099E+00  1.64891498E+00  1.72115609E+00  1.72208598E+00  1.81055698E+00
  1.83428948E+00  1.88635118E+00  1.93555048E+00  2.05945590E+00  2.06249245E+00
  2.11694829E+00  2.11881646E+00  2.18285144E+00  2.21998846E+00  2.24359509E+00
  2.26303465E+00  2.29481695E+00  2.33665384E+00  2.37263385E+00  2.38835692E+00
  2.44804936E+00  2.47030546E+00  2.52916642E+00  2.58010133E+00  2.59398840E+00
  2.59848398E+00  2.61785661E+00  2.64259181E+00  2.74802957E+00  2.76614982E+00
  2.79781069E+00  2.84314651E+00  2.85356964E+00  2.97335004E+00  3.00825473E+00
  3.00877618E+00  3.06678877E+00  3.19923986E+00  3.31118869E+00  3.32695042E+00
  3.47793175E+00  3.55202246E+00  4.33595318E+00  4.35641375E+00  4.42964380E+00
  4.52683028E+00  4.54493200E+00  4.66276434E+00  4.73685616E+00  4.79402470E+00
  4.99338674E+00
Alpha MO coefficients                      R   N=       22801
  9.96254317E-01  1.42470687E-02 -1.81987190E-05  9.39743483E-05 -5.11034225E-11
 -2.00357831E-02  9.23157666E-05 -1.90541928E-04  1.29106639E-10  2.15501487E-03
  2.75806279E-05 -1.17945644E-05  5.77883928E-11  6.86918860E-03  6.89214944E-03
  6.90340637E-03 -4.16225495E-06 -2.42091187E-11  1.85784823E-11 -2.42399919E-05
 -1.06388020E-04  1.00545864E-05 -1.46948792E-05 -2.57462865E-11  8.48651618E-04
  3.01466035E-05  2.40531931E-04  2.14488753E-10 -9.36134751E-05 -4.32924938E-05
 -5.61201069E-05  1.68353224E-05 -3.72735514E-12  2.98068275E-11  8.17192409E-06
  3.49371042E-05 -1.54808583E-05 -1.43853916E-06 -7.40920753E-12 -6.22345272E-04
 -1.10264952E-04  1.23084207E-04  9.02485765E-11  4.95136362E-06  2.97892349E-05
  6.61538927E-06  2.09069807E-06  2.25475388E-11 -8.73756144E-12 -4.27237555E-05
 -1.74808987E-04 -3.14123588E-06  3.27439257E-05 -1.17468419E-11  1.69099004E-03
 -4.24763732E-05 -5.59225339E-04  2.02801616E-10 -5.34800722E-05 -7.25294298E-05
 -1.18099594E-04  2.84344528E-05  1.45040730E-11 -1.71796677E-11  1.21377432E-05
  1.13195616E-04  8.29267436E-06 -2.17919390E-05  2.54490047E-11 -8.55605643E-04
  1.96493953E-04 -1.19428363E-03  3.69881924E-10 -1.73129991E-05 -5.09436239E-05
  4.25588850E-06  5.60853076E-05 -8.07469322E-12  4.11355690E-11 -8.59306766E-06
 -2.08078792E-05  4.80644739E-06  6.43130090E-06  2.21063782E-11 -3.62993138E-05
 -1.80377802E-04  1.07443545E-03  7.25620753E-11 -3.87195480E-05 -1.58931978E-05
 -1.39544989E-05  9.99842049E-06 -4.96880034E-11 -1.95403034E-11 -4.33215137E-07
 -9.31100253E-06  1.32671309E-05  9.58225884E-07 -1.96519869E-11  5.89600236E-05
  2.42772857E-05 -1.50217788E-05  2.77170574E-11  1.11124422E-05  8.15341714E-07
  3.08794127E-07 -2.40477927E-06 -1.86738346E-11  1.42918444E-11  5.33092949E-06
  6.82438086E-05 -2.98849984E-05 -2.34679185E-05  1.92333051E-12  6.04012399E-04
 -5.52005318E-04  1.38739019E-04 -2.46400110E-10 -2.06774987E-05 -1.58617644E-05
 -2.66287868E-05 -6.98639559E-05  3.01805957E-11 -2.70808432E-11  9.65079651E-06
  3.02870378E-05  9.22129774E-07  1.53799799E-05 -1.42056510E-11 -8.44000276E-04
  2.96788205E-04  6.53882610E-04 -1.38494735E-10  5.48346780E-06 -1.40683006E-06
  1.74640778E-05  1.66925542E-05 -1.10573922E-11  1.59508018E-11  5.04614385E-06
  1.81424673E-05 -1.94998747E-06 -4.61897653E-06 -1.95000698E-06 -4.61908051E-06
 -3.57205642E-06 -8.13026524E-06  1.96872420E-05  1.03433343E-04 -4.28524140E-05
 -2.10197302E-04  1.89012163E-07  1.99748809E-06  7.06644480E-07  4.71440953E-06
  1.02226643E-13  1.33272213E-05 -9.29447550E-06 -2.64105197E-05 -6.79678730E-12
 -2.64704168E-05  1.61831337E-04  5.66366662E-05  8.39316844E-11 -7.49045469E-06
  2.17984582E-06  5.81877766E-06  2.04474272E-05 -2.30551929E-11  1.39361820E-11
  9.94695560E-01  2.09652196E-02  3.56122503E-04  1.50365153E-03  7.13183843E-10
  4.41033520E-03 -2.98519148E-05 -1.07956406E-04 -2.26425560E-11 -3.88114547E-03
 -3.68578786E-03 -4.09078999E-03  6.94576934E-05 -7.46205799E-12  2.42885632E-10
 -2.42335225E-06 -1.99899673E-05  1.40558009E-05  1.98827854E-05 -9.47682841E-14
 -1.37048019E-05 -6.88728436E-06 -2.58646064E-05  1.42874168E-10  1.13968971E-04
 -7.26708816E-05 -3.68509330E-05 -3.80097260E-05 -5.38896639E-11 -3.14743366E-11
 -1.06909956E-06 -1.38190446E-07 -1.08133935E-05 -1.88629991E-05  1.36797749E-11
  1.25032556E-04  2.73418854E-05 -5.86081391E-05  7.42830924E-12 -1.45101230E-05
  2.99081353E-05 -1.21332989E-06 -5.97964827E-06  2.62723132E-12 -1.62383300E-11
 -3.32239223E-06  1.81706060E-06  1.16428029E-05  2.85999806E-05  1.34516876E-11
 -1.00491126E-04  3.66200768E-05 -1.60940095E-04  5.71273100E-11  4.95617022E-06
 -5.92975832E-05 -2.19260406E-05 -7.49499917E-05 -1.87204781E-11 -1.34378106E-11
 -3.32719819E-06  5.28599800E-04 -6.89153957E-08 -9.56621089E-06  7.29973795E-13
 -3.11171467E-04  1.54615457E-04  4.49454254E-04  1.26798176E-10 -7.60220701E-05
 -7.34502346E-04 -5.07254701E-05 -1.61748822E-04 -6.03530510E-11 -3.87410047E-10
 -6.50614311E-06 -9.88737730E-06 -1.78529448E-05 -4.54883448E-06  1.21338051E-10
  1.57509034E-04 -3.87205821E-05 -5.10030411E-05 -5.87591844E-10 -4.99280314E-05
 -1.30928964E-05 -7.71146543E-06 -1.40974858E-05  6.69957066E-11 -1.02991295E-11
  3.17055748E-06  1.04472896E-05 -7.98508775E-07 -8.17050859E-06  9.23781491E-12
 -4.58616661E-05 -1.15718030E-05  1.09935806E-04 -8.08162714E-11  3.58055264E-06
  8.52487977E-06  7.14724076E-06 -5.92767256E-06  3.24967872E-12 -2.47115998E-12