
    -----------------------------------------------------------------------
          Psi4: An Open-Source Ab Initio Electronic Structure Package
                               Psi4 1.3.2 release

                         Git: Rev {HEAD} ecbda83 


    R. M. Parrish, L. A. Burns, D. G. A. Smith, A. C. Simmonett,
    A. E. DePrince III, E. G. Hohenstein, U. Bozkaya, A. Yu. Sokolov,
    R. Di Remigio, R. M. Richard, J. F. Gonthier, A. M. James,
    H. R. McAlexander, A. Kumar, M. Saitow, X. Wang, B. P. Pritchard,
    P. Verma, H. F. Schaefer III, K. Patkowski, R. A. King, E. F. Valeev,
    F. A. Evangelista, J. M. Turney, T. D. Crawford, and C. D. Sherrill,
    J. Chem. Theory Comput. 13(7) pp 3185--3197 (2017).
    (doi: 10.1021/acs.jctc.7b00174)


                         Additional Contributions by
    P. Kraus, H. Kruse, M. H. Lechner, M. C. Schieber, R. A. Shaw,
    A. Alenaizan, R. Galvelis, Z. L. Glick, S. Lehtola, and J. P. Misiewicz

    -----------------------------------------------------------------------


    Psi4 started on: Monday, 09 November 2020 06:35PM

    Process ID: 2962
    Host:       node37.bme.utexas.edu
    PSIDATADIR: /home/xy3866/psi4conda/share/psi4
    Memory:     500.0 MiB
    Threads:    8
    
  ==> Input File <==

--------------------------------------------------------------------------
#psi4
#
memory 32 gb

molecule  {
0 1
  O       -1.4697740     2.5644010     0.0803940
  N        1.9191590    -0.5831280    -0.0556370
  N       -1.9102790     0.3061000     0.0485010
  N       -0.3427170    -1.4672350    -0.0387560
  N        1.5166440     1.6409000    -0.0105650
  N       -2.6294290    -1.9169300     0.1110730
  C        0.5576980    -0.4369160    -0.0295360
  C        0.3330702     0.9404756    -0.0593948
  C       -1.0221650     1.4237120     0.0351730
  C        2.4390620     0.6894910    -0.0699270
  C       -1.5730580    -1.0260450     0.0187980
  C        2.6353690    -1.8453210    -0.0655260
  H        3.5092610     0.8590810    -0.0866130
  H        2.3729340    -2.4304260     0.8177420
  H        2.3794720    -2.4140780    -0.9605130
  H        3.7041390    -1.6305860    -0.0592400
  H       -2.8879820     0.5691470     0.1693100
  H       -2.3258040    -2.8676930    -0.0642460
  H       -3.4596940    -1.6726380    -0.4173570
units angstrom
no_reorient  #important for SAPT in psi4, default
symmetry c1  #important for SAPT in psi4, default
}

set PROPERTIES_ORIGIN ["COM"]
properties('MP2/aug-cc-pvtz', properties = ['dipole'])
--------------------------------------------------------------------------

  Memory set to  29.802 GiB by Python driver.
    SCF Algorithm Type (re)set to DF.

*** tstart() called on node37.bme.utexas.edu
*** at Mon Nov  9 18:35:12 2020

   => Loading Basis Set <=

    Name: AUG-CC-PVTZ
    Role: ORBITAL
    Keyword: BASIS
    atoms 1     entry O          line   327 file /home/xy3866/psi4conda/share/psi4/basis/aug-cc-pvtz.gbs 
    atoms 2-6   entry N          line   281 file /home/xy3866/psi4conda/share/psi4/basis/aug-cc-pvtz.gbs 
    atoms 7-12  entry C          line   235 file /home/xy3866/psi4conda/share/psi4/basis/aug-cc-pvtz.gbs 
    atoms 13-19 entry H          line    36 file /home/xy3866/psi4conda/share/psi4/basis/aug-cc-pvtz.gbs 


         ---------------------------------------------------------
                                   SCF
               by Justin Turney, Rob Parrish, Andy Simmonett
                          and Daniel G. A. Smith
                              RHF Reference
                        8 Threads,  30517 MiB Core
         ---------------------------------------------------------

  ==> Geometry <==

    Molecular point group: c1
    Full point group: C1

    Geometry (in Angstrom), charge = 0, multiplicity = 1:

       Center              X                  Y                   Z               Mass       
    ------------   -----------------  -----------------  -----------------  -----------------
         O           -1.469723949399     2.564342788035     0.084028238158    15.994914619570
         N            1.919209050601    -0.583186211965    -0.052002761842    14.003074004430
         N           -1.910228949399     0.306041788035     0.052135238158    14.003074004430
         N           -0.342666949399    -1.467293211965    -0.035121761842    14.003074004430
         N            1.516694050601     1.640841788035    -0.006930761842    14.003074004430
         N           -2.629378949399    -1.916988211965     0.114707238158    14.003074004430
         C            0.557748050601    -0.436974211965    -0.025901761842    12.000000000000
         C            0.333120250601     0.940417388035    -0.055760561842    12.000000000000
         C           -1.022114949399     1.423653788035     0.038807238158    12.000000000000
         C            2.439112050601     0.689432788035    -0.066292761842    12.000000000000
         C           -1.573007949399    -1.026103211965     0.022432238158    12.000000000000
         C            2.635419050601    -1.845379211965    -0.061891761842    12.000000000000
         H            3.509311050601     0.859022788035    -0.082978761842     1.007825032230
         H            2.372984050601    -2.430484211965     0.821376238158     1.007825032230
         H            2.379522050601    -2.414136211965    -0.956878761842     1.007825032230
         H            3.704189050601    -1.630644211965    -0.055605761842     1.007825032230
         H           -2.887931949399     0.569088788035     0.172944238158     1.007825032230
         H           -2.325753949399    -2.867751211965    -0.060611761842     1.007825032230
         H           -3.459643949399    -1.672696211965    -0.413722761842     1.007825032230

  Running in c1 symmetry.

  Rotational constants: A =      0.04748  B =      0.03142  C =      0.01899 [cm^-1]
  Rotational constants: A =   1423.49317  B =    942.03456  C =    569.41693 [MHz]
  Nuclear repulsion =  693.393099726813148

  Charge       = 0
  Multiplicity = 1
  Electrons    = 86
  Nalpha       = 43
  Nbeta        = 43

  ==> Algorithm <==

  SCF Algorithm Type is DF.
  DIIS enabled.
  MOM disabled.
  Fractional occupation disabled.
  Guess Type is SAD.
  Energy threshold   = 1.00e-10
  Density threshold  = 1.00e-10
  Integral threshold = 0.00e+00

  ==> Primary Basis <==

  Basis Set: AUG-CC-PVTZ
    Blend: AUG-CC-PVTZ
    Number of shells: 231
    Number of basis function: 713
    Number of Cartesian functions: 835
    Spherical Harmonics?: true
    Max angular momentum: 3

   => Loading Basis Set <=

    Name: (AUG-CC-PVTZ AUX)
    Role: JKFIT
    Keyword: DF_BASIS_SCF
    atoms 1     entry O          line   286 file /home/xy3866/psi4conda/share/psi4/basis/aug-cc-pvtz-jkfit.gbs 
    atoms 2-6   entry N          line   224 file /home/xy3866/psi4conda/share/psi4/basis/aug-cc-pvtz-jkfit.gbs 
    atoms 7-12  entry C          line   162 file /home/xy3866/psi4conda/share/psi4/basis/aug-cc-pvtz-jkfit.gbs 
    atoms 13-19 entry H          line    70 file /home/xy3866/psi4conda/share/psi4/basis/aug-cc-pvtz-jkfit.gbs 

  ==> Pre-Iterations <==

   -------------------------------------------------------
    Irrep   Nso     Nmo     Nalpha   Nbeta   Ndocc  Nsocc
   -------------------------------------------------------
     A        713     713       0       0       0       0
   -------------------------------------------------------
    Total     713     713      43      43      43       0
   -------------------------------------------------------

  ==> Integral Setup <==

  DFHelper Memory: AOs need 5.670 GiB; user supplied 22.352 GiB. Using in-core AOs.

  ==> MemDFJK: Density-Fitted J/K Matrices <==

    J tasked:                   Yes
    K tasked:                   Yes
    wK tasked:                   No
    OpenMP threads:               8
    Memory [MiB]:             22888
    Algorithm:                 Disk
    Schwarz Cutoff:           1E-12
    Mask sparsity (%):       7.1826
    Fitting Condition:        1E-10

   => Auxiliary Basis Set <=

  Basis Set: (AUG-CC-PVTZ AUX)
    Blend: AUG-CC-PVTZ-JKFIT
    Number of shells: 458
    Number of basis function: 1570
    Number of Cartesian functions: 1957
    Spherical Harmonics?: true
    Max angular momentum: 4

  Minimum eigenvalue in the overlap matrix is 1.4564690696E-06.
  Using Symmetric Orthogonalization.

  SCF Guess: Superposition of Atomic Densities via on-the-fly atomic UHF.

  ==> Iterations <==

                           Total Energy        Delta E     RMS |[F,P]|

   @DF-RHF iter SAD:  -578.36900514603019   -5.78369e+02   0.00000e+00 
   @DF-RHF iter   1:  -578.30284965012208    6.61555e-02   1.12681e-03 DIIS
   @DF-RHF iter   2:  -578.54633762124593   -2.43488e-01   6.51401e-04 DIIS
   @DF-RHF iter   3:  -578.62280083627513   -7.64632e-02   1.46054e-04 DIIS
   @DF-RHF iter   4:  -578.62863962924871   -5.83879e-03   5.84984e-05 DIIS
   @DF-RHF iter   5:  -578.62968472193768   -1.04509e-03   1.26163e-05 DIIS
   @DF-RHF iter   6:  -578.62978848009811   -1.03758e-04   6.47349e-06 DIIS
   @DF-RHF iter   7:  -578.62981663829737   -2.81582e-05   2.63805e-06 DIIS
   @DF-RHF iter   8:  -578.62982180349366   -5.16520e-06   1.04139e-06 DIIS
   @DF-RHF iter   9:  -578.62982255195209   -7.48458e-07   3.65484e-07 DIIS
   @DF-RHF iter  10:  -578.62982266281165   -1.10860e-07   1.66428e-07 DIIS
   @DF-RHF iter  11:  -578.62982267897576   -1.61641e-08   6.58534e-08 DIIS
   @DF-RHF iter  12:  -578.62982268209464   -3.11888e-09   2.55045e-08 DIIS
   @DF-RHF iter  13:  -578.62982268252563   -4.30987e-10   1.01709e-08 DIIS
   @DF-RHF iter  14:  -578.62982268259384   -6.82121e-11   3.37808e-09 DIIS
   @DF-RHF iter  15:  -578.62982268260555   -1.17097e-11   1.42343e-09 DIIS
   @DF-RHF iter  16:  -578.62982268260680   -1.25056e-12   6.48630e-10 DIIS
   @DF-RHF iter  17:  -578.62982268260521    1.59162e-12   2.43492e-10 DIIS
   @DF-RHF iter  18:  -578.62982268260657   -1.36424e-12   1.25911e-10 DIIS
   @DF-RHF iter  19:  -578.62982268260737   -7.95808e-13   4.37494e-11 DIIS
  Energy and wave function converged.


  ==> Post-Iterations <==

    Orbital Energies [Eh]
    ---------------------

    Doubly Occupied:                                                      

       1A    -20.520936     2A    -15.632898     3A    -15.629310  
       4A    -15.610772     5A    -15.570887     6A    -15.559629  
       7A    -11.396125     8A    -11.364363     9A    -11.319329  
      10A    -11.307280    11A    -11.289391    12A    -11.247134  
      13A     -1.390636    14A     -1.360535    15A     -1.334018  
      16A     -1.219092    17A     -1.216178    18A     -1.190541  
      19A     -1.029188    20A     -0.986372    21A     -0.901412  
      22A     -0.882179    23A     -0.807826    24A     -0.766490  
      25A     -0.741122    26A     -0.729200    27A     -0.692091  
      28A     -0.671337    29A     -0.649506    30A     -0.642455  
      31A     -0.626142    32A     -0.610402    33A     -0.593458  
      34A     -0.578558    35A     -0.560820    36A     -0.541711  
      37A     -0.493696    38A     -0.459242    39A     -0.440095  
      40A     -0.429967    41A     -0.427844    42A     -0.392576  
      43A     -0.298383  

    Virtual:                                                              

      44A      0.015933    45A      0.023573    46A      0.034684  
      47A      0.039849    48A      0.043751    49A      0.049993  
      50A      0.059982    51A      0.076794    52A      0.078194  
      53A      0.083060    54A      0.088797    55A      0.093041  
      56A      0.105479    57A      0.111747    58A      0.112992  
      59A      0.117022    60A      0.119889    61A      0.121593  
      62A      0.126012    63A      0.129465    64A      0.131354  
      65A      0.133752    66A      0.136131    67A      0.140959  
      68A      0.144609    69A      0.152368    70A      0.160737  
      71A      0.164276    72A      0.166806    73A      0.174231  
      74A      0.181188    75A      0.183729    76A      0.186646  
      77A      0.193455    78A      0.195883    79A      0.203344  
      80A      0.206352    81A      0.213948    82A      0.221892  
      83A      0.227340    84A      0.231271    85A      0.236200  
      86A      0.239937    87A      0.245672    88A      0.254999  
      89A      0.259317    90A      0.263270    91A      0.269900  
      92A      0.273132    93A      0.276166    94A      0.285127  
      95A      0.291460    96A      0.294653    97A      0.299826  
      98A      0.301363    99A      0.308884   100A      0.310826  
     101A      0.315564   102A      0.319061   103A      0.321436  
     104A      0.325990   105A      0.339311   106A      0.340931  
     107A      0.346079   108A      0.351644   109A      0.354247  
     110A      0.359706   111A      0.363150   112A      0.366097  
     113A      0.367945   114A      0.377209   115A      0.378760  
     116A      0.388972   117A      0.393243   118A      0.396654  
     119A      0.402688   120A      0.406278   121A      0.407886  
     122A      0.412186   123A      0.416412   124A      0.418284  
     125A      0.432564   126A      0.440625   127A      0.444164  
     128A      0.445828   129A      0.450654   130A      0.452200  
     131A      0.456344   132A      0.459730   133A      0.470213  
     134A      0.474932   135A      0.479942   136A      0.482203  
     137A      0.488580   138A      0.492942   139A      0.499345  
     140A      0.502293   141A      0.506737   142A      0.510158  
     143A      0.512451   144A      0.515882   145A      0.520641  
     146A      0.530375   147A      0.535909   148A      0.539015  
     149A      0.541047   150A      0.548348   151A      0.552934  
     152A      0.561485   153A      0.564679   154A      0.570246  
     155A      0.575432   156A      0.578279   157A      0.591620  
     158A      0.596352   159A      0.605850   160A      0.610095  
     161A      0.622911   162A      0.624293   163A      0.631619  
     164A      0.641209   165A      0.646216   166A      0.654761  
     167A      0.657799   168A      0.668362   169A      0.675160  
     170A      0.682872   171A      0.687499   172A      0.691365  
     173A      0.699416   174A      0.706710   175A      0.711283  
     176A      0.721644   177A      0.727805   178A      0.732457  
     179A      0.737526   180A      0.743269   181A      0.758916  
     182A      0.760416   183A      0.766934   184A      0.774267  
     185A      0.779470   186A      0.783290   187A      0.788936  
     188A      0.796713   189A      0.804207   190A      0.815436  
     191A      0.826378   192A      0.827485   193A      0.830738  
     194A      0.839133   195A      0.842601   196A      0.845602  
     197A      0.855179   198A      0.857240   199A      0.865808  
     200A      0.873306   201A      0.881527   202A      0.884336  
     203A      0.888003   204A      0.894340   205A      0.898868  
     206A      0.908700   207A      0.910725   208A      0.915115  
     209A      0.920178   210A      0.924200   211A      0.933364  
     212A      0.936088   213A      0.948268   214A      0.955561  
     215A      0.958896   216A      0.961447   217A      0.963869  
     218A      0.968611   219A      0.981708   220A      0.982850  
     221A      0.993644   222A      0.999462   223A      1.005269  
     224A      1.008412   225A      1.017456   226A      1.019500  
     227A      1.024779   228A      1.036618   229A      1.039266  
     230A      1.042712   231A      1.050449   232A      1.062342  
     233A      1.066091   234A      1.069596   235A      1.078461  
     236A      1.087934   237A      1.091051   238A      1.092494  
     239A      1.098534   240A      1.105982   241A      1.111480  
     242A      1.125081   243A      1.126254   244A      1.131479  
     245A      1.133694   246A      1.134439   247A      1.149966  
     248A      1.159217   249A      1.162779   250A      1.169157  
     251A      1.177280   252A      1.181260   253A      1.187221  
     254A      1.197957   255A      1.200892   256A      1.203878  
     257A      1.213148   258A      1.216248   259A      1.220588  
     260A      1.224738   261A      1.247727   262A      1.251165  
     263A      1.264948   264A      1.272627   265A      1.275978  
     266A      1.280738   267A      1.287114   268A      1.289426  
     269A      1.293870   270A      1.302449   271A      1.307833  
     272A      1.316013   273A      1.320887   274A      1.336668  
     275A      1.341284   276A      1.353818   277A      1.360106  
     278A      1.367967   279A      1.375941   280A      1.379901  
     281A      1.396179   282A      1.402381   283A      1.409661  
     284A      1.417128   285A      1.419902   286A      1.425703  
     287A      1.434346   288A      1.437865   289A      1.446925  
     290A      1.450459   291A      1.462074   292A      1.471573  
     293A      1.480005   294A      1.487728   295A      1.491776  
     296A      1.498285   297A      1.507687   298A      1.523596  
     299A      1.527567   300A      1.537280   301A      1.542452  
     302A      1.545381   303A      1.547234   304A      1.565593  
     305A      1.574340   306A      1.581655   307A      1.585729  
     308A      1.591291   309A      1.601540   310A      1.616015  
     311A      1.623645   312A      1.626357   313A      1.634675  
     314A      1.638722   315A      1.643194   316A      1.665066  
     317A      1.668038   318A      1.674194   319A      1.686326  
     320A      1.692398   321A      1.699898   322A      1.708142  
     323A      1.712020   324A      1.726443   325A      1.734940  
     326A      1.735766   327A      1.738414   328A      1.749779  
     329A      1.764900   330A      1.775142   331A      1.793613  
     332A      1.798248   333A      1.801873   334A      1.815993  
     335A      1.821212   336A      1.831059   337A      1.846455  
     338A      1.852027   339A      1.861534   340A      1.880001  
     341A      1.885242   342A      1.898155   343A      1.903469  
     344A      1.918794   345A      1.934495   346A      1.942458  
     347A      1.958596   348A      1.965634   349A      1.973837  
     350A      1.982892   351A      1.988624   352A      1.991592  
     353A      2.009399   354A      2.010901   355A      2.030916  
     356A      2.039605   357A      2.054849   358A      2.058984  
     359A      2.071348   360A      2.077370   361A      2.082953  
     362A      2.093470   363A      2.097358   364A      2.118619  
     365A      2.126407   366A      2.137951   367A      2.149330  
     368A      2.156830   369A      2.165671   370A      2.179649  
     371A      2.199009   372A      2.200419   373A      2.206201  
     374A      2.217848   375A      2.229712   376A      2.244727  
     377A      2.245316   378A      2.265053   379A      2.272868  
     380A      2.286206   381A      2.291045   382A      2.312402  
     383A      2.317281   384A      2.332642   385A      2.337086  
     386A      2.339541   387A      2.342872   388A      2.345644  
     389A      2.359017   390A      2.367278   391A      2.381801  
     392A      2.387482   393A      2.410128   394A      2.415527  
     395A      2.423984   396A      2.429483   397A      2.446000  
     398A      2.462239   399A      2.470666   400A      2.472469  
     401A      2.478828   402A      2.498533   403A      2.507857  
     404A      2.520762   405A      2.524998   406A      2.529343  
     407A      2.543130   408A      2.557959   409A      2.568013  
     410A      2.577210   411A      2.583070   412A      2.611631  
     413A      2.619766   414A      2.625792   415A      2.629691  
     416A      2.664010   417A      2.664881   418A      2.682657  
     419A      2.696322   420A      2.715517   421A      2.728977  
     422A      2.737712   423A      2.743356   424A      2.755747  
     425A      2.771717   426A      2.791114   427A      2.809158  
     428A      2.823199   429A      2.840392   430A      2.853287  
     431A      2.857985   432A      2.872825   433A      2.878100  
     434A      2.906955   435A      2.935426   436A      2.942874  
     437A      2.959387   438A      2.998693   439A      3.024154  
     440A      3.043911   441A      3.052730   442A      3.067937  
     443A      3.077169   444A      3.121015   445A      3.132236  
     446A      3.155416   447A      3.179287   448A      3.197695  
     449A      3.223753   450A      3.232599   451A      3.255460  
     452A      3.267439   453A      3.295787   454A      3.335034  
     455A      3.340291   456A      3.367518   457A      3.374056  
     458A      3.388915   459A      3.402494   460A      3.411802  
     461A      3.439840   462A      3.459815   463A      3.483554  
     464A      3.498935   465A      3.518200   466A      3.532037  
     467A      3.538268   468A      3.545298   469A      3.574485  
     470A      3.590271   471A      3.601239   472A      3.629924  
     473A      3.638216   474A      3.645160   475A      3.650549  
     476A      3.670832   477A      3.678527   478A      3.684364  
     479A      3.703956   480A      3.717142   481A      3.724922  
     482A      3.730943   483A      3.741497   484A      3.763459  
     485A      3.769860   486A      3.776498   487A      3.785878  
     488A      3.799046   489A      3.805653   490A      3.817710  
     491A      3.821446   492A      3.834886   493A      3.860890  
     494A      3.868847   495A      3.875725   496A      3.893360  
     497A      3.907111   498A      3.921865   499A      3.930899  
     500A      3.933589   501A      3.952638   502A      3.969302  
     503A      3.976887   504A      3.986230   505A      3.999547  
     506A      4.003055   507A      4.017115   508A      4.019112  
     509A      4.040166   510A      4.067700   511A      4.070956  
     512A      4.077072   513A      4.089463   514A      4.097347  
     515A      4.105401   516A      4.120788   517A      4.134549  
     518A      4.147178   519A      4.156452   520A      4.158111  
     521A      4.176052   522A      4.187508   523A      4.198088  
     524A      4.202196   525A      4.218745   526A      4.226107  
     527A      4.240405   528A      4.248661   529A      4.273093  
     530A      4.277593   531A      4.288980   532A      4.301102  
     533A      4.311107   534A      4.314375   535A      4.334436  
     536A      4.335850   537A      4.368624   538A      4.376754  
     539A      4.382160   540A      4.394106   541A      4.401703  
     542A      4.412161   543A      4.425377   544A      4.429085  
     545A      4.439311   546A      4.459036   547A      4.476744  
     548A      4.495414   549A      4.507879   550A      4.513461  
     551A      4.526433   552A      4.538931   553A      4.552208  
     554A      4.582252   555A      4.592852   556A      4.609839  
     557A      4.625764   558A      4.630280   559A      4.640841  
     560A      4.667323   561A      4.680700   562A      4.690911  
     563A      4.705719   564A      4.723619   565A      4.746768  
     566A      4.758671   567A      4.794916   568A      4.795886  
     569A      4.803603   570A      4.815288   571A      4.830977  
     572A      4.849690   573A      4.869456   574A      4.886165  
     575A      4.896472   576A      4.905180   577A      4.933365  
     578A      4.938560   579A      4.946017   580A      4.989226  
     581A      4.999547   582A      5.013443   583A      5.018382  
     584A      5.034154   585A      5.052609   586A      5.061584  
     587A      5.117263   588A      5.142469   589A      5.150759  
     590A      5.161004   591A      5.185273   592A      5.197576  
     593A      5.205943   594A      5.215528   595A      5.227354  
     596A      5.242213   597A      5.262379   598A      5.266135  
     599A      5.277693   600A      5.291741   601A      5.304495  
     602A      5.331339   603A      5.363662   604A      5.379389  
     605A      5.394326   606A      5.409727   607A      5.437779  
     608A      5.460531   609A      5.478543   610A      5.501893  
     611A      5.525170   612A      5.540637   613A      5.547383  
     614A      5.568985   615A      5.578446   616A      5.612622  
     617A      5.616349   618A      5.634478   619A      5.647161  
     620A      5.658535   621A      5.667047   622A      5.675179  
     623A      5.704748   624A      5.712551   625A      5.730174  
     626A      5.743410   627A      5.759033   628A      5.768028  
     629A      5.797413   630A      5.814790   631A      5.827879  
     632A      5.837065   633A      5.863863   634A      5.895769  
     635A      5.902719   636A      5.916866   637A      5.937739  
     638A      5.958594   639A      5.968521   640A      5.978956  
     641A      5.981824   642A      5.997974   643A      6.035991  
     644A      6.044915   645A      6.065518   646A      6.110290  
     647A      6.118668   648A      6.121822   649A      6.147230  
     650A      6.151559   651A      6.159696   652A      6.175901  
     653A      6.190977   654A      6.208709   655A      6.224318  
     656A      6.245746   657A      6.263971   658A      6.322904  
     659A      6.361764   660A      6.396243   661A      6.439044  
     662A      6.477852   663A      6.535395   664A      6.587759  
     665A      6.599912   666A      6.639603   667A      6.653911  
     668A      6.682836   669A      6.700332   670A      6.707617  
     671A      6.709913   672A      6.746277   673A      6.759464  
     674A      6.776759   675A      6.843602   676A      6.852576  
     677A      6.937561   678A      6.974852   679A      6.988744  
     680A      7.013706   681A      7.041976   682A      7.060421  
     683A      7.095973   684A      7.122073   685A      7.142973  
     686A      7.216235   687A      7.242149   688A      7.255253  
     689A      7.317441   690A      7.371340   691A      7.397171  
     692A      7.420425   693A      7.445082   694A      7.482670  
     695A      7.670626   696A      7.742500   697A      7.764073  
     698A      7.826757   699A      7.914795   700A      7.989604  
     701A      8.042932   702A     16.061422   703A     16.278556  
     704A     16.341896   705A     16.980388   706A     17.758215  
     707A     18.442036   708A     18.794855   709A     19.279694  
     710A     19.907060   711A     20.181341   712A     21.193824  
     713A     21.458293  

    Final Occupation by Irrep:
              A 
    DOCC [    43 ]

  @DF-RHF Final Energy:  -578.62982268260737

   => Energetics <=

    Nuclear Repulsion Energy =            693.3930997268131478
    One-Electron Energy =               -2163.8235901707112134
    Two-Electron Energy =                 891.8006677612908106
    Total Energy =                       -578.6298226826073687

Computation Completed

*** tstop() called on node37.bme.utexas.edu at Mon Nov  9 18:37:52 2020
Module time:
	user time   =     515.25 seconds =       8.59 minutes
	system time =     114.64 seconds =       1.91 minutes
	total time  =        160 seconds =       2.67 minutes
Total time:
	user time   =     515.25 seconds =       8.59 minutes
	system time =     114.64 seconds =       1.91 minutes
	total time  =        160 seconds =       2.67 minutes
   => Loading Basis Set <=

    Name: (AUG-CC-PVTZ AUX)
    Role: RIFIT
    Keyword: DF_BASIS_MP2
    atoms 1     entry O          line   264 file /home/xy3866/psi4conda/share/psi4/basis/aug-cc-pvtz-ri.gbs 
    atoms 2-6   entry N          line   206 file /home/xy3866/psi4conda/share/psi4/basis/aug-cc-pvtz-ri.gbs 
    atoms 7-12  entry C          line   148 file /home/xy3866/psi4conda/share/psi4/basis/aug-cc-pvtz-ri.gbs 
    atoms 13-19 entry H          line    30 file /home/xy3866/psi4conda/share/psi4/basis/aug-cc-pvtz-ri.gbs 


*** tstart() called on node37.bme.utexas.edu
*** at Mon Nov  9 18:37:52 2020


  //>>>>>>>>>>>>>>>>>>>>>>>>>>>>>>>>>>>//
  //               DFMP2               //
  //<<<<<<<<<<<<<<<<<<<<<<<<<<<<<<<<<<<//

	 --------------------------------------------------------
	                          DF-MP2                         
	      2nd-Order Density-Fitted Moller-Plesset Theory     
	              RMP2 Wavefunction,   8 Threads             
	                                                         
	        Rob Parrish, Justin Turney, Andy Simmonett,      
	           Ed Hohenstein, and C. David Sherrill          
	 --------------------------------------------------------

   => Auxiliary Basis Set <=

  Basis Set: (AUG-CC-PVTZ AUX)
    Blend: AUG-CC-PVTZ-RI
    Number of shells: 434
    Number of basis function: 1594
    Number of Cartesian functions: 2017
    Spherical Harmonics?: true
    Max angular momentum: 4

	 --------------------------------------------------------
	                 NBF =   713, NAUX =  1594
	 --------------------------------------------------------
	   CLASS    FOCC     OCC    AOCC    AVIR     VIR    FVIR
	   PAIRS       0      43      43     670     670       0
	 --------------------------------------------------------

  DFHelper Memory: AOs need 5.670 GiB; user supplied 22.352 GiB. Using in-core AOs.


         ------------------------------------------------------------
                                     CPHF                           
                                  Rob Parrish                       
         ------------------------------------------------------------

  ==> Geometry <==

    Molecular point group: c1
    Full point group: C1

    Geometry (in Angstrom), charge = 0, multiplicity = 1:

       Center              X                  Y                   Z               Mass       
    ------------   -----------------  -----------------  -----------------  -----------------
         O           -1.469723949399     2.564342788035     0.084028238158    15.994914619570
         N            1.919209050601    -0.583186211965    -0.052002761842    14.003074004430
         N           -1.910228949399     0.306041788035     0.052135238158    14.003074004430
         N           -0.342666949399    -1.467293211965    -0.035121761842    14.003074004430
         N            1.516694050601     1.640841788035    -0.006930761842    14.003074004430
         N           -2.629378949399    -1.916988211965     0.114707238158    14.003074004430
         C            0.557748050601    -0.436974211965    -0.025901761842    12.000000000000
         C            0.333120250601     0.940417388035    -0.055760561842    12.000000000000
         C           -1.022114949399     1.423653788035     0.038807238158    12.000000000000
         C            2.439112050601     0.689432788035    -0.066292761842    12.000000000000
         C           -1.573007949399    -1.026103211965     0.022432238158    12.000000000000
         C            2.635419050601    -1.845379211965    -0.061891761842    12.000000000000
         H            3.509311050601     0.859022788035    -0.082978761842     1.007825032230
         H            2.372984050601    -2.430484211965     0.821376238158     1.007825032230
         H            2.379522050601    -2.414136211965    -0.956878761842     1.007825032230
         H            3.704189050601    -1.630644211965    -0.055605761842     1.007825032230
         H           -2.887931949399     0.569088788035     0.172944238158     1.007825032230
         H           -2.325753949399    -2.867751211965    -0.060611761842     1.007825032230
         H           -3.459643949399    -1.672696211965    -0.413722761842     1.007825032230

  Nuclear repulsion =  693.393099726813148
  Reference energy  = -578.629822682607369

  ==> Basis Set <==

  Basis Set: AUG-CC-PVTZ
    Blend: AUG-CC-PVTZ
    Number of shells: 231
    Number of basis function: 713
    Number of Cartesian functions: 835
    Spherical Harmonics?: true
    Max angular momentum: 3

  ==> CGRSolver (by Rob Parrish) <==

   Number of roots    =         1
   Preconditioning    =    JACOBI
   Convergence cutoff =     1E-06
   Maximum iterations =       100

  ==> CPHFRHamiltonian (by Rob Parrish) <== 

  ==> MemDFJK: Density-Fitted J/K Matrices <==

    J tasked:                   Yes
    K tasked:                   Yes
    wK tasked:                   No
    OpenMP threads:               8
    Memory [MiB]:             22888
    Algorithm:                 Disk
    Schwarz Cutoff:           1E-12
    Mask sparsity (%):       7.1826
    Fitting Condition:        1E-10

   => Auxiliary Basis Set <=

  Basis Set: (AUG-CC-PVTZ AUX)
    Blend: AUG-CC-PVTZ-JKFIT
    Number of shells: 458
    Number of basis function: 1570
    Number of Cartesian functions: 1957
    Spherical Harmonics?: true
    Max angular momentum: 4

  ==> CPHF Iterations <==

  => Iterations <=

             Iter  Converged  Remaining    Residual
  CGR           1          0          1   1.382E-01
  CGR           2          0          1   4.952E-02
  CGR           3          0          1   2.432E-02
  CGR           4          0          1   7.889E-03
  CGR           5          0          1   3.922E-03
  CGR           6          0          1   1.643E-03
  CGR           7          0          1   5.869E-04
  CGR           8          0          1   2.409E-04
  CGR           9          0          1   8.533E-05
  CGR          10          0          1   3.470E-05
  CGR          11          0          1   1.329E-05
  CGR          12          0          1   4.885E-06
  CGR          13          0          1   1.913E-06
  CGR          14          1          0   5.853E-07

    CGRSolver converged.

	-----------------------------------------------------------
	 ==================> DF-MP2 Energies <==================== 
	-----------------------------------------------------------
	 Reference Energy          =    -578.6298226826073687 [Eh]
	 Singles Energy            =      -0.0000000000000000 [Eh]
	 Same-Spin Energy          =      -0.6160926918489840 [Eh]
	 Opposite-Spin Energy      =      -1.8197743509851991 [Eh]
	 Correlation Energy        =      -2.4358670428341833 [Eh]
	 Total Energy              =    -581.0656897254415298 [Eh]
	-----------------------------------------------------------
	 ================> DF-SCS-MP2 Energies <================== 
	-----------------------------------------------------------
	 SCS Same-Spin Scale       =       0.3333333333333333 [-]
	 SCS Opposite-Spin Scale   =       1.2000000000000000 [-]
	 SCS Same-Spin Energy      =      -0.2053642306163280 [Eh]
	 SCS Opposite-Spin Energy  =      -2.1837292211822388 [Eh]
	 SCS Correlation Energy    =      -2.3890934517985669 [Eh]
	 SCS Total Energy          =    -581.0189161344059130 [Eh]
	-----------------------------------------------------------



Properties will be evaluated at  -0.000000,  -0.000000,   0.000000 [a0]

Properties computed using the MP2 density matrix

  Nuclear Dipole Moment: [e a0]
     X:     3.0839      Y:    -8.9699      Z:    -0.5393

  Electronic Dipole Moment: [e a0]
     X:    -3.0900      Y:     6.2977      Z:     0.1698

  Dipole Moment: [e a0]
     X:    -0.0061      Y:    -2.6722      Z:    -0.3695     Total:     2.6976

  Dipole Moment: [D]
     X:    -0.0154      Y:    -6.7920      Z:    -0.9392     Total:     6.8566


*** tstop() called on node37.bme.utexas.edu at Mon Nov  9 18:43:31 2020
Module time:
	user time   =    1689.77 seconds =      28.16 minutes
	system time =     172.22 seconds =       2.87 minutes
	total time  =        339 seconds =       5.65 minutes
Total time:
	user time   =    2205.25 seconds =      36.75 minutes
	system time =     286.87 seconds =       4.78 minutes
	total time  =        499 seconds =       8.32 minutes

    Psi4 stopped on: Monday, 09 November 2020 06:43PM
    Psi4 wall time for execution: 0:08:20.22

*** Psi4 exiting successfully. Buy a developer a beer!
