
    -----------------------------------------------------------------------
          Psi4: An Open-Source Ab Initio Electronic Structure Package
                               Psi4 1.3.2 release

                         Git: Rev {HEAD} ecbda83 


    R. M. Parrish, L. A. Burns, D. G. A. Smith, A. C. Simmonett,
    A. E. DePrince III, E. G. Hohenstein, U. Bozkaya, A. Yu. Sokolov,
    R. Di Remigio, R. M. Richard, J. F. Gonthier, A. M. James,
    H. R. McAlexander, A. Kumar, M. Saitow, X. Wang, B. P. Pritchard,
    P. Verma, H. F. Schaefer III, K. Patkowski, R. A. King, E. F. Valeev,
    F. A. Evangelista, J. M. Turney, T. D. Crawford, and C. D. Sherrill,
    J. Chem. Theory Comput. 13(7) pp 3185--3197 (2017).
    (doi: 10.1021/acs.jctc.7b00174)


                         Additional Contributions by
    P. Kraus, H. Kruse, M. H. Lechner, M. C. Schieber, R. A. Shaw,
    A. Alenaizan, R. Galvelis, Z. L. Glick, S. Lehtola, and J. P. Misiewicz

    -----------------------------------------------------------------------


    Psi4 started on: Monday, 09 November 2020 10:16PM

    Process ID: 16312
    Host:       node37.bme.utexas.edu
    PSIDATADIR: /home/xy3866/psi4conda/share/psi4
    Memory:     500.0 MiB
    Threads:    8
    
  ==> Input File <==

--------------------------------------------------------------------------
#psi4
#
memory 32 gb

molecule  {
0 1
  O       -1.4697740     2.5644010     0.0803940
  N        1.9191590    -0.5831280    -0.0556370
  N       -1.9102790     0.3061000     0.0485010
  N       -0.3427170    -1.4672350    -0.0387560
  N        1.5166440     1.6409000    -0.0105650
  N       -2.6390183    -1.9180412    -0.0386160
  C        0.5576980    -0.4369160    -0.0295360
  C        0.3337570     0.9396730    -0.0094060
  C       -1.0221650     1.4237120     0.0351730
  C        2.4390620     0.6894910    -0.0699270
  C       -1.5730580    -1.0260450     0.0187980
  C        2.6353690    -1.8453210    -0.0655260
  H        3.5092610     0.8590810    -0.0866130
  H        2.3729340    -2.4304260     0.8177420
  H        2.3794720    -2.4140780    -0.9605130
  H        3.7041390    -1.6305860    -0.0592400
  H       -2.8879820     0.5691470     0.1693100
  H       -2.3258040    -2.8676930    -0.0642460
  H       -3.4596940    -1.6726380    -0.4173570
units angstrom
no_reorient  #important for SAPT in psi4, default
symmetry c1  #important for SAPT in psi4, default
}

set PROPERTIES_ORIGIN ["COM"]
properties('MP2/aug-cc-pvtz', properties = ['dipole'])
--------------------------------------------------------------------------

  Memory set to  29.802 GiB by Python driver.
    SCF Algorithm Type (re)set to DF.

*** tstart() called on node37.bme.utexas.edu
*** at Mon Nov  9 22:16:30 2020

   => Loading Basis Set <=

    Name: AUG-CC-PVTZ
    Role: ORBITAL
    Keyword: BASIS
    atoms 1     entry O          line   327 file /home/xy3866/psi4conda/share/psi4/basis/aug-cc-pvtz.gbs 
    atoms 2-6   entry N          line   281 file /home/xy3866/psi4conda/share/psi4/basis/aug-cc-pvtz.gbs 
    atoms 7-12  entry C          line   235 file /home/xy3866/psi4conda/share/psi4/basis/aug-cc-pvtz.gbs 
    atoms 13-19 entry H          line    36 file /home/xy3866/psi4conda/share/psi4/basis/aug-cc-pvtz.gbs 


         ---------------------------------------------------------
                                   SCF
               by Justin Turney, Rob Parrish, Andy Simmonett
                          and Daniel G. A. Smith
                              RHF Reference
                        8 Threads,  30517 MiB Core
         ---------------------------------------------------------

  ==> Geometry <==

    Molecular point group: c1
    Full point group: C1

    Geometry (in Angstrom), charge = 0, multiplicity = 1:

       Center              X                  Y                   Z               Mass       
    ------------   -----------------  -----------------  -----------------  -----------------
         O           -1.468960383338     2.564495403106     0.093092788499    15.994914619570
         N            1.919972616662    -0.583033596894    -0.042938211501    14.003074004430
         N           -1.909465383338     0.306194403106     0.061199788499    14.003074004430
         N           -0.341903383338    -1.467140596894    -0.026057211501    14.003074004430
         N            1.517457616662     1.640994403106     0.002133788499    14.003074004430
         N           -2.638204683338    -1.917946796894    -0.025917211501    14.003074004430
         C            0.558511616662    -0.436821596894    -0.016837211501    12.000000000000
         C            0.334570616662     0.939767403106     0.003292788499    12.000000000000
         C           -1.021351383338     1.423806403106     0.047871788499    12.000000000000
         C            2.439875616662     0.689585403106    -0.057228211501    12.000000000000
         C           -1.572244383338    -1.025950596894     0.031496788499    12.000000000000
         C            2.636182616662    -1.845226596894    -0.052827211501    12.000000000000
         H            3.510074616662     0.859175403106    -0.073914211501     1.007825032230
         H            2.373747616662    -2.430331596894     0.830440788499     1.007825032230
         H            2.380285616662    -2.413983596894    -0.947814211501     1.007825032230
         H            3.704952616662    -1.630491596894    -0.046541211501     1.007825032230
         H           -2.887168383338     0.569241403106     0.182008788499     1.007825032230
         H           -2.324990383338    -2.867598596894    -0.051547211501     1.007825032230
         H           -3.458880383338    -1.672543596894    -0.404658211501     1.007825032230

  Running in c1 symmetry.

  Rotational constants: A =      0.04747  B =      0.03140  C =      0.01898 [cm^-1]
  Rotational constants: A =   1423.11190  B =    941.48981  C =    568.98863 [MHz]
  Nuclear repulsion =  693.619198088392636

  Charge       = 0
  Multiplicity = 1
  Electrons    = 86
  Nalpha       = 43
  Nbeta        = 43

  ==> Algorithm <==

  SCF Algorithm Type is DF.
  DIIS enabled.
  MOM disabled.
  Fractional occupation disabled.
  Guess Type is SAD.
  Energy threshold   = 1.00e-10
  Density threshold  = 1.00e-10
  Integral threshold = 0.00e+00

  ==> Primary Basis <==

  Basis Set: AUG-CC-PVTZ
    Blend: AUG-CC-PVTZ
    Number of shells: 231
    Number of basis function: 713
    Number of Cartesian functions: 835
    Spherical Harmonics?: true
    Max angular momentum: 3

   => Loading Basis Set <=

    Name: (AUG-CC-PVTZ AUX)
    Role: JKFIT
    Keyword: DF_BASIS_SCF
    atoms 1     entry O          line   286 file /home/xy3866/psi4conda/share/psi4/basis/aug-cc-pvtz-jkfit.gbs 
    atoms 2-6   entry N          line   224 file /home/xy3866/psi4conda/share/psi4/basis/aug-cc-pvtz-jkfit.gbs 
    atoms 7-12  entry C          line   162 file /home/xy3866/psi4conda/share/psi4/basis/aug-cc-pvtz-jkfit.gbs 
    atoms 13-19 entry H          line    70 file /home/xy3866/psi4conda/share/psi4/basis/aug-cc-pvtz-jkfit.gbs 

  ==> Pre-Iterations <==

   -------------------------------------------------------
    Irrep   Nso     Nmo     Nalpha   Nbeta   Ndocc  Nsocc
   -------------------------------------------------------
     A        713     713       0       0       0       0
   -------------------------------------------------------
    Total     713     713      43      43      43       0
   -------------------------------------------------------

  ==> Integral Setup <==

  DFHelper Memory: AOs need 5.669 GiB; user supplied 22.352 GiB. Using in-core AOs.

  ==> MemDFJK: Density-Fitted J/K Matrices <==

    J tasked:                   Yes
    K tasked:                   Yes
    wK tasked:                   No
    OpenMP threads:               8
    Memory [MiB]:             22888
    Algorithm:                 Disk
    Schwarz Cutoff:           1E-12
    Mask sparsity (%):       7.2015
    Fitting Condition:        1E-10

   => Auxiliary Basis Set <=

  Basis Set: (AUG-CC-PVTZ AUX)
    Blend: AUG-CC-PVTZ-JKFIT
    Number of shells: 458
    Number of basis function: 1570
    Number of Cartesian functions: 1957
    Spherical Harmonics?: true
    Max angular momentum: 4

  Minimum eigenvalue in the overlap matrix is 1.2405992961E-06.
  Using Symmetric Orthogonalization.

  SCF Guess: Superposition of Atomic Densities via on-the-fly atomic UHF.

  ==> Iterations <==

                           Total Energy        Delta E     RMS |[F,P]|

   @DF-RHF iter SAD:  -578.39033514277332   -5.78390e+02   0.00000e+00 
   @DF-RHF iter   1:  -578.30006171362947    9.02734e-02   1.13341e-03 DIIS
   @DF-RHF iter   2:  -578.54238026091650   -2.42319e-01   6.53310e-04 DIIS
   @DF-RHF iter   3:  -578.61903724486820   -7.66570e-02   1.47031e-04 DIIS
   @DF-RHF iter   4:  -578.62485041792422   -5.81317e-03   5.81309e-05 DIIS
   @DF-RHF iter   5:  -578.62587430866859   -1.02389e-03   1.24668e-05 DIIS
   @DF-RHF iter   6:  -578.62597527345747   -1.00965e-04   6.48749e-06 DIIS
   @DF-RHF iter   7:  -578.62600382976962   -2.85563e-05   2.63437e-06 DIIS
   @DF-RHF iter   8:  -578.62600909624189   -5.26647e-06   1.03029e-06 DIIS
   @DF-RHF iter   9:  -578.62600982486595   -7.28624e-07   3.54973e-07 DIIS
   @DF-RHF iter  10:  -578.62600992777527   -1.02909e-07   1.66218e-07 DIIS
   @DF-RHF iter  11:  -578.62600994388492   -1.61097e-08   6.59263e-08 DIIS
   @DF-RHF iter  12:  -578.62600994716308   -3.27816e-09   2.55094e-08 DIIS
   @DF-RHF iter  13:  -578.62600994759475   -4.31669e-10   1.01625e-08 DIIS
   @DF-RHF iter  14:  -578.62600994766774   -7.29869e-11   3.45446e-09 DIIS
   @DF-RHF iter  15:  -578.62600994768115   -1.34150e-11   1.44611e-09 DIIS
   @DF-RHF iter  16:  -578.62600994767956    1.59162e-12   6.96953e-10 DIIS
   @DF-RHF iter  17:  -578.62600994768241   -2.84217e-12   2.60318e-10 DIIS
   @DF-RHF iter  18:  -578.62600994767922    3.18323e-12   1.29930e-10 DIIS
   @DF-RHF iter  19:  -578.62600994768138   -2.16005e-12   4.58719e-11 DIIS
  Energy and wave function converged.


  ==> Post-Iterations <==

    Orbital Energies [Eh]
    ---------------------

    Doubly Occupied:                                                      

       1A    -20.520408     2A    -15.632117     3A    -15.628814  
       4A    -15.601333     5A    -15.569331     6A    -15.558900  
       7A    -11.398344     8A    -11.363737     9A    -11.318910  
      10A    -11.306441    11A    -11.288870    12A    -11.245823  
      13A     -1.390085    14A     -1.359923    15A     -1.333591  
      16A     -1.223858    17A     -1.216001    18A     -1.190028  
      19A     -1.030515    20A     -0.985894    21A     -0.901151  
      22A     -0.885892    23A     -0.814827    24A     -0.770471  
      25A     -0.743876    26A     -0.732949    27A     -0.708780  
      28A     -0.670908    29A     -0.650063    30A     -0.639877  
      31A     -0.629096    32A     -0.609945    33A     -0.593088  
      34A     -0.578014    35A     -0.560140    36A     -0.540792  
      37A     -0.493050    38A     -0.452270    39A     -0.439319  
      40A     -0.428954    41A     -0.428231    42A     -0.392044  
      43A     -0.296785  

    Virtual:                                                              

      44A      0.016247    45A      0.023777    46A      0.034519  
      47A      0.039956    48A      0.043631    49A      0.049959  
      50A      0.059639    51A      0.077284    52A      0.078188  
      53A      0.083723    54A      0.089471    55A      0.093354  
      56A      0.107811    57A      0.111401    58A      0.113369  
      59A      0.118171    60A      0.120097    61A      0.121385  
      62A      0.126386    63A      0.128193    64A      0.132141  
      65A      0.133164    66A      0.136077    67A      0.142144  
      68A      0.145573    69A      0.153252    70A      0.160253  
      71A      0.163842    72A      0.166388    73A      0.176351  
      74A      0.181467    75A      0.183691    76A      0.185076  
      77A      0.194388    78A      0.196333    79A      0.204103  
      80A      0.206547    81A      0.213183    82A      0.222258  
      83A      0.227709    84A      0.233394    85A      0.237593  
      86A      0.241794    87A      0.245026    88A      0.255127  
      89A      0.260676    90A      0.265086    91A      0.270270  
      92A      0.276550    93A      0.277693    94A      0.287199  
      95A      0.291478    96A      0.295833    97A      0.299225  
      98A      0.300602    99A      0.308853   100A      0.311178  
     101A      0.313435   102A      0.319715   103A      0.321997  
     104A      0.327962   105A      0.338101   106A      0.342111  
     107A      0.345074   108A      0.354339   109A      0.355921  
     110A      0.359274   111A      0.362397   112A      0.366694  
     113A      0.371567   114A      0.373973   115A      0.377066  
     116A      0.389196   117A      0.394282   118A      0.397718  
     119A      0.405827   120A      0.407357   121A      0.409032  
     122A      0.412999   123A      0.416893   124A      0.420234  
     125A      0.431787   126A      0.440253   127A      0.446558  
     128A      0.451820   129A      0.453183   130A      0.453437  
     131A      0.455969   132A      0.459965   133A      0.471775  
     134A      0.474053   135A      0.476822   136A      0.482976  
     137A      0.488400   138A      0.492409   139A      0.498576  
     140A      0.503908   141A      0.508136   142A      0.508688  
     143A      0.512784   144A      0.516069   145A      0.521829  
     146A      0.531191   147A      0.535514   148A      0.539856  
     149A      0.541789   150A      0.549343   151A      0.551551  
     152A      0.560972   153A      0.567250   154A      0.570476  
     155A      0.577425   156A      0.580547   157A      0.590985  
     158A      0.601319   159A      0.609316   160A      0.613897  
     161A      0.624256   162A      0.631293   163A      0.633366  
     164A      0.638809   165A      0.645263   166A      0.653078  
     167A      0.656160   168A      0.666570   169A      0.672444  
     170A      0.682249   171A      0.685687   172A      0.691018  
     173A      0.697567   174A      0.707603   175A      0.713045  
     176A      0.719495   177A      0.723351   178A      0.730292  
     179A      0.739838   180A      0.747623   181A      0.754961  
     182A      0.764982   183A      0.769202   184A      0.771916  
     185A      0.778113   186A      0.785518   187A      0.791115  
     188A      0.797502   189A      0.803979   190A      0.816423  
     191A      0.823658   192A      0.828219   193A      0.830305  
     194A      0.837007   195A      0.842675   196A      0.845497  
     197A      0.853418   198A      0.855768   199A      0.872871  
     200A      0.876857   201A      0.884247   202A      0.884708  
     203A      0.889563   204A      0.896607   205A      0.897852  
     206A      0.911637   207A      0.914207   208A      0.920891  
     209A      0.922140   210A      0.932222   211A      0.933136  
     212A      0.937263   213A      0.950484   214A      0.954977  
     215A      0.959010   216A      0.962627   217A      0.965571  
     218A      0.972792   219A      0.983810   220A      0.989110  
     221A      0.994605   222A      1.004461   223A      1.006795  
     224A      1.010417   225A      1.014882   226A      1.020685  
     227A      1.025520   228A      1.037038   229A      1.041150  
     230A      1.045466   231A      1.054194   232A      1.064668  
     233A      1.072717   234A      1.077522   235A      1.080865  
     236A      1.091752   237A      1.093202   238A      1.098115  
     239A      1.103403   240A      1.107125   241A      1.117103  
     242A      1.124680   243A      1.126703   244A      1.129205  
     245A      1.136519   246A      1.141998   247A      1.154933  
     248A      1.160984   249A      1.165473   250A      1.170445  
     251A      1.180007   252A      1.184831   253A      1.188139  
     254A      1.197843   255A      1.204289   256A      1.208571  
     257A      1.215272   258A      1.218422   259A      1.222605  
     260A      1.229176   261A      1.255743   262A      1.262144  
     263A      1.268090   264A      1.276171   265A      1.278119  
     266A      1.284561   267A      1.288125   268A      1.293643  
     269A      1.297264   270A      1.307070   271A      1.310190  
     272A      1.316968   273A      1.318253   274A      1.339847  
     275A      1.343421   276A      1.349030   277A      1.363012  
     278A      1.375074   279A      1.379485   280A      1.384691  
     281A      1.396474   282A      1.397955   283A      1.405887  
     284A      1.412430   285A      1.417756   286A      1.422534  
     287A      1.429205   288A      1.435469   289A      1.446444  
     290A      1.452290   291A      1.465899   292A      1.471295  
     293A      1.478676   294A      1.484131   295A      1.489189  
     296A      1.499443   297A      1.501852   298A      1.516291  
     299A      1.529056   300A      1.534333   301A      1.543053  
     302A      1.549907   303A      1.550951   304A      1.563589  
     305A      1.571353   306A      1.578103   307A      1.583651  
     308A      1.591616   309A      1.601007   310A      1.610652  
     311A      1.621858   312A      1.629748   313A      1.634885  
     314A      1.642078   315A      1.650760   316A      1.667279  
     317A      1.669807   318A      1.674606   319A      1.685812  
     320A      1.692053   321A      1.699552   322A      1.707189  
     323A      1.713126   324A      1.724304   325A      1.728862  
     326A      1.739105   327A      1.744418   328A      1.748126  
     329A      1.759752   330A      1.778112   331A      1.795332  
     332A      1.799437   333A      1.802623   334A      1.815305  
     335A      1.825032   336A      1.831590   337A      1.838291  
     338A      1.851869   339A      1.861569   340A      1.870342  
     341A      1.882929   342A      1.894944   343A      1.903617  
     344A      1.918364   345A      1.934761   346A      1.948082  
     347A      1.960726   348A      1.971275   349A      1.977273  
     350A      1.985597   351A      1.992291   352A      2.006309  
     353A      2.013157   354A      2.019932   355A      2.026728  
     356A      2.047031   357A      2.054940   358A      2.060382  
     359A      2.075916   360A      2.082344   361A      2.090929  
     362A      2.104104   363A      2.106075   364A      2.123320  
     365A      2.132906   366A      2.136571   367A      2.157306  
     368A      2.165179   369A      2.173524   370A      2.185406  
     371A      2.199755   372A      2.202951   373A      2.211832  
     374A      2.214891   375A      2.233816   376A      2.242045  
     377A      2.254195   378A      2.264705   379A      2.279798  
     380A      2.294179   381A      2.301120   382A      2.314430  
     383A      2.324207   384A      2.334380   385A      2.336875  
     386A      2.339528   387A      2.346585   388A      2.354453  
     389A      2.359149   390A      2.371063   391A      2.394803  
     392A      2.399340   393A      2.408227   394A      2.415602  
     395A      2.429703   396A      2.434823   397A      2.443502  
     398A      2.464438   399A      2.474999   400A      2.484795  
     401A      2.493577   402A      2.510092   403A      2.516744  
     404A      2.528084   405A      2.531442   406A      2.538240  
     407A      2.552109   408A      2.568853   409A      2.573457  
     410A      2.581071   411A      2.605051   412A      2.614992  
     413A      2.623215   414A      2.636169   415A      2.650823  
     416A      2.657747   417A      2.675600   418A      2.691689  
     419A      2.713663   420A      2.725184   421A      2.735281  
     422A      2.742441   423A      2.758012   424A      2.771967  
     425A      2.775418   426A      2.795114   427A      2.813768  
     428A      2.821410   429A      2.845523   430A      2.852610  
     431A      2.863419   432A      2.883347   433A      2.899964  
     434A      2.906248   435A      2.920054   436A      2.949175  
     437A      2.957578   438A      3.002938   439A      3.026264  
     440A      3.035926   441A      3.052412   442A      3.073828  
     443A      3.083483   444A      3.111541   445A      3.139319  
     446A      3.159605   447A      3.181890   448A      3.187590  
     449A      3.230830   450A      3.238454   451A      3.252440  
     452A      3.259091   453A      3.288733   454A      3.329489  
     455A      3.340820   456A      3.363640   457A      3.375482  
     458A      3.390454   459A      3.395986   460A      3.403204  
     461A      3.441167   462A      3.456289   463A      3.483436  
     464A      3.497211   465A      3.521537   466A      3.530261  
     467A      3.537028   468A      3.544361   469A      3.578089  
     470A      3.589219   471A      3.607323   472A      3.623240  
     473A      3.635860   474A      3.646628   475A      3.657693  
     476A      3.670705   477A      3.679327   478A      3.688356  
     479A      3.699848   480A      3.721731   481A      3.723511  
     482A      3.733471   483A      3.742093   484A      3.763324  
     485A      3.775993   486A      3.785458   487A      3.792066  
     488A      3.797478   489A      3.803573   490A      3.811726  
     491A      3.840062   492A      3.850729   493A      3.868657  
     494A      3.871835   495A      3.886010   496A      3.894458  
     497A      3.901395   498A      3.907887   499A      3.931217  
     500A      3.939824   501A      3.952554   502A      3.971842  
     503A      3.980901   504A      3.994053   505A      4.001901  
     506A      4.003077   507A      4.012966   508A      4.026782  
     509A      4.040631   510A      4.067016   511A      4.075103  
     512A      4.079842   513A      4.097210   514A      4.104618  
     515A      4.111130   516A      4.119185   517A      4.139604  
     518A      4.143207   519A      4.164265   520A      4.171682  
     521A      4.172299   522A      4.195359   523A      4.199777  
     524A      4.217488   525A      4.221095   526A      4.236654  
     527A      4.238624   528A      4.264386   529A      4.287118  
     530A      4.290732   531A      4.302075   532A      4.305820  
     533A      4.313298   534A      4.330826   535A      4.348524  
     536A      4.360929   537A      4.375972   538A      4.381501  
     539A      4.389754   540A      4.403024   541A      4.410659  
     542A      4.415576   543A      4.423163   544A      4.430332  
     545A      4.442191   546A      4.452268   547A      4.477468  
     548A      4.494269   549A      4.502636   550A      4.517810  
     551A      4.523142   552A      4.546072   553A      4.559318  
     554A      4.570232   555A      4.594521   556A      4.621863  
     557A      4.628163   558A      4.646094   559A      4.649084  
     560A      4.681028   561A      4.705914   562A      4.715144  
     563A      4.723110   564A      4.742045   565A      4.774211  
     566A      4.781035   567A      4.793994   568A      4.799726  
     569A      4.807994   570A      4.833901   571A      4.849454  
     572A      4.863919   573A      4.880525   574A      4.894339  
     575A      4.920484   576A      4.930153   577A      4.948088  
     578A      4.949140   579A      4.967602   580A      4.991957  
     581A      5.011435   582A      5.023419   583A      5.046399  
     584A      5.064509   585A      5.074829   586A      5.091560  
     587A      5.140186   588A      5.149751   589A      5.153924  
     590A      5.175143   591A      5.186597   592A      5.201962  
     593A      5.222188   594A      5.225946   595A      5.235242  
     596A      5.254618   597A      5.280426   598A      5.291100  
     599A      5.306539   600A      5.314730   601A      5.341497  
     602A      5.372976   603A      5.386498   604A      5.402449  
     605A      5.412381   606A      5.427162   607A      5.466469  
     608A      5.476295   609A      5.476951   610A      5.514421  
     611A      5.527243   612A      5.540081   613A      5.550117  
     614A      5.570780   615A      5.590252   616A      5.601750  
     617A      5.618244   618A      5.625080   619A      5.639303  
     620A      5.650119   621A      5.660991   622A      5.673829  
     623A      5.686988   624A      5.709471   625A      5.720058  
     626A      5.737497   627A      5.752938   628A      5.757654  
     629A      5.782645   630A      5.819504   631A      5.824053  
     632A      5.830148   633A      5.853057   634A      5.886939  
     635A      5.899124   636A      5.914286   637A      5.934548  
     638A      5.950563   639A      5.975655   640A      5.977036  
     641A      5.993865   642A      6.012318   643A      6.045039  
     644A      6.076795   645A      6.093740   646A      6.121471  
     647A      6.138451   648A      6.143772   649A      6.153703  
     650A      6.157321   651A      6.171422   652A      6.186948  
     653A      6.221162   654A      6.229241   655A      6.235874  
     656A      6.270554   657A      6.321618   658A      6.354563  
     659A      6.389233   660A      6.403795   661A      6.467259  
     662A      6.527104   663A      6.562162   664A      6.588940  
     665A      6.626463   666A      6.650163   667A      6.684492  
     668A      6.701882   669A      6.704501   670A      6.736915  
     671A      6.742192   672A      6.758128   673A      6.789699  
     674A      6.834418   675A      6.855546   676A      6.902023  
     677A      6.935101   678A      6.979101   679A      7.010891  
     680A      7.021639   681A      7.062964   682A      7.087170  
     683A      7.121266   684A      7.156116   685A      7.173547  
     686A      7.232192   687A      7.250449   688A      7.298764  
     689A      7.323383   690A      7.401713   691A      7.421459  
     692A      7.445066   693A      7.477076   694A      7.535887  
     695A      7.676949   696A      7.738584   697A      7.800252  
     698A      7.846437   699A      7.925571   700A      7.999985  
     701A      8.047961   702A     16.099809   703A     16.340911  
     704A     16.383550   705A     17.129822   706A     18.154413  
     707A     18.715280   708A     18.921417   709A     19.377416  
     710A     19.983817   711A     20.229340   712A     21.287615  
     713A     21.641450  

    Final Occupation by Irrep:
              A 
    DOCC [    43 ]

  @DF-RHF Final Energy:  -578.62600994768138

   => Energetics <=

    Nuclear Repulsion Energy =            693.6191980883926362
    One-Electron Energy =               -2164.2435322188102873
    Two-Electron Energy =                 891.9983241827361553
    Total Energy =                       -578.6260099476813821

Computation Completed

*** tstop() called on node37.bme.utexas.edu at Mon Nov  9 22:19:13 2020
Module time:
	user time   =     525.91 seconds =       8.77 minutes
	system time =     123.71 seconds =       2.06 minutes
	total time  =        163 seconds =       2.72 minutes
Total time:
	user time   =     525.91 seconds =       8.77 minutes
	system time =     123.71 seconds =       2.06 minutes
	total time  =        163 seconds =       2.72 minutes
   => Loading Basis Set <=

    Name: (AUG-CC-PVTZ AUX)
    Role: RIFIT
    Keyword: DF_BASIS_MP2
    atoms 1     entry O          line   264 file /home/xy3866/psi4conda/share/psi4/basis/aug-cc-pvtz-ri.gbs 
    atoms 2-6   entry N          line   206 file /home/xy3866/psi4conda/share/psi4/basis/aug-cc-pvtz-ri.gbs 
    atoms 7-12  entry C          line   148 file /home/xy3866/psi4conda/share/psi4/basis/aug-cc-pvtz-ri.gbs 
    atoms 13-19 entry H          line    30 file /home/xy3866/psi4conda/share/psi4/basis/aug-cc-pvtz-ri.gbs 


*** tstart() called on node37.bme.utexas.edu
*** at Mon Nov  9 22:19:13 2020


  //>>>>>>>>>>>>>>>>>>>>>>>>>>>>>>>>>>>//
  //               DFMP2               //
  //<<<<<<<<<<<<<<<<<<<<<<<<<<<<<<<<<<<//

	 --------------------------------------------------------
	                          DF-MP2                         
	      2nd-Order Density-Fitted Moller-Plesset Theory     
	              RMP2 Wavefunction,   8 Threads             
	                                                         
	        Rob Parrish, Justin Turney, Andy Simmonett,      
	           Ed Hohenstein, and C. David Sherrill          
	 --------------------------------------------------------

   => Auxiliary Basis Set <=

  Basis Set: (AUG-CC-PVTZ AUX)
    Blend: AUG-CC-PVTZ-RI
    Number of shells: 434
    Number of basis function: 1594
    Number of Cartesian functions: 2017
    Spherical Harmonics?: true
    Max angular momentum: 4

	 --------------------------------------------------------
	                 NBF =   713, NAUX =  1594
	 --------------------------------------------------------
	   CLASS    FOCC     OCC    AOCC    AVIR     VIR    FVIR
	   PAIRS       0      43      43     670     670       0
	 --------------------------------------------------------

  DFHelper Memory: AOs need 5.669 GiB; user supplied 22.352 GiB. Using in-core AOs.


         ------------------------------------------------------------
                                     CPHF                           
                                  Rob Parrish                       
         ------------------------------------------------------------

  ==> Geometry <==

    Molecular point group: c1
    Full point group: C1

    Geometry (in Angstrom), charge = 0, multiplicity = 1:

       Center              X                  Y                   Z               Mass       
    ------------   -----------------  -----------------  -----------------  -----------------
         O           -1.468960383338     2.564495403106     0.093092788499    15.994914619570
         N            1.919972616662    -0.583033596894    -0.042938211501    14.003074004430
         N           -1.909465383338     0.306194403106     0.061199788499    14.003074004430
         N           -0.341903383338    -1.467140596894    -0.026057211501    14.003074004430
         N            1.517457616662     1.640994403106     0.002133788499    14.003074004430
         N           -2.638204683338    -1.917946796894    -0.025917211501    14.003074004430
         C            0.558511616662    -0.436821596894    -0.016837211501    12.000000000000
         C            0.334570616662     0.939767403106     0.003292788499    12.000000000000
         C           -1.021351383338     1.423806403106     0.047871788499    12.000000000000
         C            2.439875616662     0.689585403106    -0.057228211501    12.000000000000
         C           -1.572244383338    -1.025950596894     0.031496788499    12.000000000000
         C            2.636182616662    -1.845226596894    -0.052827211501    12.000000000000
         H            3.510074616662     0.859175403106    -0.073914211501     1.007825032230
         H            2.373747616662    -2.430331596894     0.830440788499     1.007825032230
         H            2.380285616662    -2.413983596894    -0.947814211501     1.007825032230
         H            3.704952616662    -1.630491596894    -0.046541211501     1.007825032230
         H           -2.887168383338     0.569241403106     0.182008788499     1.007825032230
         H           -2.324990383338    -2.867598596894    -0.051547211501     1.007825032230
         H           -3.458880383338    -1.672543596894    -0.404658211501     1.007825032230

  Nuclear repulsion =  693.619198088392636
  Reference energy  = -578.626009947681382

  ==> Basis Set <==

  Basis Set: AUG-CC-PVTZ
    Blend: AUG-CC-PVTZ
    Number of shells: 231
    Number of basis function: 713
    Number of Cartesian functions: 835
    Spherical Harmonics?: true
    Max angular momentum: 3

  ==> CGRSolver (by Rob Parrish) <==

   Number of roots    =         1
   Preconditioning    =    JACOBI
   Convergence cutoff =     1E-06
   Maximum iterations =       100

  ==> CPHFRHamiltonian (by Rob Parrish) <== 

  ==> MemDFJK: Density-Fitted J/K Matrices <==

    J tasked:                   Yes
    K tasked:                   Yes
    wK tasked:                   No
    OpenMP threads:               8
    Memory [MiB]:             22888
    Algorithm:                 Disk
    Schwarz Cutoff:           1E-12
    Mask sparsity (%):       7.2015
    Fitting Condition:        1E-10

   => Auxiliary Basis Set <=

  Basis Set: (AUG-CC-PVTZ AUX)
    Blend: AUG-CC-PVTZ-JKFIT
    Number of shells: 458
    Number of basis function: 1570
    Number of Cartesian functions: 1957
    Spherical Harmonics?: true
    Max angular momentum: 4

  ==> CPHF Iterations <==

  => Iterations <=

             Iter  Converged  Remaining    Residual
  CGR           1          0          1   1.381E-01
  CGR           2          0          1   4.948E-02
  CGR           3          0          1   2.412E-02
  CGR           4          0          1   7.757E-03
  CGR           5          0          1   3.872E-03
  CGR           6          0          1   1.627E-03
  CGR           7          0          1   5.783E-04
  CGR           8          0          1   2.343E-04
  CGR           9          0          1   8.328E-05
  CGR          10          0          1   3.421E-05
  CGR          11          0          1   1.299E-05
  CGR          12          0          1   4.704E-06
  CGR          13          0          1   1.799E-06
  CGR          14          1          0   5.551E-07

    CGRSolver converged.

	-----------------------------------------------------------
	 ==================> DF-MP2 Energies <==================== 
	-----------------------------------------------------------
	 Reference Energy          =    -578.6260099476813821 [Eh]
	 Singles Energy            =      -0.0000000000000000 [Eh]
	 Same-Spin Energy          =      -0.6156528354321800 [Eh]
	 Opposite-Spin Energy      =      -1.8184022701348788 [Eh]
	 Correlation Energy        =      -2.4340551055670590 [Eh]
	 Total Energy              =    -581.0600650532484224 [Eh]
	-----------------------------------------------------------
	 ================> DF-SCS-MP2 Energies <================== 
	-----------------------------------------------------------
	 SCS Same-Spin Scale       =       0.3333333333333333 [-]
	 SCS Opposite-Spin Scale   =       1.2000000000000000 [-]
	 SCS Same-Spin Energy      =      -0.2052176118107266 [Eh]
	 SCS Opposite-Spin Energy  =      -2.1820827241618543 [Eh]
	 SCS Correlation Energy    =      -2.3873003359725811 [Eh]
	 SCS Total Energy          =    -581.0133102836539365 [Eh]
	-----------------------------------------------------------



Properties will be evaluated at  -0.000000,  -0.000000,   0.000000 [a0]

Properties computed using the MP2 density matrix

  Nuclear Dipole Moment: [e a0]
     X:     3.0890      Y:    -8.9689      Z:    -0.4795

  Electronic Dipole Moment: [e a0]
     X:    -3.1568      Y:     6.2712      Z:     0.2412

  Dipole Moment: [e a0]
     X:    -0.0679      Y:    -2.6977      Z:    -0.2383     Total:     2.7091

  Dipole Moment: [D]
     X:    -0.1725      Y:    -6.8569      Z:    -0.6057     Total:     6.8858


*** tstop() called on node37.bme.utexas.edu at Mon Nov  9 22:24:42 2020
Module time:
	user time   =    1595.80 seconds =      26.60 minutes
	system time =     201.94 seconds =       3.37 minutes
	total time  =        329 seconds =       5.48 minutes
Total time:
	user time   =    2122.74 seconds =      35.38 minutes
	system time =     325.72 seconds =       5.43 minutes
	total time  =        492 seconds =       8.20 minutes

    Psi4 stopped on: Monday, 09 November 2020 10:24PM
    Psi4 wall time for execution: 0:08:13.05

*** Psi4 exiting successfully. Buy a developer a beer!
