6930703                                                                 
Freq      RMP2-FC                                                     6-31G(d)            
Number of atoms                            I               16
Info1-9                                    I   N=           9
          28          26        1002           0           0         100
           6           2           1
Charge                                     I               -1
Multiplicity                               I                1
Number of electrons                        I               70
Number of alpha electrons                  I               35
Number of beta electrons                   I               35
Number of basis functions                  I              149
Number of independent functions            I              149
Number of point charges in /Mol/           I                0
Number of translation vectors              I                0
Atomic numbers                             I   N=          16
           8           8           8           8           6           6
           6           6           6           1           1           1
           1           1           1           1
Nuclear charges                            R   N=          16
  8.00000000E+00  8.00000000E+00  8.00000000E+00  8.00000000E+00  6.00000000E+00
  6.00000000E+00  6.00000000E+00  6.00000000E+00  6.00000000E+00  1.00000000E+00
  1.00000000E+00  1.00000000E+00  1.00000000E+00  1.00000000E+00  1.00000000E+00
  1.00000000E+00
Current cartesian coordinates              R   N=          48
  3.53836165E+00 -1.40141896E+00  6.41531129E-01  3.97367728E+00  2.59994454E+00
 -8.12761743E-01 -6.24985950E+00 -6.63736066E-01 -1.76870696E+00 -4.90936546E+00
 -4.80747850E-02  2.30241766E+00 -1.00220464E-01  1.19702743E+00  8.42207143E-01
 -1.83249007E+00 -1.82854029E-01 -1.02521902E+00  2.62613536E+00  9.77585434E-01
  1.42572191E-01 -4.63629275E+00 -2.88840595E-01 -5.92614009E-02  6.10175929E+00
 -1.77074850E+00 -1.33161380E-01 -4.58233109E-01  3.85912638E-01  2.70620650E+00
 -5.74947204E-01  3.20574588E+00  9.11280161E-01 -1.79623078E+00  7.20075901E-01
 -2.88792090E+00 -1.16670741E+00 -2.13073975E+00 -1.27824885E+00  6.54322538E+00
 -3.72189014E+00  3.58635112E-01  7.36873432E+00 -4.72119068E-01  8.53201940E-01
  6.30829895E+00 -1.47372168E+00 -2.16581979E+00
Force Field                                I                0
Int Atom Types                             I   N=          16
           0           0           0           0           0           0
           0           0           0           0           0           0
           0           0           0           0
MM charges                                 R   N=          16
  0.00000000E+00  0.00000000E+00  0.00000000E+00  0.00000000E+00  0.00000000E+00
  0.00000000E+00  0.00000000E+00  0.00000000E+00  0.00000000E+00  0.00000000E+00
  0.00000000E+00  0.00000000E+00  0.00000000E+00  0.00000000E+00  0.00000000E+00
  0.00000000E+00
Integer atomic weights                     I   N=          16
          16          16          16          16          12          12
          12          12          12           1           1           1
           1           1           1           1
Real atomic weights                        R   N=          16
  1.59949146E+01  1.59949146E+01  1.59949146E+01  1.59949146E+01  1.20000000E+01
  1.20000000E+01  1.20000000E+01  1.20000000E+01  1.20000000E+01  1.00782504E+00
  1.00782504E+00  1.00782504E+00  1.00782504E+00  1.00782504E+00  1.00782504E+00
  1.00782504E+00
Atom fragment info                         I   N=          16
           0           0           0           0           0           0
           0           0           0           0           0           0
           0           0           0           0
Atom residue num                           I   N=          16
           0           0           0           0           0           0
           0           0           0           0           0           0
           0           0           0           0
Nuclear spins                              I   N=          16
           0           0           0           0           0           0
           0           0           0           1           1           1
           1           1           1           1
Nuclear ZEff                               R   N=          16
 -5.60000000E+00 -5.60000000E+00 -5.60000000E+00 -5.60000000E+00 -3.60000000E+00
 -3.60000000E+00 -3.60000000E+00 -3.60000000E+00 -3.60000000E+00 -1.00000000E+00
 -1.00000000E+00 -1.00000000E+00 -1.00000000E+00 -1.00000000E+00 -1.00000000E+00
 -1.00000000E+00
Nuclear QMom                               R   N=          16
  0.00000000E+00  0.00000000E+00  0.00000000E+00  0.00000000E+00  0.00000000E+00
  0.00000000E+00  0.00000000E+00  0.00000000E+00  0.00000000E+00  0.00000000E+00
  0.00000000E+00  0.00000000E+00  0.00000000E+00  0.00000000E+00  0.00000000E+00
  0.00000000E+00
Nuclear GFac                               R   N=          16
  0.00000000E+00  0.00000000E+00  0.00000000E+00  0.00000000E+00  0.00000000E+00
  0.00000000E+00  0.00000000E+00  0.00000000E+00  0.00000000E+00  2.79284600E+00
  2.79284600E+00  2.79284600E+00  2.79284600E+00  2.79284600E+00  2.79284600E+00
  2.79284600E+00
MicOpt                                     I   N=          16
          -1          -1          -1          -1          -1          -1
          -1          -1          -1          -1          -1          -1
          -1          -1          -1          -1
Number of contracted shells                I               50
Number of primitive shells                 I              127
Pure/Cartesian d shells                    I                1
Pure/Cartesian f shells                    I                0
Highest angular momentum                   I                2
Largest degree of contraction              I                6
Shell types                                I   N=          50
           0          -1          -1           2           0          -1
          -1           2           0          -1          -1           2
           0          -1          -1           2           0          -1
          -1           2           0          -1          -1           2
           0          -1          -1           2           0          -1
          -1           2           0          -1          -1           2
           0           0           0           0           0           0
           0           0           0           0           0           0
           0           0
Number of primitives per shell             I   N=          50
           6           3           1           1           6           3
           1           1           6           3           1           1
           6           3           1           1           6           3
           1           1           6           3           1           1
           6           3           1           1           6           3
           1           1           6           3           1           1
           3           1           3           1           3           1
           3           1           3           1           3           1
           3           1
Shell to atom map                          I   N=          50
           1           1           1           1           2           2
           2           2           3           3           3           3
           4           4           4           4           5           5
           5           5           6           6           6           6
           7           7           7           7           8           8
           8           8           9           9           9           9
          10          10          11          11          12          12
          13          13          14          14          15          15
          16          16
Primitive exponents                        R   N=         127
  5.48467166E+03  8.25234946E+02  1.88046958E+02  5.29645000E+01  1.68975704E+01
  5.79963534E+00  1.55396162E+01  3.59993359E+00  1.01376175E+00  2.70005823E-01
  8.00000000E-01  5.48467166E+03  8.25234946E+02  1.88046958E+02  5.29645000E+01
  1.68975704E+01  5.79963534E+00  1.55396162E+01  3.59993359E+00  1.01376175E+00
  2.70005823E-01  8.00000000E-01  5.48467166E+03  8.25234946E+02  1.88046958E+02
  5.29645000E+01  1.68975704E+01  5.79963534E+00  1.55396162E+01  3.59993359E+00
  1.01376175E+00  2.70005823E-01  8.00000000E-01  5.48467166E+03  8.25234946E+02
  1.88046958E+02  5.29645000E+01  1.68975704E+01  5.79963534E+00  1.55396162E+01
  3.59993359E+00  1.01376175E+00  2.70005823E-01  8.00000000E-01  3.04752488E+03
  4.57369518E+02  1.03948685E+02  2.92101553E+01  9.28666296E+00  3.16392696E+00
  7.86827235E+00  1.88128854E+00  5.44249258E-01  1.68714478E-01  8.00000000E-01
  3.04752488E+03  4.57369518E+02  1.03948685E+02  2.92101553E+01  9.28666296E+00
  3.16392696E+00  7.86827235E+00  1.88128854E+00  5.44249258E-01  1.68714478E-01
  8.00000000E-01  3.04752488E+03  4.57369518E+02  1.03948685E+02  2.92101553E+01
  9.28666296E+00  3.16392696E+00  7.86827235E+00  1.88128854E+00  5.44249258E-01
  1.68714478E-01  8.00000000E-01  3.04752488E+03  4.57369518E+02  1.03948685E+02
  2.92101553E+01  9.28666296E+00  3.16392696E+00  7.86827235E+00  1.88128854E+00
  5.44249258E-01  1.68714478E-01  8.00000000E-01  3.04752488E+03  4.57369518E+02
  1.03948685E+02  2.92101553E+01  9.28666296E+00  3.16392696E+00  7.86827235E+00
  1.88128854E+00  5.44249258E-01  1.68714478E-01  8.00000000E-01  1.87311370E+01
  2.82539436E+00  6.40121692E-01  1.61277759E-01  1.87311370E+01  2.82539436E+00
  6.40121692E-01  1.61277759E-01  1.87311370E+01  2.82539436E+00  6.40121692E-01
  1.61277759E-01  1.87311370E+01  2.82539436E+00  6.40121692E-01  1.61277759E-01
  1.87311370E+01  2.82539436E+00  6.40121692E-01  1.61277759E-01  1.87311370E+01
  2.82539436E+00  6.40121692E-01  1.61277759E-01  1.87311370E+01  2.82539436E+00
  6.40121692E-01  1.61277759E-01
Contraction coefficients                   R   N=         127
  1.83107443E-03  1.39501722E-02  6.84450781E-02  2.32714336E-01  4.70192898E-01
  3.58520853E-01 -1.10777550E-01 -1.48026263E-01  1.13076702E+00  1.00000000E+00
  1.00000000E+00  1.83107443E-03  1.39501722E-02  6.84450781E-02  2.32714336E-01
  4.70192898E-01  3.58520853E-01 -1.10777550E-01 -1.48026263E-01  1.13076702E+00
  1.00000000E+00  1.00000000E+00  1.83107443E-03  1.39501722E-02  6.84450781E-02
  2.32714336E-01  4.70192898E-01  3.58520853E-01 -1.10777550E-01 -1.48026263E-01
  1.13076702E+00  1.00000000E+00  1.00000000E+00  1.83107443E-03  1.39501722E-02
  6.84450781E-02  2.32714336E-01  4.70192898E-01  3.58520853E-01 -1.10777550E-01
 -1.48026263E-01  1.13076702E+00  1.00000000E+00  1.00000000E+00  1.83473713E-03
  1.40373228E-02  6.88426223E-02  2.32184443E-01  4.67941348E-01  3.62311985E-01
 -1.19332420E-01 -1.60854152E-01  1.14345644E+00  1.00000000E+00  1.00000000E+00
  1.83473713E-03  1.40373228E-02  6.88426223E-02  2.32184443E-01  4.67941348E-01
  3.62311985E-01 -1.19332420E-01 -1.60854152E-01  1.14345644E+00  1.00000000E+00
  1.00000000E+00  1.83473713E-03  1.40373228E-02  6.88426223E-02  2.32184443E-01
  4.67941348E-01  3.62311985E-01 -1.19332420E-01 -1.60854152E-01  1.14345644E+00
  1.00000000E+00  1.00000000E+00  1.83473713E-03  1.40373228E-02  6.88426223E-02
  2.32184443E-01  4.67941348E-01  3.62311985E-01 -1.19332420E-01 -1.60854152E-01
  1.14345644E+00  1.00000000E+00  1.00000000E+00  1.83473713E-03  1.40373228E-02
  6.88426223E-02  2.32184443E-01  4.67941348E-01  3.62311985E-01 -1.19332420E-01
 -1.60854152E-01  1.14345644E+00  1.00000000E+00  1.00000000E+00  3.34946043E-02
  2.34726953E-01  8.13757326E-01  1.00000000E+00  3.34946043E-02  2.34726953E-01
  8.13757326E-01  1.00000000E+00  3.34946043E-02  2.34726953E-01  8.13757326E-01
  1.00000000E+00  3.34946043E-02  2.34726953E-01  8.13757326E-01  1.00000000E+00
  3.34946043E-02  2.34726953E-01  8.13757326E-01  1.00000000E+00  3.34946043E-02
  2.34726953E-01  8.13757326E-01  1.00000000E+00  3.34946043E-02  2.34726953E-01
  8.13757326E-01  1.00000000E+00
P(S=P) Contraction coefficients            R   N=         127
  0.00000000E+00  0.00000000E+00  0.00000000E+00  0.00000000E+00  0.00000000E+00
  0.00000000E+00  7.08742682E-02  3.39752839E-01  7.27158577E-01  1.00000000E+00
  0.00000000E+00  0.00000000E+00  0.00000000E+00  0.00000000E+00  0.00000000E+00
  0.00000000E+00  0.00000000E+00  7.08742682E-02  3.39752839E-01  7.27158577E-01
  1.00000000E+00  0.00000000E+00  0.00000000E+00  0.00000000E+00  0.00000000E+00
  0.00000000E+00  0.00000000E+00  0.00000000E+00  7.08742682E-02  3.39752839E-01
  7.27158577E-01  1.00000000E+00  0.00000000E+00  0.00000000E+00  0.00000000E+00
  0.00000000E+00  0.00000000E+00  0.00000000E+00  0.00000000E+00  7.08742682E-02
  3.39752839E-01  7.27158577E-01  1.00000000E+00  0.00000000E+00  0.00000000E+00
  0.00000000E+00  0.00000000E+00  0.00000000E+00  0.00000000E+00  0.00000000E+00
  6.89990666E-02  3.16423961E-01  7.44308291E-01  1.00000000E+00  0.00000000E+00
  0.00000000E+00  0.00000000E+00  0.00000000E+00  0.00000000E+00  0.00000000E+00
  0.00000000E+00  6.89990666E-02  3.16423961E-01  7.44308291E-01  1.00000000E+00
  0.00000000E+00  0.00000000E+00  0.00000000E+00  0.00000000E+00  0.00000000E+00
  0.00000000E+00  0.00000000E+00  6.89990666E-02  3.16423961E-01  7.44308291E-01
  1.00000000E+00  0.00000000E+00  0.00000000E+00  0.00000000E+00  0.00000000E+00
  0.00000000E+00  0.00000000E+00  0.00000000E+00  6.89990666E-02  3.16423961E-01
  7.44308291E-01  1.00000000E+00  0.00000000E+00  0.00000000E+00  0.00000000E+00
  0.00000000E+00  0.00000000E+00  0.00000000E+00  0.00000000E+00  6.89990666E-02
  3.16423961E-01  7.44308291E-01  1.00000000E+00  0.00000000E+00  0.00000000E+00
  0.00000000E+00  0.00000000E+00  0.00000000E+00  0.00000000E+00  0.00000000E+00
  0.00000000E+00  0.00000000E+00  0.00000000E+00  0.00000000E+00  0.00000000E+00
  0.00000000E+00  0.00000000E+00  0.00000000E+00  0.00000000E+00  0.00000000E+00
  0.00000000E+00  0.00000000E+00  0.00000000E+00  0.00000000E+00  0.00000000E+00
  0.00000000E+00  0.00000000E+00  0.00000000E+00  0.00000000E+00  0.00000000E+00
  0.00000000E+00  0.00000000E+00
Coordinates of each shell                  R   N=         150
  3.53836165E+00 -1.40141896E+00  6.41531129E-01  3.53836165E+00 -1.40141896E+00
  6.41531129E-01  3.53836165E+00 -1.40141896E+00  6.41531129E-01  3.53836165E+00
 -1.40141896E+00  6.41531129E-01  3.97367728E+00  2.59994454E+00 -8.12761743E-01
  3.97367728E+00  2.59994454E+00 -8.12761743E-01  3.97367728E+00  2.59994454E+00
 -8.12761743E-01  3.97367728E+00  2.59994454E+00 -8.12761743E-01 -6.24985950E+00
 -6.63736066E-01 -1.76870696E+00 -6.24985950E+00 -6.63736066E-01 -1.76870696E+00
 -6.24985950E+00 -6.63736066E-01 -1.76870696E+00 -6.24985950E+00 -6.63736066E-01
 -1.76870696E+00 -4.90936546E+00 -4.80747850E-02  2.30241766E+00 -4.90936546E+00
 -4.80747850E-02  2.30241766E+00 -4.90936546E+00 -4.80747850E-02  2.30241766E+00
 -4.90936546E+00 -4.80747850E-02  2.30241766E+00 -1.00220464E-01  1.19702743E+00
  8.42207143E-01 -1.00220464E-01  1.19702743E+00  8.42207143E-01 -1.00220464E-01
  1.19702743E+00  8.42207143E-01 -1.00220464E-01  1.19702743E+00  8.42207143E-01
 -1.83249007E+00 -1.82854029E-01 -1.02521902E+00 -1.83249007E+00 -1.82854029E-01
 -1.02521902E+00 -1.83249007E+00 -1.82854029E-01 -1.02521902E+00 -1.83249007E+00
 -1.82854029E-01 -1.02521902E+00  2.62613536E+00  9.77585434E-01  1.42572191E-01
  2.62613536E+00  9.77585434E-01  1.42572191E-01  2.62613536E+00  9.77585434E-01
  1.42572191E-01  2.62613536E+00  9.77585434E-01  1.42572191E-01 -4.63629275E+00
 -2.88840595E-01 -5.92614009E-02 -4.63629275E+00 -2.88840595E-01 -5.92614009E-02
 -4.63629275E+00 -2.88840595E-01 -5.92614009E-02 -4.63629275E+00 -2.88840595E-01
 -5.92614009E-02  6.10175929E+00 -1.77074850E+00 -1.33161380E-01  6.10175929E+00
 -1.77074850E+00 -1.33161380E-01  6.10175929E+00 -1.77074850E+00 -1.33161380E-01
  6.10175929E+00 -1.77074850E+00 -1.33161380E-01 -4.58233109E-01  3.85912638E-01
  2.70620650E+00 -4.58233109E-01  3.85912638E-01  2.70620650E+00 -5.74947204E-01
  3.20574588E+00  9.11280161E-01 -5.74947204E-01  3.20574588E+00  9.11280161E-01
 -1.79623078E+00  7.20075901E-01 -2.88792090E+00 -1.79623078E+00  7.20075901E-01
 -2.88792090E+00 -1.16670741E+00 -2.13073975E+00 -1.27824885E+00 -1.16670741E+00
 -2.13073975E+00 -1.27824885E+00  6.54322538E+00 -3.72189014E+00  3.58635112E-01
  6.54322538E+00 -3.72189014E+00  3.58635112E-01  7.36873432E+00 -4.72119068E-01
  8.53201940E-01  7.36873432E+00 -4.72119068E-01  8.53201940E-01  6.30829895E+00
 -1.47372168E+00 -2.16581979E+00  6.30829895E+00 -1.47372168E+00 -2.16581979E+00
Constraint Structure                       R   N=          48
  3.53836165E+00 -1.40141896E+00  6.41531129E-01  3.97367728E+00  2.59994454E+00
 -8.12761743E-01 -6.24985950E+00 -6.63736066E-01 -1.76870696E+00 -4.90936546E+00
 -4.80747850E-02  2.30241766E+00 -1.00220464E-01  1.19702743E+00  8.42207143E-01
 -1.83249007E+00 -1.82854029E-01 -1.02521902E+00  2.62613536E+00  9.77585434E-01
  1.42572191E-01 -4.63629275E+00 -2.88840595E-01 -5.92614009E-02  6.10175929E+00
 -1.77074850E+00 -1.33161380E-01 -4.58233109E-01  3.85912638E-01  2.70620650E+00
 -5.74947204E-01  3.20574588E+00  9.11280161E-01 -1.79623078E+00  7.20075901E-01
 -2.88792090E+00 -1.16670741E+00 -2.13073975E+00 -1.27824885E+00  6.54322538E+00
 -3.72189014E+00  3.58635112E-01  7.36873432E+00 -4.72119068E-01  8.53201940E-01
  6.30829895E+00 -1.47372168E+00 -2.16581979E+00
Num ILSW                                   I              100
ILSW                                       I   N=         100
           0           1           0           1           2           0
           0           0           0           0           0          -1
           0           0           0           0           0           0
           0           0           0           0           1           0
           1           0           0           0           0           0
           0           0      100000           0          -1           0
           0           0           0           0           0           0
           0           0           0           1           1           0
           0           0           1           0           0           0
           0           0           4          40           0           0
           0           0           0           0           0           0
           0           0           0           0           0           0
           0           0           0           0           0           0
           0           0           0           0           0           0
           0           0           0           0           0           0
           0           0           0           0           0           0
           0           0           0           0
Num RLSW                                   I               40
RLSW                                       R   N=          40
  1.00000000E+00  1.00000000E+00  1.00000000E+00  1.00000000E+00  1.00000000E+00
  0.00000000E+00  0.00000000E+00  1.00000000E+00  0.00000000E+00  0.00000000E+00
  0.00000000E+00  0.00000000E+00  1.00000000E+00  0.00000000E+00  0.00000000E+00
  0.00000000E+00  0.00000000E+00  1.00000000E+00  0.00000000E+00  0.00000000E+00
  0.00000000E+00  0.00000000E+00  1.00000000E+00  0.00000000E+00  0.00000000E+00
  0.00000000E+00  0.00000000E+00  1.00000000E+00  0.00000000E+00  0.00000000E+00
  0.00000000E+00  0.00000000E+00  0.00000000E+00  0.00000000E+00  0.00000000E+00
  0.00000000E+00  0.00000000E+00  0.00000000E+00  1.00000000E+00  1.00000000E+00
MxBond                                     I                4
NBond                                      I   N=          16
           2           1           1           1           4           4
           3           3           4           1           1           1
           1           1           1           1
IBond                                      I   N=          64
           7           9           0           0           7           0
           0           0           8           0           0           0
           8           0           0           0           6           7
          10          11           5           8          12          13
           1           2           5           0           3           4
           6           0           1          14          15          16
           5           0           0           0           5           0
           0           0           6           0           0           0
           6           0           0           0           9           0
           0           0           9           0           0           0
           9           0           0           0
RBond                                      R   N=          64
  1.50000000E+00  1.00000000E+00  0.00000000E+00  0.00000000E+00  2.00000000E+00
  0.00000000E+00  0.00000000E+00  0.00000000E+00  2.00000000E+00  0.00000000E+00
  0.00000000E+00  0.00000000E+00  2.00000000E+00  0.00000000E+00  0.00000000E+00
  0.00000000E+00  1.00000000E+00  1.00000000E+00  1.00000000E+00  1.00000000E+00
  1.00000000E+00  1.00000000E+00  1.00000000E+00  1.00000000E+00  1.50000000E+00
  2.00000000E+00  1.00000000E+00  0.00000000E+00  2.00000000E+00  2.00000000E+00
  1.00000000E+00  0.00000000E+00  1.00000000E+00  1.00000000E+00  1.00000000E+00
  1.00000000E+00  1.00000000E+00  0.00000000E+00  0.00000000E+00  0.00000000E+00
  1.00000000E+00  0.00000000E+00  0.00000000E+00  0.00000000E+00  1.00000000E+00
  0.00000000E+00  0.00000000E+00  0.00000000E+00  1.00000000E+00  0.00000000E+00
  0.00000000E+00  0.00000000E+00  1.00000000E+00  0.00000000E+00  0.00000000E+00
  0.00000000E+00  1.00000000E+00  0.00000000E+00  0.00000000E+00  0.00000000E+00
  1.00000000E+00  0.00000000E+00  0.00000000E+00  0.00000000E+00
Virial Ratio                               R      2.002705668979076E+00
SCF Energy                                 R     -4.929073179624880E+02
MP2 Energy                                 R     -4.942627972776525E+02
Total Energy                               R     -4.942627972776525E+02
Post-SCF wavefunction norm                 R      1.681543223806529E+00
RMS Force                                  R      6.415044199679506E-07
RMS Density                                R      1.112764835201342E-09
External E-field                           R   N=          35
  0.00000000E+00  0.00000000E+00  0.00000000E+00  0.00000000E+00  0.00000000E+00
  0.00000000E+00  0.00000000E+00  0.00000000E+00  0.00000000E+00  0.00000000E+00
  0.00000000E+00  0.00000000E+00  0.00000000E+00  0.00000000E+00  0.00000000E+00
  0.00000000E+00  0.00000000E+00  0.00000000E+00  0.00000000E+00  0.00000000E+00
  0.00000000E+00  0.00000000E+00  0.00000000E+00  0.00000000E+00  0.00000000E+00
  0.00000000E+00  0.00000000E+00  0.00000000E+00  0.00000000E+00  0.00000000E+00
  0.00000000E+00  0.00000000E+00  0.00000000E+00  0.00000000E+00  0.00000000E+00
IOpCl                                      I                0
IROHF                                      I                0
Alpha Orbital Energies                     R   N=         149
 -2.04970296E+01 -2.04358180E+01 -2.02913038E+01 -2.02869616E+01 -1.12635689E+01
 -1.11900828E+01 -1.11399083E+01 -1.10933678E+01 -1.10684283E+01 -1.33598309E+00
 -1.23219758E+00 -1.15460245E+00 -1.05722572E+00 -9.28120733E-01 -8.52927694E-01
 -7.47444207E-01 -6.55524223E-01 -5.69403458E-01 -5.60125792E-01 -5.55076826E-01
 -5.14971469E-01 -4.78450570E-01 -4.57971687E-01 -4.43244556E-01 -4.22284623E-01
 -4.04201094E-01 -3.91800640E-01 -3.75308841E-01 -3.50367772E-01 -3.40765494E-01
 -3.25948823E-01 -3.12279037E-01 -2.00282558E-01 -1.86812502E-01 -1.82497972E-01
  3.01155587E-01  3.47083209E-01  3.86290286E-01  4.00116554E-01  4.14584613E-01
  4.21612700E-01  4.35493527E-01  4.41389970E-01  4.54715825E-01  5.13910690E-01
  5.39211161E-01  5.80155197E-01  6.31855287E-01  6.47110826E-01  6.61988263E-01
  7.18073236E-01  8.02057564E-01  8.38257586E-01  8.42599156E-01  8.87611509E-01
  9.12312618E-01  9.34599394E-01  9.42516700E-01  9.75175668E-01  1.02779713E+00
  1.05120339E+00  1.06748000E+00  1.08361822E+00  1.09644680E+00  1.11707034E+00
  1.16495306E+00  1.19100480E+00  1.19618388E+00  1.21527855E+00  1.23056730E+00
  1.25445215E+00  1.28729355E+00  1.29228021E+00  1.30383152E+00  1.32750207E+00
  1.33069705E+00  1.35498406E+00  1.37498886E+00  1.38743264E+00  1.41930803E+00
  1.44570432E+00  1.46954661E+00  1.48645011E+00  1.51445229E+00  1.52601322E+00
  1.58536543E+00  1.60164242E+00  1.64010655E+00  1.65545785E+00  1.73835002E+00
  1.77361924E+00  1.81774419E+00  1.86078805E+00  1.89654928E+00  1.94622855E+00
  2.01076803E+00  2.03196195E+00  2.05850281E+00  2.11673346E+00  2.12952955E+00
  2.17862175E+00  2.20539707E+00  2.24717632E+00  2.25452677E+00  2.28565068E+00
  2.29224525E+00  2.31409573E+00  2.33945009E+00  2.37092064E+00  2.38661582E+00
  2.41288497E+00  2.45522194E+00  2.47335921E+00  2.48069762E+00  2.49432356E+00
  2.50460740E+00  2.55151365E+00  2.56313939E+00  2.60293526E+00  2.67364544E+00
  2.70147472E+00  2.74095509E+00  2.77137654E+00  2.83817113E+00  2.85593318E+00
  2.94057987E+00  2.98693426E+00  3.03152923E+00  3.06349038E+00  3.10303010E+00
  3.15990744E+00  3.20150035E+00  3.29086292E+00  3.39802125E+00  3.42056000E+00
  3.47647309E+00  3.49145264E+00  3.54886565E+00  3.60030543E+00  3.70940744E+00
  4.49054417E+00  4.52808632E+00  4.63366548E+00  4.71947294E+00  4.76828681E+00
  4.85532773E+00  4.87275400E+00  5.03627539E+00  5.17548996E+00
Alpha MO coefficients                      R   N=       22201
  9.94655777E-01  2.12217627E-02  6.94440283E-04  8.70646189E-04 -5.32313059E-04
  3.77429331E-03 -5.28113832E-04 -4.56108795E-04  3.26782694E-04 -4.15650373E-03
 -4.05667606E-03 -3.92775072E-03  8.19920321E-05  8.33223610E-05  3.99653303E-05
 -2.66592109E-04  4.15310601E-05 -1.28349251E-06  3.67724967E-05 -1.52452187E-05
 -3.36441656E-04 -7.69743650E-06  1.31092907E-04 -2.34286983E-05  5.33748630E-05
 -4.57536224E-05  1.16993878E-05 -5.47519186E-06 -1.49775857E-05  2.18597784E-05
 -2.13328598E-06 -9.79727270E-06 -7.17029106E-10 -4.05789846E-07  1.17627315E-06
  8.14823774E-05  2.98075355E-05  4.28013725E-06  3.92214385E-06 -3.54575397E-06
 -2.62362962E-06 -7.42578767E-06  1.78809285E-06  3.76499744E-06 -6.19265273E-07
  4.55607806E-06  2.06653919E-05 -3.23798302E-06  1.14179785E-06 -4.03607245E-06
 -1.27191317E-04  8.56564670E-06 -8.43630407E-07  4.10973967E-05  1.40420381E-05
  1.29890669E-05  8.14354283E-06 -4.89768701E-07  8.55171507E-07 -3.78257388E-07
  5.36119177E-06  6.70390718E-05 -4.02270108E-06 -3.16013873E-05 -2.29375651E-06
  1.80389439E-04 -2.62235365E-05  3.04511292E-04 -3.33575256E-05 -4.87282249E-05
 -6.78768459E-06 -5.67931969E-06  4.25150440E-05  7.44413517E-06 -4.21487240E-07
 -5.88414216E-06 -3.81688067E-05  2.92692207E-05  1.55894132E-05  4.42747168E-06
  3.10602651E-04 -8.66756732E-05 -1.73591063E-04  2.79991852E-05  1.70477271E-05
 -1.79498445E-05 -5.70743341E-06 -7.87525865E-06 -1.02160078E-06 -1.17807968E-05
 -4.17804773E-06  3.22960758E-04  1.30912792E-04 -2.97007507E-04  6.18278762E-05
  5.81479611E-05  3.20240391E-04  6.74291972E-05 -1.65919888E-04  1.45161239E-05
 -2.05160425E-05 -4.39127966E-05  8.96433327E-07 -2.08761604E-05 -1.41669967E-05
  1.19162946E-06  1.59987362E-05 -1.04502455E-05  5.98186928E-06  4.31387363E-06
 -1.04223133E-04 -5.54836427E-05  2.44934498E-05  1.41811568E-04 -1.49946701E-05
  1.52833735E-06 -8.72771269E-07  3.38587107E-06 -1.84410351E-06 -2.13581132E-06
 -1.24938645E-05  2.35802461E-04 -3.96817109E-04  5.45447263E-05  1.20430896E-04
  1.21937875E-04  1.58806286E-04  1.21064757E-04 -8.84770941E-05  1.04356407E-04
 -4.43387950E-05 -2.04832936E-05 -3.98657802E-05 -4.11132888E-05  2.22273906E-05
  5.76163446E-05 -3.58141477E-05 -3.14322679E-05 -1.77455814E-04 -5.83112116E-06
  2.51911853E-05  2.98864818E-05 -2.33566036E-04  3.90770580E-06 -5.59000318E-05
 -3.82317478E-05 -1.22184985E-04 -3.55270514E-05 -1.21737078E-04  2.72389724E-04
 -3.17494599E-05 -9.83222318E-06 -3.88927922E-05  1.64762180E-05  7.54564004E-05
  2.45149073E-05  4.47655874E-05 -2.20316624E-05  2.79254645E-05 -5.18763002E-05
 -6.13087766E-05 -6.59936314E-05 -9.69762638E-06  1.95687493E-05  9.94687997E-01
  2.09937470E-02 -8.43362783E-04 -1.08915364E-03  6.25168536E-04  4.45037721E-03
  3.84233950E-05  3.29868852E-05 -1.32172447E-05 -3.83156658E-03 -3.79336891E-03
 -4.04233317E-03  1.08658368E-04 -1.44563504E-04 -1.62408608E-04 -2.14620994E-06
 -9.31361270E-06 -1.97119196E-07 -6.52572384E-07  1.28857920E-07  7.19281152E-05
  2.09878926E-05  6.13136537E-06  7.15222037E-06 -4.08272037E-06 -3.76518898E-06
 -6.73775686E-06  6.98114019E-07  2.30079470E-06  2.67449049E-07  2.57355750E-06
  1.31767122E-05 -2.06516444E-06  1.45541602E-08 -1.74200585E-06 -8.64638374E-05
  1.73111408E-06  2.80399265E-06  2.56774936E-05  8.59390998E-06  7.46629499E-06
  4.89943396E-06 -6.78544345E-07  6.10690018E-07 -6.11409593E-07 -5.77765887E-07
 -9.35929896E-06  5.21410662E-06 -2.71953664E-05  2.23320699E-06 -4.21151300E-07
 -6.03603464E-05  2.95229267E-05 -4.82301032E-06  1.89401231E-05  9.70533884E-07
 -1.67917078E-05 -5.97399824E-05  1.01538087E-05  1.53624884E-05  2.79627477E-06
  5.35143189E-06  1.44327772E-05  2.09149816E-06  4.05691169E-06 -1.82361257E-05
 -1.06926292E-04 -1.59140886E-05 -2.70851318E-05  8.60354802E-06  4.17039397E-06
  9.63759831E-06  3.94228935E-06 -3.29503836E-06 -3.04588137E-06 -4.23245184E-06
  4.92814156E-04 -1.58949522E-05 -1.38758656E-05  1.57534071E-05 -3.21650172E-04
 -2.89132697E-04 -3.26401838E-04  1.70154526E-04 -3.06092263E-04 -4.10867804E-04
 -1.67531008E-04 -3.31556140E-04  2.04468505E-04  2.42845714E-04  1.41849816E-06