8036                                                                    
Freq      RMP2-FC                                                     6-31G(d)            
Number of atoms                            I               16
Info1-9                                    I   N=           9
          28          26        1002           0           0         100
           6           2           1
Charge                                     I                0
Multiplicity                               I                1
Number of electrons                        I               62
Number of alpha electrons                  I               31
Number of beta electrons                   I               31
Number of basis functions                  I              136
Number of independent functions            I              136
Number of point charges in /Mol/           I                0
Number of translation vectors              I                0
Atomic numbers                             I   N=          16
           8           8           7           7           6           6
           6           6           1           1           1           1
           1           1           1           1
Nuclear charges                            R   N=          16
  8.00000000E+00  8.00000000E+00  7.00000000E+00  7.00000000E+00  6.00000000E+00
  6.00000000E+00  6.00000000E+00  6.00000000E+00  1.00000000E+00  1.00000000E+00
  1.00000000E+00  1.00000000E+00  1.00000000E+00  1.00000000E+00  1.00000000E+00
  1.00000000E+00
Current cartesian coordinates              R   N=          48
 -3.91876302E+00  2.38647463E+00 -9.28857037E-01  3.91876445E+00 -2.38647427E+00
 -9.28856264E-01 -5.62427539E+00 -1.23477972E+00  6.54230719E-01  5.62427507E+00
  1.23478065E+00  6.54229777E-01 -1.04983436E+00 -9.78062249E-01  2.61045540E-01
  1.04983347E+00  9.78060617E-01  2.61048460E-01 -3.62503348E+00  2.38775823E-01
 -8.43462660E-02  3.62503345E+00 -2.38775538E-01 -8.43455064E-02 -7.19371754E-01
 -2.31543995E+00 -1.28584006E+00 -1.01735525E+00 -2.09338909E+00  2.00485056E+00
  7.19370762E-01  2.31544277E+00 -1.28583335E+00  1.01735329E+00  2.09338274E+00
  2.00485654E+00 -5.39388801E+00 -3.10883668E+00  9.36782479E-01 -7.36426948E+00
 -6.34351743E-01  1.35236739E-01  5.39388745E+00  3.10883757E+00  9.36781233E-01
  7.36426927E+00  6.34353091E-01  1.35235433E-01
Force Field                                I                0
Int Atom Types                             I   N=          16
           0           0           0           0           0           0
           0           0           0           0           0           0
           0           0           0           0
MM charges                                 R   N=          16
  0.00000000E+00  0.00000000E+00  0.00000000E+00  0.00000000E+00  0.00000000E+00
  0.00000000E+00  0.00000000E+00  0.00000000E+00  0.00000000E+00  0.00000000E+00
  0.00000000E+00  0.00000000E+00  0.00000000E+00  0.00000000E+00  0.00000000E+00
  0.00000000E+00
Integer atomic weights                     I   N=          16
          16          16          14          14          12          12
          12          12           1           1           1           1
           1           1           1           1
Real atomic weights                        R   N=          16
  1.59949146E+01  1.59949146E+01  1.40030740E+01  1.40030740E+01  1.20000000E+01
  1.20000000E+01  1.20000000E+01  1.20000000E+01  1.00782504E+00  1.00782504E+00
  1.00782504E+00  1.00782504E+00  1.00782504E+00  1.00782504E+00  1.00782504E+00
  1.00782504E+00
Atom fragment info                         I   N=          16
           0           0           0           0           0           0
           0           0           0           0           0           0
           0           0           0           0
Atom residue num                           I   N=          16
           0           0           0           0           0           0
           0           0           0           0           0           0
           0           0           0           0
Nuclear spins                              I   N=          16
           0           0           2           2           0           0
           0           0           1           1           1           1
           1           1           1           1
Nuclear ZEff                               R   N=          16
 -5.60000000E+00 -5.60000000E+00 -4.55000000E+00 -4.55000000E+00 -3.60000000E+00
 -3.60000000E+00 -3.60000000E+00 -3.60000000E+00 -1.00000000E+00 -1.00000000E+00
 -1.00000000E+00 -1.00000000E+00 -1.00000000E+00 -1.00000000E+00 -1.00000000E+00
 -1.00000000E+00
Nuclear QMom                               R   N=          16
  0.00000000E+00  0.00000000E+00  2.04400000E+00  2.04400000E+00  0.00000000E+00
  0.00000000E+00  0.00000000E+00  0.00000000E+00  0.00000000E+00  0.00000000E+00
  0.00000000E+00  0.00000000E+00  0.00000000E+00  0.00000000E+00  0.00000000E+00
  0.00000000E+00
Nuclear GFac                               R   N=          16
  0.00000000E+00  0.00000000E+00  4.03761000E-01  4.03761000E-01  0.00000000E+00
  0.00000000E+00  0.00000000E+00  0.00000000E+00  2.79284600E+00  2.79284600E+00
  2.79284600E+00  2.79284600E+00  2.79284600E+00  2.79284600E+00  2.79284600E+00
  2.79284600E+00
MicOpt                                     I   N=          16
          -1          -1          -1          -1          -1          -1
          -1          -1          -1          -1          -1          -1
          -1          -1          -1          -1
Number of contracted shells                I               48
Number of primitive shells                 I              120
Pure/Cartesian d shells                    I                1
Pure/Cartesian f shells                    I                0
Highest angular momentum                   I                2
Largest degree of contraction              I                6
Shell types                                I   N=          48
           0          -1          -1           2           0          -1
          -1           2           0          -1          -1           2
           0          -1          -1           2           0          -1
          -1           2           0          -1          -1           2
           0          -1          -1           2           0          -1
          -1           2           0           0           0           0
           0           0           0           0           0           0
           0           0           0           0           0           0
Number of primitives per shell             I   N=          48
           6           3           1           1           6           3
           1           1           6           3           1           1
           6           3           1           1           6           3
           1           1           6           3           1           1
           6           3           1           1           6           3
           1           1           3           1           3           1
           3           1           3           1           3           1
           3           1           3           1           3           1
Shell to atom map                          I   N=          48
           1           1           1           1           2           2
           2           2           3           3           3           3
           4           4           4           4           5           5
           5           5           6           6           6           6
           7           7           7           7           8           8
           8           8           9           9          10          10
          11          11          12          12          13          13
          14          14          15          15          16          16
Primitive exponents                        R   N=         120
  5.48467166E+03  8.25234946E+02  1.88046958E+02  5.29645000E+01  1.68975704E+01
  5.79963534E+00  1.55396162E+01  3.59993359E+00  1.01376175E+00  2.70005823E-01
  8.00000000E-01  5.48467166E+03  8.25234946E+02  1.88046958E+02  5.29645000E+01
  1.68975704E+01  5.79963534E+00  1.55396162E+01  3.59993359E+00  1.01376175E+00
  2.70005823E-01  8.00000000E-01  4.17351146E+03  6.27457911E+02  1.42902093E+02
  4.02343293E+01  1.28202129E+01  4.39043701E+00  1.16263619E+01  2.71627981E+00
  7.72218397E-01  2.12031498E-01  8.00000000E-01  4.17351146E+03  6.27457911E+02
  1.42902093E+02  4.02343293E+01  1.28202129E+01  4.39043701E+00  1.16263619E+01
  2.71627981E+00  7.72218397E-01  2.12031498E-01  8.00000000E-01  3.04752488E+03
  4.57369518E+02  1.03948685E+02  2.92101553E+01  9.28666296E+00  3.16392696E+00
  7.86827235E+00  1.88128854E+00  5.44249258E-01  1.68714478E-01  8.00000000E-01
  3.04752488E+03  4.57369518E+02  1.03948685E+02  2.92101553E+01  9.28666296E+00
  3.16392696E+00  7.86827235E+00  1.88128854E+00  5.44249258E-01  1.68714478E-01
  8.00000000E-01  3.04752488E+03  4.57369518E+02  1.03948685E+02  2.92101553E+01
  9.28666296E+00  3.16392696E+00  7.86827235E+00  1.88128854E+00  5.44249258E-01
  1.68714478E-01  8.00000000E-01  3.04752488E+03  4.57369518E+02  1.03948685E+02
  2.92101553E+01  9.28666296E+00  3.16392696E+00  7.86827235E+00  1.88128854E+00
  5.44249258E-01  1.68714478E-01  8.00000000E-01  1.87311370E+01  2.82539436E+00
  6.40121692E-01  1.61277759E-01  1.87311370E+01  2.82539436E+00  6.40121692E-01
  1.61277759E-01  1.87311370E+01  2.82539436E+00  6.40121692E-01  1.61277759E-01
  1.87311370E+01  2.82539436E+00  6.40121692E-01  1.61277759E-01  1.87311370E+01
  2.82539436E+00  6.40121692E-01  1.61277759E-01  1.87311370E+01  2.82539436E+00
  6.40121692E-01  1.61277759E-01  1.87311370E+01  2.82539436E+00  6.40121692E-01
  1.61277759E-01  1.87311370E+01  2.82539436E+00  6.40121692E-01  1.61277759E-01
Contraction coefficients                   R   N=         120
  1.83107443E-03  1.39501722E-02  6.84450781E-02  2.32714336E-01  4.70192898E-01
  3.58520853E-01 -1.10777550E-01 -1.48026263E-01  1.13076702E+00  1.00000000E+00
  1.00000000E+00  1.83107443E-03  1.39501722E-02  6.84450781E-02  2.32714336E-01
  4.70192898E-01  3.58520853E-01 -1.10777550E-01 -1.48026263E-01  1.13076702E+00
  1.00000000E+00  1.00000000E+00  1.83477216E-03  1.39946270E-02  6.85865518E-02
  2.32240873E-01  4.69069948E-01  3.60455199E-01 -1.14961182E-01 -1.69117479E-01
  1.14585195E+00  1.00000000E+00  1.00000000E+00  1.83477216E-03  1.39946270E-02
  6.85865518E-02  2.32240873E-01  4.69069948E-01  3.60455199E-01 -1.14961182E-01
 -1.69117479E-01  1.14585195E+00  1.00000000E+00  1.00000000E+00  1.83473713E-03
  1.40373228E-02  6.88426223E-02  2.32184443E-01  4.67941348E-01  3.62311985E-01
 -1.19332420E-01 -1.60854152E-01  1.14345644E+00  1.00000000E+00  1.00000000E+00
  1.83473713E-03  1.40373228E-02  6.88426223E-02  2.32184443E-01  4.67941348E-01
  3.62311985E-01 -1.19332420E-01 -1.60854152E-01  1.14345644E+00  1.00000000E+00
  1.00000000E+00  1.83473713E-03  1.40373228E-02  6.88426223E-02  2.32184443E-01
  4.67941348E-01  3.62311985E-01 -1.19332420E-01 -1.60854152E-01  1.14345644E+00
  1.00000000E+00  1.00000000E+00  1.83473713E-03  1.40373228E-02  6.88426223E-02
  2.32184443E-01  4.67941348E-01  3.62311985E-01 -1.19332420E-01 -1.60854152E-01
  1.14345644E+00  1.00000000E+00  1.00000000E+00  3.34946043E-02  2.34726953E-01
  8.13757326E-01  1.00000000E+00  3.34946043E-02  2.34726953E-01  8.13757326E-01
  1.00000000E+00  3.34946043E-02  2.34726953E-01  8.13757326E-01  1.00000000E+00
  3.34946043E-02  2.34726953E-01  8.13757326E-01  1.00000000E+00  3.34946043E-02
  2.34726953E-01  8.13757326E-01  1.00000000E+00  3.34946043E-02  2.34726953E-01
  8.13757326E-01  1.00000000E+00  3.34946043E-02  2.34726953E-01  8.13757326E-01
  1.00000000E+00  3.34946043E-02  2.34726953E-01  8.13757326E-01  1.00000000E+00
P(S=P) Contraction coefficients            R   N=         120
  0.00000000E+00  0.00000000E+00  0.00000000E+00  0.00000000E+00  0.00000000E+00
  0.00000000E+00  7.08742682E-02  3.39752839E-01  7.27158577E-01  1.00000000E+00
  0.00000000E+00  0.00000000E+00  0.00000000E+00  0.00000000E+00  0.00000000E+00
  0.00000000E+00  0.00000000E+00  7.08742682E-02  3.39752839E-01  7.27158577E-01
  1.00000000E+00  0.00000000E+00  0.00000000E+00  0.00000000E+00  0.00000000E+00
  0.00000000E+00  0.00000000E+00  0.00000000E+00  6.75797439E-02  3.23907296E-01
  7.40895140E-01  1.00000000E+00  0.00000000E+00  0.00000000E+00  0.00000000E+00
  0.00000000E+00  0.00000000E+00  0.00000000E+00  0.00000000E+00  6.75797439E-02
  3.23907296E-01  7.40895140E-01  1.00000000E+00  0.00000000E+00  0.00000000E+00
  0.00000000E+00  0.00000000E+00  0.00000000E+00  0.00000000E+00  0.00000000E+00
  6.89990666E-02  3.16423961E-01  7.44308291E-01  1.00000000E+00  0.00000000E+00
  0.00000000E+00  0.00000000E+00  0.00000000E+00  0.00000000E+00  0.00000000E+00
  0.00000000E+00  6.89990666E-02  3.16423961E-01  7.44308291E-01  1.00000000E+00
  0.00000000E+00  0.00000000E+00  0.00000000E+00  0.00000000E+00  0.00000000E+00
  0.00000000E+00  0.00000000E+00  6.89990666E-02  3.16423961E-01  7.44308291E-01
  1.00000000E+00  0.00000000E+00  0.00000000E+00  0.00000000E+00  0.00000000E+00
  0.00000000E+00  0.00000000E+00  0.00000000E+00  6.89990666E-02  3.16423961E-01
  7.44308291E-01  1.00000000E+00  0.00000000E+00  0.00000000E+00  0.00000000E+00
  0.00000000E+00  0.00000000E+00  0.00000000E+00  0.00000000E+00  0.00000000E+00
  0.00000000E+00  0.00000000E+00  0.00000000E+00  0.00000000E+00  0.00000000E+00
  0.00000000E+00  0.00000000E+00  0.00000000E+00  0.00000000E+00  0.00000000E+00
  0.00000000E+00  0.00000000E+00  0.00000000E+00  0.00000000E+00  0.00000000E+00
  0.00000000E+00  0.00000000E+00  0.00000000E+00  0.00000000E+00  0.00000000E+00
  0.00000000E+00  0.00000000E+00  0.00000000E+00  0.00000000E+00  0.00000000E+00
Coordinates of each shell                  R   N=         144
 -3.91876302E+00  2.38647463E+00 -9.28857037E-01 -3.91876302E+00  2.38647463E+00
 -9.28857037E-01 -3.91876302E+00  2.38647463E+00 -9.28857037E-01 -3.91876302E+00
  2.38647463E+00 -9.28857037E-01  3.91876445E+00 -2.38647427E+00 -9.28856264E-01
  3.91876445E+00 -2.38647427E+00 -9.28856264E-01  3.91876445E+00 -2.38647427E+00
 -9.28856264E-01  3.91876445E+00 -2.38647427E+00 -9.28856264E-01 -5.62427539E+00
 -1.23477972E+00  6.54230719E-01 -5.62427539E+00 -1.23477972E+00  6.54230719E-01
 -5.62427539E+00 -1.23477972E+00  6.54230719E-01 -5.62427539E+00 -1.23477972E+00
  6.54230719E-01  5.62427507E+00  1.23478065E+00  6.54229777E-01  5.62427507E+00
  1.23478065E+00  6.54229777E-01  5.62427507E+00  1.23478065E+00  6.54229777E-01
  5.62427507E+00  1.23478065E+00  6.54229777E-01 -1.04983436E+00 -9.78062249E-01
  2.61045540E-01 -1.04983436E+00 -9.78062249E-01  2.61045540E-01 -1.04983436E+00
 -9.78062249E-01  2.61045540E-01 -1.04983436E+00 -9.78062249E-01  2.61045540E-01
  1.04983347E+00  9.78060617E-01  2.61048460E-01  1.04983347E+00  9.78060617E-01
  2.61048460E-01  1.04983347E+00  9.78060617E-01  2.61048460E-01  1.04983347E+00
  9.78060617E-01  2.61048460E-01 -3.62503348E+00  2.38775823E-01 -8.43462660E-02
 -3.62503348E+00  2.38775823E-01 -8.43462660E-02 -3.62503348E+00  2.38775823E-01
 -8.43462660E-02 -3.62503348E+00  2.38775823E-01 -8.43462660E-02  3.62503345E+00
 -2.38775538E-01 -8.43455064E-02  3.62503345E+00 -2.38775538E-01 -8.43455064E-02
  3.62503345E+00 -2.38775538E-01 -8.43455064E-02  3.62503345E+00 -2.38775538E-01
 -8.43455064E-02 -7.19371754E-01 -2.31543995E+00 -1.28584006E+00 -7.19371754E-01
 -2.31543995E+00 -1.28584006E+00 -1.01735525E+00 -2.09338909E+00  2.00485056E+00
 -1.01735525E+00 -2.09338909E+00  2.00485056E+00  7.19370762E-01  2.31544277E+00
 -1.28583335E+00  7.19370762E-01  2.31544277E+00 -1.28583335E+00  1.01735329E+00
  2.09338274E+00  2.00485654E+00  1.01735329E+00  2.09338274E+00  2.00485654E+00
 -5.39388801E+00 -3.10883668E+00  9.36782479E-01 -5.39388801E+00 -3.10883668E+00
  9.36782479E-01 -7.36426948E+00 -6.34351743E-01  1.35236739E-01 -7.36426948E+00
 -6.34351743E-01  1.35236739E-01  5.39388745E+00  3.10883757E+00  9.36781233E-01
  5.39388745E+00  3.10883757E+00  9.36781233E-01  7.36426927E+00  6.34353091E-01
  1.35235433E-01  7.36426927E+00  6.34353091E-01  1.35235433E-01
Constraint Structure                       R   N=          48
 -3.91876302E+00  2.38647463E+00 -9.28857037E-01  3.91876445E+00 -2.38647427E+00
 -9.28856264E-01 -5.62427539E+00 -1.23477972E+00  6.54230719E-01  5.62427507E+00
  1.23478065E+00  6.54229777E-01 -1.04983436E+00 -9.78062249E-01  2.61045540E-01
  1.04983347E+00  9.78060617E-01  2.61048460E-01 -3.62503348E+00  2.38775823E-01
 -8.43462660E-02  3.62503345E+00 -2.38775538E-01 -8.43455064E-02 -7.19371754E-01
 -2.31543995E+00 -1.28584006E+00 -1.01735525E+00 -2.09338909E+00  2.00485056E+00
  7.19370762E-01  2.31544277E+00 -1.28583335E+00  1.01735329E+00  2.09338274E+00
  2.00485654E+00 -5.39388801E+00 -3.10883668E+00  9.36782479E-01 -7.36426948E+00
 -6.34351743E-01  1.35236739E-01  5.39388745E+00  3.10883757E+00  9.36781233E-01
  7.36426927E+00  6.34353091E-01  1.35235433E-01
Num ILSW                                   I              100
ILSW                                       I   N=         100
           0           1           0           0           2           0
           0           0           0           0           0          -1
           0           0           0           0           0           0
           0           0           0           0           1           0
           1           0           0           0           0           0
           0           0      100000           0          -1           0
           0           0           0           0           0           0
           0           0           0           1           1           0
           0           0           1           0           0           0
           0           0           4          40           0           0
           0           0           0           0           0           0
           0           0           0           0           0           0
           0           0           0           0           0           0
           0           0           0           0           0           0
           0           0           0           0           0           0
           0           0           0           0           0           0
           0           0           0           0
Num RLSW                                   I               40
RLSW                                       R   N=          40
  1.00000000E+00  1.00000000E+00  1.00000000E+00  1.00000000E+00  1.00000000E+00
  0.00000000E+00  0.00000000E+00  1.00000000E+00  0.00000000E+00  0.00000000E+00
  0.00000000E+00  0.00000000E+00  1.00000000E+00  0.00000000E+00  0.00000000E+00
  0.00000000E+00  0.00000000E+00  1.00000000E+00  0.00000000E+00  0.00000000E+00
  0.00000000E+00  0.00000000E+00  1.00000000E+00  0.00000000E+00  0.00000000E+00
  0.00000000E+00  0.00000000E+00  1.00000000E+00  0.00000000E+00  0.00000000E+00
  0.00000000E+00  0.00000000E+00  0.00000000E+00  0.00000000E+00  0.00000000E+00
  0.00000000E+00  0.00000000E+00  0.00000000E+00  1.00000000E+00  1.00000000E+00
MxBond                                     I                4
NBond                                      I   N=          16
           1           1           3           3           4           4
           3           3           1           1           1           1
           1           1           1           1
IBond                                      I   N=          64
           7           0           0           0           8           0
           0           0           7          13          14           0
           8          15          16           0           6           7
           9          10           5           8          11          12
           1           3           5           0           2           4
           6           0           5           0           0           0
           5           0           0           0           6           0
           0           0           6           0           0           0
           3           0           0           0           3           0
           0           0           4           0           0           0
           4           0           0           0
RBond                                      R   N=          64
  2.00000000E+00  0.00000000E+00  0.00000000E+00  0.00000000E+00  2.00000000E+00
  0.00000000E+00  0.00000000E+00  0.00000000E+00  1.41000000E+00  1.00000000E+00
  1.00000000E+00  0.00000000E+00  1.41000000E+00  1.00000000E+00  1.00000000E+00
  0.00000000E+00  1.00000000E+00  1.00000000E+00  1.00000000E+00  1.00000000E+00
  1.00000000E+00  1.00000000E+00  1.00000000E+00  1.00000000E+00  2.00000000E+00
  1.41000000E+00  1.00000000E+00  0.00000000E+00  2.00000000E+00  1.41000000E+00
  1.00000000E+00  0.00000000E+00  1.00000000E+00  0.00000000E+00  0.00000000E+00
  0.00000000E+00  1.00000000E+00  0.00000000E+00  0.00000000E+00  0.00000000E+00
  1.00000000E+00  0.00000000E+00  0.00000000E+00  0.00000000E+00  1.00000000E+00
  0.00000000E+00  0.00000000E+00  0.00000000E+00  1.00000000E+00  0.00000000E+00
  0.00000000E+00  0.00000000E+00  1.00000000E+00  0.00000000E+00  0.00000000E+00
  0.00000000E+00  1.00000000E+00  0.00000000E+00  0.00000000E+00  0.00000000E+00
  1.00000000E+00  0.00000000E+00  0.00000000E+00  0.00000000E+00
Virial Ratio                               R      2.002923813448641E+00
SCF Energy                                 R     -4.147908860945525E+02
MP2 Energy                                 R     -4.159786918568059E+02
Total Energy                               R     -4.159786918568059E+02
Post-SCF wavefunction norm                 R      1.653754844015885E+00
RMS Force                                  R      6.464742663195067E-08
RMS Density                                R      2.789075199775767E-10
External E-field                           R   N=          35
  0.00000000E+00  0.00000000E+00  0.00000000E+00  0.00000000E+00  0.00000000E+00
  0.00000000E+00  0.00000000E+00  0.00000000E+00  0.00000000E+00  0.00000000E+00
  0.00000000E+00  0.00000000E+00  0.00000000E+00  0.00000000E+00  0.00000000E+00
  0.00000000E+00  0.00000000E+00  0.00000000E+00  0.00000000E+00  0.00000000E+00
  0.00000000E+00  0.00000000E+00  0.00000000E+00  0.00000000E+00  0.00000000E+00
  0.00000000E+00  0.00000000E+00  0.00000000E+00  0.00000000E+00  0.00000000E+00
  0.00000000E+00  0.00000000E+00  0.00000000E+00  0.00000000E+00  0.00000000E+00
IOpCl                                      I                0
IROHF                                      I                0
Alpha Orbital Energies                     R   N=         136
 -2.05289779E+01 -2.05289778E+01 -1.55904976E+01 -1.55904974E+01 -1.13586860E+01
 -1.13586859E+01 -1.12447628E+01 -1.12441372E+01 -1.37509074E+00 -1.37293767E+00
 -1.20870681E+00 -1.20866004E+00 -1.07228082E+00 -9.34459602E-01 -8.01930210E-01
 -7.71118504E-01 -7.19903166E-01 -7.19786336E-01 -6.75598326E-01 -6.65630109E-01
 -6.31404959E-01 -6.02173447E-01 -5.75797537E-01 -5.57032769E-01 -5.46841962E-01
 -5.15865812E-01 -4.94729549E-01 -4.24895745E-01 -4.24399103E-01 -4.13359428E-01
 -4.10368952E-01  1.85026977E-01  1.99800253E-01  2.13018936E-01  2.19525758E-01
  2.59861911E-01  2.67852289E-01  2.87775599E-01  3.06150181E-01  3.14209983E-01
  3.60754372E-01  3.98457151E-01  4.26268364E-01  4.33042994E-01  5.08423903E-01
  5.46981356E-01  5.56655749E-01  5.79145291E-01  7.40365904E-01  7.51712271E-01
  7.65662480E-01  7.92378793E-01  8.07672080E-01  8.32720858E-01  8.72385991E-01
  9.09214380E-01  9.25588136E-01  9.34513791E-01  9.53232789E-01  9.68524911E-01
  9.81023369E-01  9.91332712E-01  1.01545982E+00  1.06835772E+00  1.07194679E+00
  1.09435728E+00  1.11749093E+00  1.12738169E+00  1.15890340E+00  1.16586453E+00
  1.17584526E+00  1.18407215E+00  1.19233098E+00  1.19868346E+00  1.22493953E+00
  1.23834921E+00  1.32036083E+00  1.37872096E+00  1.40103696E+00  1.41374223E+00
  1.43956497E+00  1.48590352E+00  1.48695395E+00  1.53643928E+00  1.60851567E+00
  1.65993342E+00  1.68145967E+00  1.70335218E+00  1.80760973E+00  1.86997357E+00
  1.93079924E+00  1.96882550E+00  1.99448750E+00  2.03723629E+00  2.05534456E+00
  2.10347358E+00  2.13429076E+00  2.13486725E+00  2.15893702E+00  2.16590608E+00
  2.19864329E+00  2.22866323E+00  2.24579846E+00  2.30705657E+00  2.33612945E+00
  2.35197246E+00  2.37072487E+00  2.47547142E+00  2.51044152E+00  2.56140250E+00
  2.57049710E+00  2.61224845E+00  2.65551279E+00  2.72068555E+00  2.76332246E+00
  2.76810827E+00  2.83690657E+00  2.86424003E+00  2.95085599E+00  2.96853169E+00
  2.97857939E+00  3.03358326E+00  3.19518828E+00  3.19560833E+00  3.33463902E+00
  3.37194017E+00  3.43134226E+00  3.45695363E+00  4.21733584E+00  4.22282179E+00
  4.44390889E+00  4.45800583E+00  4.61146727E+00  4.75119377E+00  4.85980763E+00
  4.98880154E+00
Alpha MO coefficients                      R   N=       18496
  9.18032732E-01  1.93514981E-02  1.64271797E-04 -1.30592563E-03  5.10235126E-04
  4.16603411E-03 -3.07712718E-05  5.40010463E-05 -1.42305272E-05 -3.60386608E-03
 -3.43896619E-03 -3.74934691E-03 -3.12178003E-05  7.90277483E-06 -1.66358204E-04
 -3.82907701E-01 -8.06361205E-03  6.90299009E-05 -5.43362917E-04 -2.11851007E-04
 -1.77140096E-03 -2.88982278E-05  1.31778442E-05 -1.76904264E-07  1.50888312E-03
  1.43904880E-03  1.57191826E-03  1.04106616E-05  2.79916101E-06 -7.08921509E-05
 -8.34535041E-06 -3.38321135E-05  3.28398562E-06 -3.20393784E-05  1.41472340E-05
  1.42829518E-04 -1.37131214E-05  1.07864877E-04 -4.77660855E-05  5.82421206E-05
 -7.70589555E-05 -4.90262342E-05 -7.12449067E-06 -2.03844523E-06  9.35661972E-06
  5.86354899E-06  2.34674465E-05 -1.11529436E-06 -1.41609761E-05 -6.19011386E-06
 -1.29816189E-04  1.85543637E-05  7.54799606E-05  3.34519048E-05 -2.09875360E-05
  3.50183594E-05  2.69790119E-05  1.15591894E-06 -2.29744761E-06  1.17499440E-06
  7.43167134E-07  1.27946704E-05 -1.77917023E-06 -1.85344918E-05  1.98348538E-06
 -2.42639629E-04  2.46844517E-04 -2.26996219E-05  8.86433103E-05  2.19123400E-05
 -3.12765013E-05 -1.73631148E-05  4.39018612E-05 -1.48713785E-05  1.16539686E-05
 -2.37684060E-06 -1.06748412E-05 -1.22424031E-05 -1.71937580E-06  7.99107088E-06
  2.24599011E-04  2.22012745E-04 -1.24939955E-05 -1.14252574E-04 -1.12416680E-05
 -3.38680213E-07  3.25744797E-06 -2.75592743E-05 -1.02691257E-05  5.84564653E-06
 -5.75663045E-06  4.48234926E-04 -1.30608015E-05 -1.55021319E-05  4.74374864E-06
 -1.71414018E-04  3.59405163E-04 -4.68835833E-04  1.60025088E-04 -5.23983987E-05
 -6.04791154E-04 -1.35463015E-04  6.81974047E-05 -3.12290697E-05  2.56242653E-04
  4.80298707E-06 -1.74220459E-04 -3.69667551E-06 -1.04114566E-05  1.05283176E-06
  2.21925340E-06  2.77711623E-04 -2.10381221E-04 -6.44106302E-05  2.13690803E-05
  2.53054984E-04  6.18002798E-05 -2.39875601E-05 -1.36549077E-05  1.07090357E-04
  7.17181588E-06  4.52326510E-05  3.09937188E-06 -4.84401856E-05  1.17933225E-05
 -1.32239757E-04  5.47249673E-06  4.02578404E-05  2.91798820E-05  1.62009396E-06
 -3.11963314E-05 -2.89981687E-05 -1.16240333E-05 -9.79760853E-06  1.58090641E-05
  4.01789852E-06  3.82912685E-01  8.08264787E-03  6.77897436E-05 -5.46598093E-04
  2.14192569E-04  1.68967068E-03  9.99522245E-06  3.58062867E-05 -1.46227198E-05
 -1.49504041E-03 -1.42776031E-03 -1.55237274E-03 -1.67305877E-05  4.00280128E-06
 -6.72494621E-05  9.18034811E-01  1.93594377E-02 -1.63755687E-04  1.30727464E-03
  5.11211657E-04  4.13194443E-03  1.45491885E-05 -6.34393308E-05 -2.04035164E-05
 -3.59809220E-03 -3.43425792E-03 -3.74119445E-03 -3.38537865E-05 -8.40504563E-06
  1.64838707E-04 -9.44851426E-08 -8.14275268E-07  4.90149065E-06 -1.22302993E-05
  5.48958097E-06 -4.02551586E-05 -4.02184083E-05  1.65762161E-06 -6.95714034E-07
  2.89899226E-05 -2.80520427E-05 -1.11678915E-05 -5.55210493E-06  1.20666270E-06
  7.77919341E-06 -5.93911282E-06 -2.43836460E-05 -5.79350915E-06  3.12341880E-05
  1.38550870E-05  7.18938717E-05  3.82272098E-05 -7.70739235E-05 -3.41036407E-05
  6.15797236E-05 -7.41533705E-05 -4.24315337E-05 -8.95814515E-06  5.76744211E-07
 -1.21111901E-05 -2.62749461E-06 -2.25015366E-06  1.56023942E-05 -1.62742470E-05
  1.33601255E-05  7.41662351E-05 -6.62444420E-05 -5.16620278E-06 -7.28584150E-05
  6.15216321E-06 -3.20670147E-05 -1.29052450E-05  5.16804386E-06 -4.23756228E-07
  3.46114177E-06 -1.34412844E-06  7.40366699E-06 -9.83482295E-06  2.46052779E-05
  1.08890266E-05 -1.18025545E-04 -1.26613066E-04  1.96430538E-05  1.05996548E-05
  1.97895189E-05 -4.47927691E-05 -2.13871974E-05  3.45625502E-05  1.07648755E-05
 -1.06594012E-05  1.01258834E-06  2.05060902E-04 -7.93615527E-06 -8.58323601E-07
  6.28692577E-06 -1.69955732E-04 -3.17310517E-05 -1.74472539E-04  7.00656140E-05
 -2.25463215E-05 -2.51123345E-04 -4.89703776E-05  3.47802949E-05 -1.21312960E-05
  1.06576915E-04 -3.33095719E-06  4.61098475E-04  1.48291360E-05  1.15173370E-05
  7.80506560E-06 -2.41376779E-04 -2.30338046E-04  4.53858200E-04  1.62383995E-04
 -5.28895211E-05 -6.03985120E-04 -1.30111635E-04  7.26995797E-05  3.05937886E-05
 -2.56028312E-04  2.40036938E-05 -1.42261442E-04  1.09077100E-05  8.29622988E-06
  2.21026665E-05 -6.92613297E-05  9.93154899E-06 -2.81883683E-05  1.29480320E-05
 -1.22886263E-05 -9.03659093E-06 -2.35746038E-05  2.97321040E-05 -7.59204210E-06
 -2.83716019E-05 -3.71554247E-05 -1.97144655E-05 -1.18632631E-04  9.66793404E-07
  1.73156076E-05 -4.57710566E-06  7.00936238E-04  2.39694667E-04 -1.32779234E-04
  5.53919710E-05 -5.30880422E-05 -5.88654467E-05 -8.76000125E-05 -5.34496894E-05
  1.88554645E-05 -1.85401332E-05 -1.86842502E-05 -1.09216833E-04 -9.67762909E-07
 -1.50123533E-05 -3.80471008E-06  6.51690892E-04 -2.07317318E-04  1.23817973E-04
  5.01588143E-05 -5.05993455E-05 -5.48823833E-05 -7.99685032E-05 -4.61267498E-05