opt=(Tight,CalcAll)                                                     
Freq      RMP2-FC                                                     6-31G(d)            
Number of atoms                            I                7
Info1-9                                    I   N=           9
          16          16        1002           0           0         100
           6           2           1
Charge                                     I                0
Multiplicity                               I                1
Number of electrons                        I               24
Number of alpha electrons                  I               12
Number of beta electrons                   I               12
Number of basis functions                  I               53
Number of independent functions            I               53
Number of point charges in /Mol/           I                0
Number of translation vectors              I                0
Atomic numbers                             I   N=           7
           6           1           7           1           7           1
           1
Nuclear charges                            R   N=           7
  6.00000000E+00  1.00000000E+00  7.00000000E+00  1.00000000E+00  7.00000000E+00
  1.00000000E+00  1.00000000E+00
Current cartesian coordinates              R   N=          21
 -2.28978711E-01  7.59673434E-01 -4.08084576E-03 -2.14598983E-01  2.83115423E+00
 -3.44641622E-02 -2.21350923E+00 -6.37499128E-01  3.64915626E-02 -3.78836255E+00
  4.77759158E-01 -4.24768224E-03  2.15823050E+00 -2.79413980E-01 -1.55653366E-01
  3.57242018E+00  7.08890534E-01  6.67244144E-01  2.19136471E+00 -2.15745277E+00
  2.30085397E-01
Force Field                                I                0
Int Atom Types                             I   N=           7
           0           0           0           0           0           0
           0
MM charges                                 R   N=           7
  0.00000000E+00  0.00000000E+00  0.00000000E+00  0.00000000E+00  0.00000000E+00
  0.00000000E+00  0.00000000E+00
Integer atomic weights                     I   N=           7
          12           1          14           1          14           1
           1
Real atomic weights                        R   N=           7
  1.20000000E+01  1.00782504E+00  1.40030740E+01  1.00782504E+00  1.40030740E+01
  1.00782504E+00  1.00782504E+00
Atom fragment info                         I   N=           7
           0           0           0           0           0           0
           0
Atom residue num                           I   N=           7
           0           0           0           0           0           0
           0
Nuclear spins                              I   N=           7
           0           1           2           1           2           1
           1
Nuclear ZEff                               R   N=           7
 -3.60000000E+00 -1.00000000E+00 -4.55000000E+00 -1.00000000E+00 -4.55000000E+00
 -1.00000000E+00 -1.00000000E+00
Nuclear QMom                               R   N=           7
  0.00000000E+00  0.00000000E+00  2.04400000E+00  0.00000000E+00  2.04400000E+00
  0.00000000E+00  0.00000000E+00
Nuclear GFac                               R   N=           7
  0.00000000E+00  2.79284600E+00  4.03761000E-01  2.79284600E+00  4.03761000E-01
  2.79284600E+00  2.79284600E+00
MicOpt                                     I   N=           7
          -1          -1          -1          -1          -1          -1
          -1
Number of contracted shells                I               20
Number of primitive shells                 I               49
Pure/Cartesian d shells                    I                1
Pure/Cartesian f shells                    I                0
Highest angular momentum                   I                2
Largest degree of contraction              I                6
Shell types                                I   N=          20
           0          -1          -1           2           0           0
           0          -1          -1           2           0           0
           0          -1          -1           2           0           0
           0           0
Number of primitives per shell             I   N=          20
           6           3           1           1           3           1
           6           3           1           1           3           1
           6           3           1           1           3           1
           3           1
Shell to atom map                          I   N=          20
           1           1           1           1           2           2
           3           3           3           3           4           4
           5           5           5           5           6           6
           7           7
Primitive exponents                        R   N=          49
  3.04752488E+03  4.57369518E+02  1.03948685E+02  2.92101553E+01  9.28666296E+00
  3.16392696E+00  7.86827235E+00  1.88128854E+00  5.44249258E-01  1.68714478E-01
  8.00000000E-01  1.87311370E+01  2.82539436E+00  6.40121692E-01  1.61277759E-01
  4.17351146E+03  6.27457911E+02  1.42902093E+02  4.02343293E+01  1.28202129E+01
  4.39043701E+00  1.16263619E+01  2.71627981E+00  7.72218397E-01  2.12031498E-01
  8.00000000E-01  1.87311370E+01  2.82539436E+00  6.40121692E-01  1.61277759E-01
  4.17351146E+03  6.27457911E+02  1.42902093E+02  4.02343293E+01  1.28202129E+01
  4.39043701E+00  1.16263619E+01  2.71627981E+00  7.72218397E-01  2.12031498E-01
  8.00000000E-01  1.87311370E+01  2.82539436E+00  6.40121692E-01  1.61277759E-01
  1.87311370E+01  2.82539436E+00  6.40121692E-01  1.61277759E-01
Contraction coefficients                   R   N=          49
  1.83473713E-03  1.40373228E-02  6.88426223E-02  2.32184443E-01  4.67941348E-01
  3.62311985E-01 -1.19332420E-01 -1.60854152E-01  1.14345644E+00  1.00000000E+00
  1.00000000E+00  3.34946043E-02  2.34726953E-01  8.13757326E-01  1.00000000E+00
  1.83477216E-03  1.39946270E-02  6.85865518E-02  2.32240873E-01  4.69069948E-01
  3.60455199E-01 -1.14961182E-01 -1.69117479E-01  1.14585195E+00  1.00000000E+00
  1.00000000E+00  3.34946043E-02  2.34726953E-01  8.13757326E-01  1.00000000E+00
  1.83477216E-03  1.39946270E-02  6.85865518E-02  2.32240873E-01  4.69069948E-01
  3.60455199E-01 -1.14961182E-01 -1.69117479E-01  1.14585195E+00  1.00000000E+00
  1.00000000E+00  3.34946043E-02  2.34726953E-01  8.13757326E-01  1.00000000E+00
  3.34946043E-02  2.34726953E-01  8.13757326E-01  1.00000000E+00
P(S=P) Contraction coefficients            R   N=          49
  0.00000000E+00  0.00000000E+00  0.00000000E+00  0.00000000E+00  0.00000000E+00
  0.00000000E+00  6.89990666E-02  3.16423961E-01  7.44308291E-01  1.00000000E+00
  0.00000000E+00  0.00000000E+00  0.00000000E+00  0.00000000E+00  0.00000000E+00
  0.00000000E+00  0.00000000E+00  0.00000000E+00  0.00000000E+00  0.00000000E+00
  0.00000000E+00  6.75797439E-02  3.23907296E-01  7.40895140E-01  1.00000000E+00
  0.00000000E+00  0.00000000E+00  0.00000000E+00  0.00000000E+00  0.00000000E+00
  0.00000000E+00  0.00000000E+00  0.00000000E+00  0.00000000E+00  0.00000000E+00
  0.00000000E+00  6.75797439E-02  3.23907296E-01  7.40895140E-01  1.00000000E+00
  0.00000000E+00  0.00000000E+00  0.00000000E+00  0.00000000E+00  0.00000000E+00
  0.00000000E+00  0.00000000E+00  0.00000000E+00  0.00000000E+00
Coordinates of each shell                  R   N=          60
 -2.28978711E-01  7.59673434E-01 -4.08084576E-03 -2.28978711E-01  7.59673434E-01
 -4.08084576E-03 -2.28978711E-01  7.59673434E-01 -4.08084576E-03 -2.28978711E-01
  7.59673434E-01 -4.08084576E-03 -2.14598983E-01  2.83115423E+00 -3.44641622E-02
 -2.14598983E-01  2.83115423E+00 -3.44641622E-02 -2.21350923E+00 -6.37499128E-01
  3.64915626E-02 -2.21350923E+00 -6.37499128E-01  3.64915626E-02 -2.21350923E+00
 -6.37499128E-01  3.64915626E-02 -2.21350923E+00 -6.37499128E-01  3.64915626E-02
 -3.78836255E+00  4.77759158E-01 -4.24768224E-03 -3.78836255E+00  4.77759158E-01
 -4.24768224E-03  2.15823050E+00 -2.79413980E-01 -1.55653366E-01  2.15823050E+00
 -2.79413980E-01 -1.55653366E-01  2.15823050E+00 -2.79413980E-01 -1.55653366E-01
  2.15823050E+00 -2.79413980E-01 -1.55653366E-01  3.57242018E+00  7.08890534E-01
  6.67244144E-01  3.57242018E+00  7.08890534E-01  6.67244144E-01  2.19136471E+00
 -2.15745277E+00  2.30085397E-01  2.19136471E+00 -2.15745277E+00  2.30085397E-01
Constraint Structure                       R   N=          21
 -2.28978711E-01  7.59673434E-01 -4.08084576E-03 -2.14598983E-01  2.83115423E+00
 -3.44641622E-02 -2.21350923E+00 -6.37499128E-01  3.64915626E-02 -3.78836255E+00
  4.77759158E-01 -4.24768224E-03  2.15823050E+00 -2.79413980E-01 -1.55653366E-01
  3.57242018E+00  7.08890534E-01  6.67244144E-01  2.19136471E+00 -2.15745277E+00
  2.30085397E-01
Num ILSW                                   I              100
ILSW                                       I   N=         100
           0           1           0           0           2           0
           0           0           0           0           0          -1
           0           0           0           0           0           0
           0           0           0           0           1           0
           1           0           0           0           0           0
           0           0      100000           0          -1           0
           0           0           0           0           0           0
           0           0           0           1           1           0
           0           0           1           0           0           0
           0           0           4          40           0           0
           0           0           0           0           0           0
           0           0           0           0           0           0
           0           0           0           0           0           0
           0           0           0           0           0           0
           0           0           0           0           0           0
           0           0           0           0           0           0
           0           0           0           0
Num RLSW                                   I               40
RLSW                                       R   N=          40
  1.00000000E+00  1.00000000E+00  1.00000000E+00  1.00000000E+00  1.00000000E+00
  0.00000000E+00  0.00000000E+00  1.00000000E+00  0.00000000E+00  0.00000000E+00
  0.00000000E+00  0.00000000E+00  1.00000000E+00  0.00000000E+00  0.00000000E+00
  0.00000000E+00  0.00000000E+00  1.00000000E+00  0.00000000E+00  0.00000000E+00
  0.00000000E+00  0.00000000E+00  1.00000000E+00  0.00000000E+00  0.00000000E+00
  0.00000000E+00  0.00000000E+00  1.00000000E+00  0.00000000E+00  0.00000000E+00
  0.00000000E+00  0.00000000E+00  0.00000000E+00  0.00000000E+00  0.00000000E+00
  0.00000000E+00  0.00000000E+00  0.00000000E+00  1.00000000E+00  1.00000000E+00
MxBond                                     I                3
NBond                                      I   N=           7
           3           1           2           1           3           1
           1
IBond                                      I   N=          21
           2           3           5           1           0           0
           1           4           0           3           0           0
           1           6           7           5           0           0
           5           0           0
RBond                                      R   N=          21
  1.00000000E+00  2.00000000E+00  1.50000000E+00  1.00000000E+00  0.00000000E+00
  0.00000000E+00  2.00000000E+00  1.00000000E+00  0.00000000E+00  1.00000000E+00
  0.00000000E+00  0.00000000E+00  1.50000000E+00  1.00000000E+00  1.00000000E+00
  1.00000000E+00  0.00000000E+00  0.00000000E+00  1.00000000E+00  0.00000000E+00
  0.00000000E+00
Virial Ratio                               R      2.003109027772624E+00
SCF Energy                                 R     -1.490737121648603E+02
MP2 Energy                                 R     -1.495260169589519E+02
Total Energy                               R     -1.495260169589519E+02
Post-SCF wavefunction norm                 R      1.514098122571618E+00
RMS Force                                  R      2.498599539736442E-08
RMS Density                                R      1.424902169089078E-09
External E-field                           R   N=          35
  0.00000000E+00  0.00000000E+00  0.00000000E+00  0.00000000E+00  0.00000000E+00
  0.00000000E+00  0.00000000E+00  0.00000000E+00  0.00000000E+00  0.00000000E+00
  0.00000000E+00  0.00000000E+00  0.00000000E+00  0.00000000E+00  0.00000000E+00
  0.00000000E+00  0.00000000E+00  0.00000000E+00  0.00000000E+00  0.00000000E+00
  0.00000000E+00  0.00000000E+00  0.00000000E+00  0.00000000E+00  0.00000000E+00
  0.00000000E+00  0.00000000E+00  0.00000000E+00  0.00000000E+00  0.00000000E+00
  0.00000000E+00  0.00000000E+00  0.00000000E+00  0.00000000E+00  0.00000000E+00
IOpCl                                      I                0
IROHF                                      I                0
Alpha Orbital Energies                     R   N=          53
 -1.55749025E+01 -1.55305519E+01 -1.13149194E+01 -1.24877181E+00 -1.13338834E+00
 -8.18009226E-01 -7.29940231E-01 -6.22143147E-01 -6.13074280E-01 -5.17085870E-01
 -4.19873792E-01 -3.63456230E-01  1.98635791E-01  2.25967644E-01  2.54355102E-01
  2.94117354E-01  3.26220650E-01  4.77342093E-01  5.47086114E-01  7.80471402E-01
  7.83591811E-01  8.32216986E-01  8.58634774E-01  9.61680002E-01  1.00445348E+00
  1.03178298E+00  1.05237097E+00  1.09350067E+00  1.15738281E+00  1.18703045E+00
  1.22017165E+00  1.27464530E+00  1.31945488E+00  1.44702154E+00  1.55547797E+00
  1.66818865E+00  1.78737423E+00  2.03127714E+00  2.07511661E+00  2.13249729E+00
  2.19253136E+00  2.46342200E+00  2.48464527E+00  2.61908533E+00  2.66714823E+00
  2.79474249E+00  2.87662288E+00  2.95731210E+00  3.15725633E+00  3.24867924E+00
  4.14996090E+00  4.21111973E+00  4.58363345E+00
Alpha MO coefficients                      R   N=        2809
  1.43612920E-05  2.53933060E-04  1.82084533E-04 -6.87133915E-05 -5.01384364E-06
  1.30270848E-03  5.63161610E-04 -4.99573740E-04  1.10769859E-04 -1.86837751E-04
 -7.65187780E-05 -8.24686019E-05  5.00619182E-05  1.13330122E-05 -1.62628599E-05
 -4.43859214E-05  4.85789812E-05 -2.80538322E-04 -1.32462541E-05 -3.27871731E-05
  7.53858472E-07 -4.06711044E-06 -2.72738795E-04 -1.59093121E-04  9.03114779E-05
 -3.14336159E-05 -1.35080138E-05  6.56510907E-05 -2.59081486E-05  6.23990540E-06
 -5.69442768E-06 -8.42316890E-06 -1.78530165E-05  3.97157508E-05  9.94936834E-01
  2.50838815E-02 -2.84488049E-04  4.44788671E-05  9.32068217E-04 -2.09716862E-03
  5.35407707E-04 -1.01950990E-04 -6.10730399E-04 -3.50882020E-03 -3.52170107E-03
 -3.39393442E-03 -1.20600356E-05 -2.29555330E-05 -1.73647849E-05  2.53951129E-04
  4.03673472E-04  2.81198912E-04  4.13012587E-04  3.25885319E-05  3.14975014E-04
  1.11884515E-04  9.20041779E-05 -3.65852742E-06  1.81812631E-03 -9.90394487E-04
 -3.25592960E-04  6.09517744E-06 -5.52462224E-04 -2.35529249E-04 -3.69783320E-05
 -3.04107181E-04  1.00977005E-05  1.09498422E-05 -7.47546522E-05 -1.56641342E-04
  9.95113948E-01  2.45141070E-02  3.88174714E-04  1.91052138E-03 -6.02499368E-05
 -2.76923524E-03 -2.23670369E-04 -1.47098911E-03  4.60074087E-05 -2.99233922E-03
 -3.01678837E-03 -3.39987471E-03  2.66605580E-04 -6.01960659E-06 -5.83477278E-06
  2.72022708E-04  7.45387395E-04  2.90115397E-04 -2.66130982E-05  5.58413988E-06
 -7.38747583E-06  1.25441445E-06  8.40552820E-05  7.43006173E-05  2.67504320E-04
  1.63028369E-05 -8.62745413E-07  5.40151210E-05 -3.37964741E-05 -6.23962711E-05
  3.54584792E-06  2.19766480E-05 -3.76080930E-05 -2.10630546E-05  3.65617353E-05
  3.34053809E-05  9.95650875E-01  2.63725235E-02  5.78746260E-04 -2.06798930E-04
 -6.90863963E-05 -7.66711621E-03 -6.30490767E-04 -9.10404674E-04  1.07511467E-04
 -1.30464865E-03 -1.75453832E-03 -2.58356632E-03  1.59861642E-04 -3.86160423E-05
  1.45404110E-06 -1.41892205E-04  2.29237171E-03 -4.54111889E-04  1.51186548E-05
 -2.22640939E-06  3.82525468E-05  4.15794703E-06  6.43101550E-04  9.39056176E-05
 -1.25215725E-04 -2.46089993E-05 -2.36653610E-04 -1.79160461E-04  2.75556033E-05
  1.02797098E-04 -3.28052610E-06 -8.68773845E-07  1.51507214E-04  1.94958401E-04
 -2.65791707E-04  2.02232654E-04  1.00393258E-04 -7.63782216E-05  1.39411620E-05
  1.06499985E-03  9.14127033E-05  2.78544612E-04 -9.00148282E-05 -5.79338477E-04
 -2.38761766E-04  6.71039588E-05  2.59199180E-04  3.85972256E-05 -2.70093912E-06
 -4.01555048E-05  1.18618261E-04  7.93296143E-05  2.10563920E-04 -1.29431180E-01
  2.57390538E-01  1.76499342E-02 -7.92914925E-02 -9.65946903E-04  8.17922164E-02
  2.95645541E-04  2.92076306E-02  7.57464149E-04  2.01191637E-02  1.44416272E-03
 -1.57284062E-02  5.09240072E-04 -5.66059660E-04  3.34686121E-05  4.63294886E-02
 -7.35631473E-03 -9.99023566E-02  2.03965364E-01  6.04024017E-02  6.39612594E-02
 -2.20627887E-03  2.02175179E-01  2.21650711E-02  2.58235068E-02 -1.09493808E-03
  8.51881206E-03  2.13825709E-03 -6.56098729E-03  4.12261576E-03 -1.47117801E-04
 -3.79486906E-04  5.16688316E-02 -3.78620065E-03 -1.45692215E-01  3.01602265E-01
 -5.92278158E-02  1.56018095E-02  3.54648022E-02  3.08979593E-01 -2.69581988E-02
  3.03656103E-03  2.12035711E-02  1.38012064E-02  1.02871132E-02 -5.02101759E-03
 -9.19854770E-04  2.67176326E-03  1.05245274E-03  7.97994276E-02  7.03711938E-05
  8.12728100E-02 -1.82058164E-03 -4.68963668E-02  9.38888001E-02 -2.15551317E-01
 -4.20621457E-02  3.03780445E-03  4.15377338E-02 -1.40697473E-02  8.84325650E-03
  1.59649475E-03 -1.63103799E-03  2.22842295E-03 -4.39964412E-03  2.47097937E-02
 -2.42496013E-04 -3.66760799E-04  1.50949968E-02 -3.29317158E-03 -1.51049495E-01
  3.10542745E-01  2.98859605E-02  1.01153450E-01 -2.46264556E-03  3.13523415E-01
  6.38890900E-03  4.41088839E-02 -9.81646418E-04  9.00786385E-03  7.56765301E-03
 -1.01032506E-02 -5.15756427E-04  9.62871526E-05 -6.76746086E-04  1.05571633E-01
  4.61650780E-03  1.27589611E-01 -2.67267632E-01 -1.77702783E-02 -4.16994633E-03
 -3.71757692E-02 -2.83972288E-01 -1.44982203E-02 -2.82520912E-03 -2.19312318E-02
 -3.23720014E-03 -1.29759750E-02  2.22286065E-03 -3.51367403E-03 -5.97569006E-03
 -1.35885330E-03 -9.50078051E-02 -5.46444537E-03 -8.25721564E-02 -2.05293888E-03
 -1.31017465E-01  2.76262310E-01  1.15172176E-01  1.31335578E-01 -1.33375145E-02
  2.31704952E-01  2.02771062E-02  7.29309278E-02  4.36144798E-03 -1.60532827E-03
  1.90268952E-02 -1.18851698E-02 -3.83328565E-03 -2.11682609E-03  7.43609773E-04
  1.76081146E-01  7.03249833E-02  7.26606365E-02 -1.54119316E-01  1.21560111E-01
  1.29078538E-02 -2.79999609E-03 -1.96170529E-01  5.98281540E-02 -2.81386377E-03
 -3.94825981E-03 -6.60071803E-03  1.06338060E-04  4.55478027E-03  1.60540087E-02
 -9.70156726E-04 -4.08356856E-04 -1.06137162E-01 -3.63429877E-02  4.62507774E-02
 -9.75217508E-02 -2.11834615E-01  1.80825321E-01 -4.64211191E-02 -1.40707574E-01
 -1.09464549E-01  8.87602234E-02 -2.85871892E-02  8.62478316E-03 -1.44293234E-02
 -1.78263962E-03 -1.50943180E-02 -1.01134444E-02  6.02042188E-03 -8.27585690E-02
 -2.68787349E-02 -1.36038078E-01 -4.27479823E-02  1.66225058E-02 -4.48630795E-02
 -3.47508877E-03  2.66192536E-01  1.37898275E-02 -1.48265353E-02  5.93521642E-04
  8.24557194E-02  3.74009513E-03  2.39295798E-03  3.09684659E-03  1.81621894E-03
  5.34970962E-03  2.30058058E-03 -1.19162583E-03  1.20282633E-01  7.69015071E-02
 -1.02576493E-02  1.69880433E-02 -2.25255368E-01  6.86765743E-02  6.66164386E-03
  5.55111892E-02 -9.11071215E-02  4.45913585E-02  2.25174142E-03 -2.02351939E-03
  9.23864575E-03 -3.74888872E-03 -2.01522640E-02  1.25439587E-03  3.80156994E-04
  1.34888760E-01  6.69937338E-02 -5.70813825E-03  8.79692939E-03  2.55028574E-01
  2.38691372E-01  5.51703718E-02  2.28961181E-02  1.32639782E-01  1.41104623E-01
  3.07555385E-02  1.51010548E-03 -5.18490355E-03  5.12125545E-03  9.48355010E-03
  1.49900260E-02  1.60139888E-02  1.95724516E-01  8.68558862E-02 -1.14370131E-01
 -3.57532867E-02  3.44141660E-02 -6.94393693E-02  2.95866815E-01 -1.91703272E-01
 -3.56620612E-02 -1.11955451E-01  7.65627410E-02 -1.09208614E-01 -8.74341565E-03
  2.48558472E-02 -2.61599089E-02  1.20678771E-03 -1.23339722E-02 -3.18817158E-03
  2.71134061E-03 -1.60654845E-01 -1.05736703E-01 -4.49781879E-02  9.87210618E-02
 -1.60396985E-01 -1.48211494E-01 -1.56509442E-02  1.62601354E-01 -9.41165521E-02
 -7.10230163E-02 -1.15789497E-02  1.12176634E-02 -1.43478822E-02  1.05860668E-03
 -2.03225421E-02 -9.28457490E-04 -1.44290280E-03  7.68641735E-02  4.51336403E-02
 -1.38518701E-02  3.46976449E-02 -2.13349486E-01  2.93329147E-01 -5.09931834E-02
  3.19842538E-02 -1.18497931E-01  1.94032156E-01 -3.69372674E-02  1.36420960E-02
 -1.89498529E-02 -1.40665625E-03 -4.99280220E-03 -4.92562420E-03  1.22754402E-02
 -5.14793824E-03 -9.08970006E-03 -1.71984123E-01 -8.60400169E-02 -1.17739265E-02
  3.20407070E-02 -1.85550841E-01 -2.04643790E-01  5.26138284E-02  1.80991288E-02
 -5.22729938E-02 -9.10104528E-02  2.09123222E-02  1.96952116E-03 -1.12163016E-02
 -1.09675220E-03  2.51782578E-02  2.75252966E-03 -2.90283863E-03 -1.07802806E-01
 -7.84310166E-02 -8.98331435E-03  2.22601870E-02  3.40110363E-01 -1.05918416E-02
  2.87409993E-02 -1.26483178E-02  1.62487206E-01 -2.06908672E-02  1.82100073E-02
 -1.71496212E-03 -6.46315928E-03  2.14526715E-03  3.03309839E-02  9.22590421E-04
  2.84341974E-03 -1.76619528E-01 -1.17100758E-01  1.26001878E-02 -2.86884848E-02
  1.98024836E-01  2.24397680E-01  1.09062281E-01 -4.90287466E-02  1.25192497E-01
  1.53212262E-01  7.22826721E-02  1.05949856E-02 -1.51461634E-02  7.37120788E-03
  1.38469614E-02  1.07561437E-02  1.61813772E-02  1.86098913E-01  1.07590483E-01
 -1.30970044E-01 -7.05853842E-02 -5.18842765E-03  7.03575706E-03  1.00295898E-01
  1.48878443E-02  2.89979657E-01  5.83822321E-03  2.84762737E-02  1.11000370E-02
  1.73947249E-01 -3.96393471E-04  2.78179423E-03 -1.79825703E-03 -8.33155200E-03
  3.52503214E-03 -1.48681098E-02  1.43171647E-02  9.14411107E-03 -3.39522368E-03
  7.05772011E-03 -6.64429483E-02 -4.84344212E-02  2.31050399E-01  2.55704134E-02
 -3.75200323E-02 -2.96500707E-02  1.60632937E-01  2.14116487E-03 -3.05477637E-03
  1.17187390E-04 -6.19227830E-03  1.32235319E-02  1.90322434E-02  2.26029732E-02
  1.98904311E-02  2.84068330E-02 -6.98201899E-02 -1.22008244E-01 -3.95483748E-02
  3.89613496E-01 -9.96254061E-02 -1.01365487E-01 -3.09946274E-02  3.00764242E-01
 -6.67083385E-03 -4.28031257E-03  1.18427304E-02 -2.57453022E-03 -1.67011482E-02
  2.67643553E-03 -2.89882257E-03 -5.12536097E-03  3.78406665E-02  1.94983275E-02
 -1.63347719E-02  5.76598831E-02 -5.54398790E-02 -1.71779643E-01  2.47362830E-02
 -9.79659141E-02 -6.97699898E-02  4.32523656E-03  1.97031788E-02  2.86896001E-02
 -3.77834077E-02 -1.64265463E-03 -1.33269027E-02 -1.31441803E-03 -5.17882353E-04
 -1.47936036E-01 -2.02030926E-01  7.29169677E-02 -1.57047763E-01 -3.18125596E-02
  4.97977473E-01  1.60068457E-02 -3.30146056E-01 -1.03755644E-03  3.84175571E-01
  1.19170062E-02  3.93487679E-03  3.20847393E-02 -1.09961892E-02 -1.67722341E-03
  1.13651653E-03  7.54555582E-04  1.42591585E-01  1.16475474E-01 -2.16378771E-02
  3.41393371E-02 -1.07914377E-01  5.11229934E-02  2.53236957E-02  2.01182529E-01
 -1.13173626E-01  4.11523429E-02  3.06653116E-02  3.69385418E-03 -1.09052094E-02
 -2.76491399E-03 -1.37341317E-03 -4.03246236E-03  1.82664050E-03 -1.45114857E-02
 -1.77232127E-02 -3.23628765E-02 -7.06163668E-02  5.68837553E-03 -1.67342584E-02
 -2.24879897E-02  9.83661242E-03  1.83742371E-01  2.37338693E-02  3.75159116E-03
 -1.66556531E-02  1.55309717E-01 -4.18167378E-04 -2.24573895E-03  2.84912306E-03
  3.18913749E-03 -4.17114455E-02 -9.35937611E-03 -5.80408086E-03  3.25612568E-03
 -4.60482255E-03  1.03754034E-02  1.48873578E-02  2.64981625E-03  4.05040669E-01
  1.06613004E-02  1.71066735E-03  2.52150381E-03  3.47448083E-01 -1.26352700E-03
  8.63614104E-04 -8.88458203E-04  1.58701956E-03  1.26119848E-02  2.90171409E-02
 -1.16669214E-02 -1.44405834E-02 -2.72183916E-02  6.72440299E-02  6.84502576E-02
  1.95755008E-02 -3.79684038E-01  1.07523410E-01  8.09375685E-02  2.83656876E-02
 -3.74217120E-01  2.68745503E-03  4.41093993E-03 -1.09790305E-02 -1.05373588E-03
 -7.05133326E-04 -4.19740463E-04 -4.49397669E-02 -4.76241113E-02 -2.95611338E-02
 -1.08186502E-02 -7.62764659E-03 -4.54576099E-03 -6.92599284E-03  3.79159190E-02
  4.14650532E-01  1.88906960E-01  6.75762054E-02  9.60394476E-02  7.28519485E-01
  1.13391277E-03 -2.97362247E-03 -1.70977501E-03  9.94342661E-04  1.48194254E-02
  2.20479632E-02 -3.54923850E-03 -1.71886337E-01 -8.25926480E-03  1.15279071E-02
 -9.71607465E-03 -1.43949466E-02 -3.27041972E-01  1.11527273E-01 -2.71748936E-02
 -2.04402731E-03 -5.71906138E-01 -1.71991089E-03 -1.82661451E-03 -9.96117509E-04
  2.20143150E-03  1.61740704E-02 -4.27085691E-03 -1.15538572E-02 -1.05629858E-01
 -4.02683288E-02  5.46678582E-02  8.28322424E-02 -8.69946686E-03 -1.32014663E-01
  4.90675203E-01  1.77874774E-01 -6.74858574E-02 -2.16294641E-01 -1.15106112E-02
 -6.35014334E-03 -1.14125617E-02 -1.58697783E-03 -2.06482252E-02  1.27270104E-02
 -6.24293270E-02 -4.10791479E-01 -3.68279780E-02 -3.03712433E-01  2.34930645E-02
 -3.26939514E-02  4.42094131E-02 -1.69956817E-01  1.13711554E-01 -4.45785012E-01
  8.83077823E-02 -4.13506138E-01  3.04896893E-01 -1.11194988E-02  3.39983273E-03
  5.60252899E-03  6.17058161E-04  1.74067833E-03  9.90753427E-03 -2.05933743E-02
  7.24133578E-01  3.95544602E-02 -5.32775450E-02  7.01150311E-02  4.42209020E-04
 -8.66034845E-02 -5.10723596E-01  1.76930805E-01 -4.89695743E-02 -1.77191435E-01
  1.47930806E-02  4.20465397E-03  8.30748630E-03 -3.79749786E-03  2.87180420E-03
 -2.48109342E-04  5.75983813E-02  6.55856666E-01  8.27516589E-02 -8.21207787E-02
 -1.12689623E-01 -1.94461866E-02 -1.46431821E-01 -1.29605545E+00 -3.64633596E-01
 -3.49345877E-02 -4.31962268E-01  2.88099168E-02  1.79185519E-02  2.17052927E-02
  5.12437123E-03 -1.12646894E-02  3.64515347E-03  3.44249841E-02  1.30289845E+00
  8.38116761E-03  4.92972078E-01  5.79757694E-02 -6.12345024E-02 -5.30160741E-02
 -1.71798034E-01 -2.05627886E-02 -8.89088407E-01 -3.72982129E-01 -6.41052262E-01
 -7.24577495E-02 -6.37939597E-03  1.22896882E-02  1.70371678E-03 -1.07509400E-02
  5.20274295E-04 -2.38075818E-03  4.24394434E-02  1.28985187E+00  3.49796809E-02
  7.62945081E-04  1.19565250E-01 -8.22322907E-02  2.88923895E-02 -8.24489975E-01
  2.22592581E-01 -2.29039060E-01  6.24252151E-02  2.17172346E-02  9.92878458E-03
  1.98386639E-02  5.53102852E-03 -1.29991201E-03  1.14231447E-03  1.41384129E-02
  8.12885322E-01 -7.59557073E-02  7.15523351E-02  3.00517131E-02 -9.94974973E-02
  6.79223240E-02  1.27545757E+00  4.34407983E-02 -1.96541330E-01  2.13790182E-01
 -1.35464115E-02 -2.65188527E-02 -2.32174046E-02  1.23973023E-02  4.24457754E-03
 -1.21246778E-03  1.22115550E-02 -4.28602550E-01 -6.08464844E-02 -1.12314001E+00
 -2.55204019E-02  1.75461266E-02  4.11971752E-03  3.80197843E-02  1.49790335E-02
  5.85663485E-01 -3.51924186E-01  5.73065127E-02 -2.57026745E-02 -2.88444830E-03
 -5.08810941E-04 -2.47508543E-04  6.72836551E-03  1.24009148E-03 -4.16596865E-03
 -2.73491048E-02 -4.73344029E-01  6.48932388E-02 -4.88091194E-02  1.53896136E-01
 -9.18688331E-02 -1.29756498E-02 -1.22060493E+00  3.78097118E-01 -4.92300505E-01
  8.61120232E-03  1.35623775E-02  1.18307128E-02  3.00114720E-02  5.23893713E-03
  2.85567902E-03 -6.33605455E-04  2.30885828E-02  1.28911791E+00  8.65268863E-03
 -3.39350866E-02  1.32091250E-01  2.09419872E-01  2.27398151E-02  4.28431342E-02
  3.74616394E-01  7.49888349E-01  1.08699924E-01 -1.44052784E-03 -4.63554078E-03
 -1.23204673E-03 -1.20620068E-03  3.39208161E-03  8.09482005E-03 -8.73234665E-03
 -1.03781665E+00  1.35938766E-02  1.09155653E+00 -8.82549792E-02  8.77939295E-02
  1.89770832E-04  1.54841080E-01 -2.75380559E-02  1.68852270E+00 -1.63576741E-01
  7.71435398E-01 -2.95972183E-02 -2.11728401E-02  7.37731568E-03  3.47438636E-03
 -1.16230591E-02 -1.14164486E-04  2.85231867E-03  1.13723270E-03 -1.67147302E+00
  5.24362591E-02 -6.32486773E-02  8.98839242E-03 -1.51818200E-01  2.67792758E-02
 -7.91263154E-01  1.43201118E-01 -5.22302557E-01  4.08512867E-02  1.10066206E-02
 -3.56314521E-03  2.26906532E-02  8.59891384E-03 -3.36538833E-03  1.75972193E-03
 -1.12781690E-02  7.92900351E-01  1.03252011E-02 -2.92371636E-02 -1.35160155E-03
 -1.99456058E-01 -2.56134372E-02 -1.83171511E-02 -1.44533975E-01 -8.39121622E-01
 -6.71329521E-02  7.01170886E-03 -9.75719658E-03 -1.09866564E-03 -3.19430956E-03
  2.99164143E-03 -7.08949011E-03  3.99814882E-02  8.86145739E-01 -5.10237715E-02
 -1.03693735E+00 -3.65577205E-02  9.40448650E-02  1.84026215E-01 -1.15889808E-01
 -1.82791183E-03  4.02166617E-01  2.98325116E+00  5.14949424E-02 -2.19134280E-01
 -9.38452342E-03  1.79922059E-02  7.70986362E-03  2.49056434E-02  4.96787608E-03
 -7.01852131E-03  2.98904303E-02 -8.49302505E-02 -3.12086564E-02 -1.97504680E-03
  1.37348973E-01  4.60330186E-02  1.71740506E-02  1.48703290E+00  6.01729900E-01
  7.29574052E-01  5.14720257E-02  2.77266338E-02 -2.44472373E-02 -1.90517540E-02
  1.13735440E-02  1.03656988E-03 -1.53904552E-03  7.86431881E-02  5.38266899E-01
  6.08705374E-02 -5.19470230E-02  2.11431397E-01 -1.31702260E-01  4.75695708E-02
 -1.63984125E+00  1.27220456E+00 -8.43989228E-01  6.67879767E-02 -4.33536774E-03
  1.85107504E-02  1.22088631E-02 -1.00938274E-02 -1.21196753E-03 -1.08819063E-02
 -7.71116827E-02 -4.28672247E-01  3.63157422E-02 -5.14874179E-01 -1.01821136E-01
 -4.36328281E-02  1.23897465E-01 -2.45116089E-01  1.90733681E-02  3.63047547E+00
 -7.07576357E-01 -2.70694250E+00 -9.44106693E-02  5.05786430E-03 -1.49484199E-02
  2.23621684E-02 -6.47735907E-03  5.20054855E-03 -5.32785874E-03 -7.75276912E-02
  1.20577699E+00  8.21655638E-02 -7.13059301E-02 -2.24205826E-01  1.57273649E-02
 -3.16431598E-03 -2.47392127E+00 -1.87115244E+00 -3.98217733E-01  5.68314392E-02