111                                                                     
Freq      RMP2-FC                                                     6-31G(d)            
Number of atoms                            I               19
Info1-9                                    I   N=           9
          30          29        1002           0           0         100
           6           2           1
Charge                                     I                0
Multiplicity                               I                1
Number of electrons                        I               72
Number of alpha electrons                  I               36
Number of beta electrons                   I               36
Number of basis functions                  I              155
Number of independent functions            I              155
Number of point charges in /Mol/           I                0
Number of translation vectors              I                0
Atomic numbers                             I   N=          19
           8           8           8           8           6           6
           6           6           6           1           1           1
           1           1           1           1           1           1
           1
Nuclear charges                            R   N=          19
  8.00000000E+00  8.00000000E+00  8.00000000E+00  8.00000000E+00  6.00000000E+00
  6.00000000E+00  6.00000000E+00  6.00000000E+00  6.00000000E+00  1.00000000E+00
  1.00000000E+00  1.00000000E+00  1.00000000E+00  1.00000000E+00  1.00000000E+00
  1.00000000E+00  1.00000000E+00  1.00000000E+00  1.00000000E+00
Current cartesian coordinates              R   N=          57
  1.47272871E-01 -1.75163434E+00 -1.67256970E+00 -1.03893897E+00  4.54559486E+00
  1.99387026E-02 -2.31926756E+00 -3.23605051E+00  1.69485363E+00  5.35844163E+00
 -7.07271362E-01 -4.23835072E-01 -1.14913618E+00  1.92021161E+00  6.15365047E-01
  1.08318090E+00  6.20498565E-01 -7.00226076E-01 -3.42946210E+00  5.04926699E-01
 -4.51783328E-01 -2.33552047E+00 -2.12048948E+00 -7.47257247E-01  3.30059221E+00
  2.08997859E-01  1.04718742E+00 -1.03910983E+00  1.63574328E+00  2.66934474E+00
  1.68294895E+00  1.77257388E+00 -2.31374500E+00 -5.10024566E+00  5.43235287E-01
  7.60955805E-01 -3.88732996E+00  1.29382071E+00 -2.30787425E+00 -3.29407855E+00
 -3.34551179E+00 -2.11520736E+00  2.73077710E+00 -1.14612533E+00  2.51490519E+00
  3.75717722E+00  2.02446316E+00  1.95671354E+00 -2.30738260E+00  5.39394145E+00
  1.04404193E+00 -1.30317761E+00 -4.76483920E+00  1.54627459E+00  6.76243105E+00
 -1.01728217E+00  7.17775429E-01
Force Field                                I                0
Int Atom Types                             I   N=          19
           0           0           0           0           0           0
           0           0           0           0           0           0
           0           0           0           0           0           0
           0
MM charges                                 R   N=          19
  0.00000000E+00  0.00000000E+00  0.00000000E+00  0.00000000E+00  0.00000000E+00
  0.00000000E+00  0.00000000E+00  0.00000000E+00  0.00000000E+00  0.00000000E+00
  0.00000000E+00  0.00000000E+00  0.00000000E+00  0.00000000E+00  0.00000000E+00
  0.00000000E+00  0.00000000E+00  0.00000000E+00  0.00000000E+00
Integer atomic weights                     I   N=          19
          16          16          16          16          12          12
          12          12          12           1           1           1
           1           1           1           1           1           1
           1
Real atomic weights                        R   N=          19
  1.59949146E+01  1.59949146E+01  1.59949146E+01  1.59949146E+01  1.20000000E+01
  1.20000000E+01  1.20000000E+01  1.20000000E+01  1.20000000E+01  1.00782504E+00
  1.00782504E+00  1.00782504E+00  1.00782504E+00  1.00782504E+00  1.00782504E+00
  1.00782504E+00  1.00782504E+00  1.00782504E+00  1.00782504E+00
Atom fragment info                         I   N=          19
           0           0           0           0           0           0
           0           0           0           0           0           0
           0           0           0           0           0           0
           0
Atom residue num                           I   N=          19
           0           0           0           0           0           0
           0           0           0           0           0           0
           0           0           0           0           0           0
           0
Nuclear spins                              I   N=          19
           0           0           0           0           0           0
           0           0           0           1           1           1
           1           1           1           1           1           1
           1
Nuclear ZEff                               R   N=          19
 -5.60000000E+00 -5.60000000E+00 -5.60000000E+00 -5.60000000E+00 -3.60000000E+00
 -3.60000000E+00 -3.60000000E+00 -3.60000000E+00 -3.60000000E+00 -1.00000000E+00
 -1.00000000E+00 -1.00000000E+00 -1.00000000E+00 -1.00000000E+00 -1.00000000E+00
 -1.00000000E+00 -1.00000000E+00 -1.00000000E+00 -1.00000000E+00
Nuclear QMom                               R   N=          19
  0.00000000E+00  0.00000000E+00  0.00000000E+00  0.00000000E+00  0.00000000E+00
  0.00000000E+00  0.00000000E+00  0.00000000E+00  0.00000000E+00  0.00000000E+00
  0.00000000E+00  0.00000000E+00  0.00000000E+00  0.00000000E+00  0.00000000E+00
  0.00000000E+00  0.00000000E+00  0.00000000E+00  0.00000000E+00
Nuclear GFac                               R   N=          19
  0.00000000E+00  0.00000000E+00  0.00000000E+00  0.00000000E+00  0.00000000E+00
  0.00000000E+00  0.00000000E+00  0.00000000E+00  0.00000000E+00  2.79284600E+00
  2.79284600E+00  2.79284600E+00  2.79284600E+00  2.79284600E+00  2.79284600E+00
  2.79284600E+00  2.79284600E+00  2.79284600E+00  2.79284600E+00
MicOpt                                     I   N=          19
          -1          -1          -1          -1          -1          -1
          -1          -1          -1          -1          -1          -1
          -1          -1          -1          -1          -1          -1
          -1
Number of contracted shells                I               56
Number of primitive shells                 I              139
Pure/Cartesian d shells                    I                1
Pure/Cartesian f shells                    I                0
Highest angular momentum                   I                2
Largest degree of contraction              I                6
Shell types                                I   N=          56
           0          -1          -1           2           0          -1
          -1           2           0          -1          -1           2
           0          -1          -1           2           0          -1
          -1           2           0          -1          -1           2
           0          -1          -1           2           0          -1
          -1           2           0          -1          -1           2
           0           0           0           0           0           0
           0           0           0           0           0           0
           0           0           0           0           0           0
           0           0
Number of primitives per shell             I   N=          56
           6           3           1           1           6           3
           1           1           6           3           1           1
           6           3           1           1           6           3
           1           1           6           3           1           1
           6           3           1           1           6           3
           1           1           6           3           1           1
           3           1           3           1           3           1
           3           1           3           1           3           1
           3           1           3           1           3           1
           3           1
Shell to atom map                          I   N=          56
           1           1           1           1           2           2
           2           2           3           3           3           3
           4           4           4           4           5           5
           5           5           6           6           6           6
           7           7           7           7           8           8
           8           8           9           9           9           9
          10          10          11          11          12          12
          13          13          14          14          15          15
          16          16          17          17          18          18
          19          19
Primitive exponents                        R   N=         139
  5.48467166E+03  8.25234946E+02  1.88046958E+02  5.29645000E+01  1.68975704E+01
  5.79963534E+00  1.55396162E+01  3.59993359E+00  1.01376175E+00  2.70005823E-01
  8.00000000E-01  5.48467166E+03  8.25234946E+02  1.88046958E+02  5.29645000E+01
  1.68975704E+01  5.79963534E+00  1.55396162E+01  3.59993359E+00  1.01376175E+00
  2.70005823E-01  8.00000000E-01  5.48467166E+03  8.25234946E+02  1.88046958E+02
  5.29645000E+01  1.68975704E+01  5.79963534E+00  1.55396162E+01  3.59993359E+00
  1.01376175E+00  2.70005823E-01  8.00000000E-01  5.48467166E+03  8.25234946E+02
  1.88046958E+02  5.29645000E+01  1.68975704E+01  5.79963534E+00  1.55396162E+01
  3.59993359E+00  1.01376175E+00  2.70005823E-01  8.00000000E-01  3.04752488E+03
  4.57369518E+02  1.03948685E+02  2.92101553E+01  9.28666296E+00  3.16392696E+00
  7.86827235E+00  1.88128854E+00  5.44249258E-01  1.68714478E-01  8.00000000E-01
  3.04752488E+03  4.57369518E+02  1.03948685E+02  2.92101553E+01  9.28666296E+00
  3.16392696E+00  7.86827235E+00  1.88128854E+00  5.44249258E-01  1.68714478E-01
  8.00000000E-01  3.04752488E+03  4.57369518E+02  1.03948685E+02  2.92101553E+01
  9.28666296E+00  3.16392696E+00  7.86827235E+00  1.88128854E+00  5.44249258E-01
  1.68714478E-01  8.00000000E-01  3.04752488E+03  4.57369518E+02  1.03948685E+02
  2.92101553E+01  9.28666296E+00  3.16392696E+00  7.86827235E+00  1.88128854E+00
  5.44249258E-01  1.68714478E-01  8.00000000E-01  3.04752488E+03  4.57369518E+02
  1.03948685E+02  2.92101553E+01  9.28666296E+00  3.16392696E+00  7.86827235E+00
  1.88128854E+00  5.44249258E-01  1.68714478E-01  8.00000000E-01  1.87311370E+01
  2.82539436E+00  6.40121692E-01  1.61277759E-01  1.87311370E+01  2.82539436E+00
  6.40121692E-01  1.61277759E-01  1.87311370E+01  2.82539436E+00  6.40121692E-01
  1.61277759E-01  1.87311370E+01  2.82539436E+00  6.40121692E-01  1.61277759E-01
  1.87311370E+01  2.82539436E+00  6.40121692E-01  1.61277759E-01  1.87311370E+01
  2.82539436E+00  6.40121692E-01  1.61277759E-01  1.87311370E+01  2.82539436E+00
  6.40121692E-01  1.61277759E-01  1.87311370E+01  2.82539436E+00  6.40121692E-01
  1.61277759E-01  1.87311370E+01  2.82539436E+00  6.40121692E-01  1.61277759E-01
  1.87311370E+01  2.82539436E+00  6.40121692E-01  1.61277759E-01
Contraction coefficients                   R   N=         139
  1.83107443E-03  1.39501722E-02  6.84450781E-02  2.32714336E-01  4.70192898E-01
  3.58520853E-01 -1.10777550E-01 -1.48026263E-01  1.13076702E+00  1.00000000E+00
  1.00000000E+00  1.83107443E-03  1.39501722E-02  6.84450781E-02  2.32714336E-01
  4.70192898E-01  3.58520853E-01 -1.10777550E-01 -1.48026263E-01  1.13076702E+00
  1.00000000E+00  1.00000000E+00  1.83107443E-03  1.39501722E-02  6.84450781E-02
  2.32714336E-01  4.70192898E-01  3.58520853E-01 -1.10777550E-01 -1.48026263E-01
  1.13076702E+00  1.00000000E+00  1.00000000E+00  1.83107443E-03  1.39501722E-02
  6.84450781E-02  2.32714336E-01  4.70192898E-01  3.58520853E-01 -1.10777550E-01
 -1.48026263E-01  1.13076702E+00  1.00000000E+00  1.00000000E+00  1.83473713E-03
  1.40373228E-02  6.88426223E-02  2.32184443E-01  4.67941348E-01  3.62311985E-01
 -1.19332420E-01 -1.60854152E-01  1.14345644E+00  1.00000000E+00  1.00000000E+00
  1.83473713E-03  1.40373228E-02  6.88426223E-02  2.32184443E-01  4.67941348E-01
  3.62311985E-01 -1.19332420E-01 -1.60854152E-01  1.14345644E+00  1.00000000E+00
  1.00000000E+00  1.83473713E-03  1.40373228E-02  6.88426223E-02  2.32184443E-01
  4.67941348E-01  3.62311985E-01 -1.19332420E-01 -1.60854152E-01  1.14345644E+00
  1.00000000E+00  1.00000000E+00  1.83473713E-03  1.40373228E-02  6.88426223E-02
  2.32184443E-01  4.67941348E-01  3.62311985E-01 -1.19332420E-01 -1.60854152E-01
  1.14345644E+00  1.00000000E+00  1.00000000E+00  1.83473713E-03  1.40373228E-02
  6.88426223E-02  2.32184443E-01  4.67941348E-01  3.62311985E-01 -1.19332420E-01
 -1.60854152E-01  1.14345644E+00  1.00000000E+00  1.00000000E+00  3.34946043E-02
  2.34726953E-01  8.13757326E-01  1.00000000E+00  3.34946043E-02  2.34726953E-01
  8.13757326E-01  1.00000000E+00  3.34946043E-02  2.34726953E-01  8.13757326E-01
  1.00000000E+00  3.34946043E-02  2.34726953E-01  8.13757326E-01  1.00000000E+00
  3.34946043E-02  2.34726953E-01  8.13757326E-01  1.00000000E+00  3.34946043E-02
  2.34726953E-01  8.13757326E-01  1.00000000E+00  3.34946043E-02  2.34726953E-01
  8.13757326E-01  1.00000000E+00  3.34946043E-02  2.34726953E-01  8.13757326E-01
  1.00000000E+00  3.34946043E-02  2.34726953E-01  8.13757326E-01  1.00000000E+00
  3.34946043E-02  2.34726953E-01  8.13757326E-01  1.00000000E+00
P(S=P) Contraction coefficients            R   N=         139
  0.00000000E+00  0.00000000E+00  0.00000000E+00  0.00000000E+00  0.00000000E+00
  0.00000000E+00  7.08742682E-02  3.39752839E-01  7.27158577E-01  1.00000000E+00
  0.00000000E+00  0.00000000E+00  0.00000000E+00  0.00000000E+00  0.00000000E+00
  0.00000000E+00  0.00000000E+00  7.08742682E-02  3.39752839E-01  7.27158577E-01
  1.00000000E+00  0.00000000E+00  0.00000000E+00  0.00000000E+00  0.00000000E+00
  0.00000000E+00  0.00000000E+00  0.00000000E+00  7.08742682E-02  3.39752839E-01
  7.27158577E-01  1.00000000E+00  0.00000000E+00  0.00000000E+00  0.00000000E+00
  0.00000000E+00  0.00000000E+00  0.00000000E+00  0.00000000E+00  7.08742682E-02
  3.39752839E-01  7.27158577E-01  1.00000000E+00  0.00000000E+00  0.00000000E+00
  0.00000000E+00  0.00000000E+00  0.00000000E+00  0.00000000E+00  0.00000000E+00
  6.89990666E-02  3.16423961E-01  7.44308291E-01  1.00000000E+00  0.00000000E+00
  0.00000000E+00  0.00000000E+00  0.00000000E+00  0.00000000E+00  0.00000000E+00
  0.00000000E+00  6.89990666E-02  3.16423961E-01  7.44308291E-01  1.00000000E+00
  0.00000000E+00  0.00000000E+00  0.00000000E+00  0.00000000E+00  0.00000000E+00
  0.00000000E+00  0.00000000E+00  6.89990666E-02  3.16423961E-01  7.44308291E-01
  1.00000000E+00  0.00000000E+00  0.00000000E+00  0.00000000E+00  0.00000000E+00
  0.00000000E+00  0.00000000E+00  0.00000000E+00  6.89990666E-02  3.16423961E-01
  7.44308291E-01  1.00000000E+00  0.00000000E+00  0.00000000E+00  0.00000000E+00
  0.00000000E+00  0.00000000E+00  0.00000000E+00  0.00000000E+00  6.89990666E-02
  3.16423961E-01  7.44308291E-01  1.00000000E+00  0.00000000E+00  0.00000000E+00
  0.00000000E+00  0.00000000E+00  0.00000000E+00  0.00000000E+00  0.00000000E+00
  0.00000000E+00  0.00000000E+00  0.00000000E+00  0.00000000E+00  0.00000000E+00
  0.00000000E+00  0.00000000E+00  0.00000000E+00  0.00000000E+00  0.00000000E+00
  0.00000000E+00  0.00000000E+00  0.00000000E+00  0.00000000E+00  0.00000000E+00
  0.00000000E+00  0.00000000E+00  0.00000000E+00  0.00000000E+00  0.00000000E+00
  0.00000000E+00  0.00000000E+00  0.00000000E+00  0.00000000E+00  0.00000000E+00
  0.00000000E+00  0.00000000E+00  0.00000000E+00  0.00000000E+00  0.00000000E+00
  0.00000000E+00  0.00000000E+00  0.00000000E+00  0.00000000E+00
Coordinates of each shell                  R   N=         168
  1.47272871E-01 -1.75163434E+00 -1.67256970E+00  1.47272871E-01 -1.75163434E+00
 -1.67256970E+00  1.47272871E-01 -1.75163434E+00 -1.67256970E+00  1.47272871E-01
 -1.75163434E+00 -1.67256970E+00 -1.03893897E+00  4.54559486E+00  1.99387026E-02
 -1.03893897E+00  4.54559486E+00  1.99387026E-02 -1.03893897E+00  4.54559486E+00
  1.99387026E-02 -1.03893897E+00  4.54559486E+00  1.99387026E-02 -2.31926756E+00
 -3.23605051E+00  1.69485363E+00 -2.31926756E+00 -3.23605051E+00  1.69485363E+00
 -2.31926756E+00 -3.23605051E+00  1.69485363E+00 -2.31926756E+00 -3.23605051E+00
  1.69485363E+00  5.35844163E+00 -7.07271362E-01 -4.23835072E-01  5.35844163E+00
 -7.07271362E-01 -4.23835072E-01  5.35844163E+00 -7.07271362E-01 -4.23835072E-01
  5.35844163E+00 -7.07271362E-01 -4.23835072E-01 -1.14913618E+00  1.92021161E+00
  6.15365047E-01 -1.14913618E+00  1.92021161E+00  6.15365047E-01 -1.14913618E+00
  1.92021161E+00  6.15365047E-01 -1.14913618E+00  1.92021161E+00  6.15365047E-01
  1.08318090E+00  6.20498565E-01 -7.00226076E-01  1.08318090E+00  6.20498565E-01
 -7.00226076E-01  1.08318090E+00  6.20498565E-01 -7.00226076E-01  1.08318090E+00
  6.20498565E-01 -7.00226076E-01 -3.42946210E+00  5.04926699E-01 -4.51783328E-01
 -3.42946210E+00  5.04926699E-01 -4.51783328E-01 -3.42946210E+00  5.04926699E-01
 -4.51783328E-01 -3.42946210E+00  5.04926699E-01 -4.51783328E-01 -2.33552047E+00
 -2.12048948E+00 -7.47257247E-01 -2.33552047E+00 -2.12048948E+00 -7.47257247E-01
 -2.33552047E+00 -2.12048948E+00 -7.47257247E-01 -2.33552047E+00 -2.12048948E+00
 -7.47257247E-01  3.30059221E+00  2.08997859E-01  1.04718742E+00  3.30059221E+00
  2.08997859E-01  1.04718742E+00  3.30059221E+00  2.08997859E-01  1.04718742E+00
  3.30059221E+00  2.08997859E-01  1.04718742E+00 -1.03910983E+00  1.63574328E+00
  2.66934474E+00 -1.03910983E+00  1.63574328E+00  2.66934474E+00  1.68294895E+00
  1.77257388E+00 -2.31374500E+00  1.68294895E+00  1.77257388E+00 -2.31374500E+00
 -5.10024566E+00  5.43235287E-01  7.60955805E-01 -5.10024566E+00  5.43235287E-01
  7.60955805E-01 -3.88732996E+00  1.29382071E+00 -2.30787425E+00 -3.88732996E+00
  1.29382071E+00 -2.30787425E+00 -3.29407855E+00 -3.34551179E+00 -2.11520736E+00
 -3.29407855E+00 -3.34551179E+00 -2.11520736E+00  2.73077710E+00 -1.14612533E+00
  2.51490519E+00  2.73077710E+00 -1.14612533E+00  2.51490519E+00  3.75717722E+00
  2.02446316E+00  1.95671354E+00  3.75717722E+00  2.02446316E+00  1.95671354E+00
 -2.30738260E+00  5.39394145E+00  1.04404193E+00 -2.30738260E+00  5.39394145E+00
  1.04404193E+00 -1.30317761E+00 -4.76483920E+00  1.54627459E+00 -1.30317761E+00
 -4.76483920E+00  1.54627459E+00  6.76243105E+00 -1.01728217E+00  7.17775429E-01
  6.76243105E+00 -1.01728217E+00  7.17775429E-01
Constraint Structure                       R   N=          57
  1.47272871E-01 -1.75163434E+00 -1.67256970E+00 -1.03893897E+00  4.54559486E+00
  1.99387026E-02 -2.31926756E+00 -3.23605051E+00  1.69485363E+00  5.35844163E+00
 -7.07271362E-01 -4.23835072E-01 -1.14913618E+00  1.92021161E+00  6.15365047E-01
  1.08318090E+00  6.20498565E-01 -7.00226076E-01 -3.42946210E+00  5.04926699E-01
 -4.51783328E-01 -2.33552047E+00 -2.12048948E+00 -7.47257247E-01  3.30059221E+00
  2.08997859E-01  1.04718742E+00 -1.03910983E+00  1.63574328E+00  2.66934474E+00
  1.68294895E+00  1.77257388E+00 -2.31374500E+00 -5.10024566E+00  5.43235287E-01
  7.60955805E-01 -3.88732996E+00  1.29382071E+00 -2.30787425E+00 -3.29407855E+00
 -3.34551179E+00 -2.11520736E+00  2.73077710E+00 -1.14612533E+00  2.51490519E+00
  3.75717722E+00  2.02446316E+00  1.95671354E+00 -2.30738260E+00  5.39394145E+00
  1.04404193E+00 -1.30317761E+00 -4.76483920E+00  1.54627459E+00  6.76243105E+00
 -1.01728217E+00  7.17775429E-01
Num ILSW                                   I              100
ILSW                                       I   N=         100
           0           1           0           0           2           0
           0           0           0           0           0          -1
           0           0           0           0           0           0
           0           0           0           0           1           0
           1           0           0           0           0           0
           0           0      100000           0          -1           0
           0           0           0           0           0           0
           0           0           0           1           1           0
           0           0           1           0           0           0
           0           0           4          40           0           0
           0           0           0           0           0           0
           0           0           0           0           0           0
           0           0           0           0           0           0
           0           0           0           0           0           0
           0           0           0           0           0           0
           0           0           0           0           0           0
           0           0           0           0
Num RLSW                                   I               40
RLSW                                       R   N=          40
  1.00000000E+00  1.00000000E+00  1.00000000E+00  1.00000000E+00  1.00000000E+00
  0.00000000E+00  0.00000000E+00  1.00000000E+00  0.00000000E+00  0.00000000E+00
  0.00000000E+00  0.00000000E+00  1.00000000E+00  0.00000000E+00  0.00000000E+00
  0.00000000E+00  0.00000000E+00  1.00000000E+00  0.00000000E+00  0.00000000E+00
  0.00000000E+00  0.00000000E+00  1.00000000E+00  0.00000000E+00  0.00000000E+00
  0.00000000E+00  0.00000000E+00  1.00000000E+00  0.00000000E+00  0.00000000E+00
  0.00000000E+00  0.00000000E+00  0.00000000E+00  0.00000000E+00  0.00000000E+00
  0.00000000E+00  0.00000000E+00  0.00000000E+00  1.00000000E+00  1.00000000E+00
MxBond                                     I                4
NBond                                      I   N=          19
           2           2           2           2           4           4
           4           4           4           1           1           1
           1           1           1           1           1           1
           1
IBond                                      I   N=          76
           6           8           0           0           5          17
           0           0           8          18           0           0
           9          19           0           0           2           6
           7          10           1           5           9          11
           5           8          12          13           1           3
           7          14           4           6          15          16
           5           0           0           0           6           0
           0           0           7           0           0           0
           7           0           0           0           8           0
           0           0           9           0           0           0
           9           0           0           0           2           0
           0           0           3           0           0           0
           4           0           0           0
RBond                                      R   N=          76
  1.00000000E+00  1.00000000E+00  0.00000000E+00  0.00000000E+00  1.00000000E+00
  1.00000000E+00  0.00000000E+00  0.00000000E+00  1.00000000E+00  1.00000000E+00
  0.00000000E+00  0.00000000E+00  1.00000000E+00  1.00000000E+00  0.00000000E+00
  0.00000000E+00  1.00000000E+00  1.00000000E+00  1.00000000E+00  1.00000000E+00
  1.00000000E+00  1.00000000E+00  1.00000000E+00  1.00000000E+00  1.00000000E+00
  1.00000000E+00  1.00000000E+00  1.00000000E+00  1.00000000E+00  1.00000000E+00
  1.00000000E+00  1.00000000E+00  1.00000000E+00  1.00000000E+00  1.00000000E+00
  1.00000000E+00  1.00000000E+00  0.00000000E+00  0.00000000E+00  0.00000000E+00
  1.00000000E+00  0.00000000E+00  0.00000000E+00  0.00000000E+00  1.00000000E+00
  0.00000000E+00  0.00000000E+00  0.00000000E+00  1.00000000E+00  0.00000000E+00
  0.00000000E+00  0.00000000E+00  1.00000000E+00  0.00000000E+00  0.00000000E+00
  0.00000000E+00  1.00000000E+00  0.00000000E+00  0.00000000E+00  0.00000000E+00
  1.00000000E+00  0.00000000E+00  0.00000000E+00  0.00000000E+00  1.00000000E+00
  0.00000000E+00  0.00000000E+00  0.00000000E+00  1.00000000E+00  0.00000000E+00
  0.00000000E+00  0.00000000E+00  1.00000000E+00  0.00000000E+00  0.00000000E+00
  0.00000000E+00
Virial Ratio                               R      2.002434593553846E+00
SCF Energy                                 R     -4.945719413681327E+02
MP2 Energy                                 R     -4.959350257073301E+02
Total Energy                               R     -4.959350257073301E+02
Post-SCF wavefunction norm                 R      1.674673319584827E+00
RMS Force                                  R      3.002920758803038E-07
RMS Density                                R      1.251667330995262E-09
External E-field                           R   N=          35
  0.00000000E+00  0.00000000E+00  0.00000000E+00  0.00000000E+00  0.00000000E+00
  0.00000000E+00  0.00000000E+00  0.00000000E+00  0.00000000E+00  0.00000000E+00
  0.00000000E+00  0.00000000E+00  0.00000000E+00  0.00000000E+00  0.00000000E+00
  0.00000000E+00  0.00000000E+00  0.00000000E+00  0.00000000E+00  0.00000000E+00
  0.00000000E+00  0.00000000E+00  0.00000000E+00  0.00000000E+00  0.00000000E+00
  0.00000000E+00  0.00000000E+00  0.00000000E+00  0.00000000E+00  0.00000000E+00
  0.00000000E+00  0.00000000E+00  0.00000000E+00  0.00000000E+00  0.00000000E+00
IOpCl                                      I                0
IROHF                                      I                0
Alpha Orbital Energies                     R   N=         155
 -2.05723342E+01 -2.05721336E+01 -2.05630401E+01 -2.05590189E+01 -1.13358058E+01
 -1.12885287E+01 -1.12756556E+01 -1.12748855E+01 -1.12277005E+01 -1.41433127E+00
 -1.36441043E+00 -1.35174583E+00 -1.33127017E+00 -1.05873799E+00 -1.02331073E+00
 -8.95619892E-01 -8.17845446E-01 -7.92635090E-01 -7.38806757E-01 -6.98858821E-01
 -6.78477775E-01 -6.71281922E-01 -6.41581234E-01 -6.24966772E-01 -6.08199403E-01
 -5.68616324E-01 -5.60238621E-01 -5.53054346E-01 -5.29683420E-01 -5.16147572E-01
 -5.02152408E-01 -4.78219366E-01 -4.60507850E-01 -4.42889319E-01 -4.37093411E-01
 -4.22685548E-01  2.13508862E-01  2.21422696E-01  2.30821922E-01  2.65181520E-01
  2.72328833E-01  2.93795365E-01  3.07606130E-01  3.23443872E-01  3.31768494E-01
  3.33429003E-01  3.50178186E-01  3.63757395E-01  4.08142415E-01  4.20499059E-01
  4.31444404E-01  4.65690504E-01  4.69116530E-01  4.94331795E-01  5.44934303E-01
  7.51711003E-01  7.65258030E-01  7.90049754E-01  8.00823328E-01  8.19087256E-01
  8.23001019E-01  8.48782103E-01  8.82554205E-01  8.89987808E-01  9.06430191E-01
  9.45422694E-01  9.54506766E-01  1.00503108E+00  1.03563936E+00  1.03847420E+00
  1.05572443E+00  1.09205287E+00  1.10147245E+00  1.12022720E+00  1.12982901E+00
  1.14764780E+00  1.15488152E+00  1.15880139E+00  1.17889380E+00  1.19634505E+00
  1.20388139E+00  1.22417565E+00  1.25497846E+00  1.26345469E+00  1.29370830E+00
  1.29719310E+00  1.31756131E+00  1.34073371E+00  1.37540127E+00  1.40738130E+00
  1.44490582E+00  1.51294585E+00  1.54001541E+00  1.57564738E+00  1.61306482E+00
  1.64773214E+00  1.70624562E+00  1.72670569E+00  1.77765817E+00  1.84828185E+00
  1.85018446E+00  1.86912739E+00  1.89625364E+00  1.97365095E+00  2.01516574E+00
  2.04016541E+00  2.04889743E+00  2.07580792E+00  2.08841530E+00  2.13323383E+00
  2.14261384E+00  2.16808180E+00  2.20552029E+00  2.21773803E+00  2.24379248E+00
  2.29121129E+00  2.30215972E+00  2.35613360E+00  2.38463792E+00  2.41824993E+00
  2.43738809E+00  2.44609759E+00  2.46272396E+00  2.49110855E+00  2.55138817E+00
  2.58161581E+00  2.64711355E+00  2.69375815E+00  2.72472858E+00  2.76032497E+00
  2.79852605E+00  2.80739741E+00  2.82102861E+00  2.84914706E+00  2.89404090E+00
  2.91936189E+00  2.96318651E+00  2.99355133E+00  3.03798031E+00  3.08017435E+00
  3.14569512E+00  3.19250563E+00  3.22388285E+00  3.26254536E+00  3.35442561E+00
  3.41610374E+00  4.17578947E+00  4.19402844E+00  4.25587356E+00  4.46822518E+00
  4.67723697E+00  4.74696718E+00  4.95212824E+00  4.99193239E+00  5.11034168E+00
Alpha MO coefficients                      R   N=       24025
  1.01046514E-04  5.65661780E-05  1.15785963E-05  2.35469617E-06  5.75782960E-06
 -3.61014630E-04 -7.15193779E-05 -7.80206493E-05 -6.86691472E-05  3.00254735E-05
  2.72192721E-05  2.30678015E-05 -1.12945388E-05 -9.58070628E-07 -6.99317717E-06
  9.94664180E-01  2.11831744E-02 -8.27693292E-04 -5.04381851E-04  8.69769018E-04
  3.67933624E-03  4.55427100E-04  3.11511577E-04 -4.72272149E-04 -3.95758666E-03
 -4.19121057E-03 -3.94190270E-03  5.13111231E-05  1.27049589E-04  2.70866892E-05
  9.66406343E-04  3.47167977E-05  5.30997618E-06 -5.90766456E-07 -1.37912254E-06
 -8.89212614E-05 -2.64876973E-05 -1.82830020E-05  2.55350715E-05  4.65968434E-07
  1.44652055E-06  4.86724320E-06 -3.00438576E-06  4.28011452E-06  4.86983880E-06
  1.46967019E-06  2.28077855E-05 -5.59522382E-06  3.50163679E-06 -1.93606962E-06
 -9.97587906E-05  4.73848729E-05 -4.02195516E-05  4.54465531E-07  5.67998773E-06
  1.43013764E-05  1.68727277E-05  7.19651965E-06 -6.39651984E-07 -7.84410428E-06
 -3.13130283E-05  1.68378868E-04  3.43322762E-05  3.25036356E-04 -9.81290980E-05
  5.97079200E-04 -1.71459010E-04  9.94847820E-05  8.80639220E-05 -4.70218578E-05
  6.22207457E-05 -6.35546416E-05 -1.82292327E-06  1.72801664E-06 -2.96288773E-05
  4.72325521E-06  5.84212709E-05 -1.07261901E-05  1.08243065E-05  6.93513192E-06
  4.64445192E-05  4.56890531E-05 -3.76790326E-04 -1.42797769E-04 -1.31089683E-05
 -2.52233050E-05 -8.10697370E-06  3.93071932E-05  1.66829771E-05  2.90699416E-06
  6.02015688E-06  6.87406802E-05 -1.03107964E-05 -2.45965458E-05  2.72928582E-06
 -3.26927156E-04 -1.39266055E-04 -3.85958878E-05 -1.26677347E-04 -8.45264996E-06
 -4.56473368E-05 -4.73735760E-06 -2.28025066E-05 -4.59656443E-06 -9.44008928E-06