63679640                                                                
Freq      RMP2-FC                                                     6-31G(d)            
Number of atoms                            I               26
Info1-9                                    I   N=           9
          38          36        1002           0           0         100
           6           2           1
Charge                                     I                0
Multiplicity                               I                1
Number of electrons                        I               98
Number of alpha electrons                  I               49
Number of beta electrons                   I               49
Number of basis functions                  I              234
Number of independent functions            I              234
Number of point charges in /Mol/           I                0
Number of translation vectors              I                0
Atomic numbers                             I   N=          26
           7           7           6           6           6           6
           6           6           6           6           6           6
           6           6           1           1           1           1
           1           1           1           1           1           1
           1           1
Nuclear charges                            R   N=          26
  7.00000000E+00  7.00000000E+00  6.00000000E+00  6.00000000E+00  6.00000000E+00
  6.00000000E+00  6.00000000E+00  6.00000000E+00  6.00000000E+00  6.00000000E+00
  6.00000000E+00  6.00000000E+00  6.00000000E+00  6.00000000E+00  1.00000000E+00
  1.00000000E+00  1.00000000E+00  1.00000000E+00  1.00000000E+00  1.00000000E+00
  1.00000000E+00  1.00000000E+00  1.00000000E+00  1.00000000E+00  1.00000000E+00
  1.00000000E+00
Current cartesian coordinates              R   N=          78
  1.51426418E-01  4.78331774E+00 -7.39475004E-01 -3.59174940E+00  1.47059920E+00
  1.17714028E+00  6.61336806E-01  2.31362104E-01 -1.23902636E-02  1.69333240E+00
  2.68129409E+00 -3.13396360E-01  4.92521814E+00 -1.58851328E+00  2.23163621E-01
  2.30044474E+00 -1.83156909E+00  3.00568761E-01 -2.09333311E+00 -2.33136724E-01
 -8.05578774E-03  4.33363153E+00  2.91688324E+00 -4.31206205E-01  5.91614244E+00
  8.37953254E-01 -1.44100869E-01  6.63014431E+00 -3.82691118E+00  6.55678189E-01
 -3.10117369E+00 -2.38831752E+00 -1.18662029E+00 -5.68981735E+00 -2.83975005E+00
 -1.06761562E+00 -6.09038917E+00  1.02194921E+00  1.25151472E+00 -7.22495989E+00
 -1.10548426E+00  1.89925447E-01  1.48057134E+00 -3.69101577E+00  6.35814473E-01
  5.14801963E+00  4.78723151E+00 -7.10361477E-01  7.95546858E+00  1.10663624E+00
 -2.28597780E-01  7.23542113E+00 -3.94783780E+00  2.63223086E+00  5.66737561E+00
 -5.59504512E+00  1.86107579E-01  8.33315087E+00 -3.69956324E+00 -5.10483551E-01
 -1.85982818E+00 -3.66484787E+00 -2.20736120E+00  1.04861807E+00  6.44306024E+00
 -3.93764037E-01 -1.51326131E+00  4.66071233E+00  2.13328540E-01 -6.49935145E+00
 -4.49989327E+00 -1.96860921E+00 -7.22160690E+00  2.44220628E+00  2.21986104E+00
 -9.25577950E+00 -1.37362085E+00  3.23385756E-01
Force Field                                I                0
Int Atom Types                             I   N=          26
           0           0           0           0           0           0
           0           0           0           0           0           0
           0           0           0           0           0           0
           0           0           0           0           0           0
           0           0
MM charges                                 R   N=          26
  0.00000000E+00  0.00000000E+00  0.00000000E+00  0.00000000E+00  0.00000000E+00
  0.00000000E+00  0.00000000E+00  0.00000000E+00  0.00000000E+00  0.00000000E+00
  0.00000000E+00  0.00000000E+00  0.00000000E+00  0.00000000E+00  0.00000000E+00
  0.00000000E+00  0.00000000E+00  0.00000000E+00  0.00000000E+00  0.00000000E+00
  0.00000000E+00  0.00000000E+00  0.00000000E+00  0.00000000E+00  0.00000000E+00
  0.00000000E+00
Integer atomic weights                     I   N=          26
          14          14          12          12          12          12
          12          12          12          12          12          12
          12          12           1           1           1           1
           1           1           1           1           1           1
           1           1
Real atomic weights                        R   N=          26
  1.40030740E+01  1.40030740E+01  1.20000000E+01  1.20000000E+01  1.20000000E+01
  1.20000000E+01  1.20000000E+01  1.20000000E+01  1.20000000E+01  1.20000000E+01
  1.20000000E+01  1.20000000E+01  1.20000000E+01  1.20000000E+01  1.00782504E+00
  1.00782504E+00  1.00782504E+00  1.00782504E+00  1.00782504E+00  1.00782504E+00
  1.00782504E+00  1.00782504E+00  1.00782504E+00  1.00782504E+00  1.00782504E+00
  1.00782504E+00
Atom fragment info                         I   N=          26
           0           0           0           0           0           0
           0           0           0           0           0           0
           0           0           0           0           0           0
           0           0           0           0           0           0
           0           0
Atom residue num                           I   N=          26
           0           0           0           0           0           0
           0           0           0           0           0           0
           0           0           0           0           0           0
           0           0           0           0           0           0
           0           0
Nuclear spins                              I   N=          26
           2           2           0           0           0           0
           0           0           0           0           0           0
           0           0           1           1           1           1
           1           1           1           1           1           1
           1           1
Nuclear ZEff                               R   N=          26
 -4.55000000E+00 -4.55000000E+00 -3.60000000E+00 -3.60000000E+00 -3.60000000E+00
 -3.60000000E+00 -3.60000000E+00 -3.60000000E+00 -3.60000000E+00 -3.60000000E+00
 -3.60000000E+00 -3.60000000E+00 -3.60000000E+00 -3.60000000E+00 -1.00000000E+00
 -1.00000000E+00 -1.00000000E+00 -1.00000000E+00 -1.00000000E+00 -1.00000000E+00
 -1.00000000E+00 -1.00000000E+00 -1.00000000E+00 -1.00000000E+00 -1.00000000E+00
 -1.00000000E+00
Nuclear QMom                               R   N=          26
  2.04400000E+00  2.04400000E+00  0.00000000E+00  0.00000000E+00  0.00000000E+00
  0.00000000E+00  0.00000000E+00  0.00000000E+00  0.00000000E+00  0.00000000E+00
  0.00000000E+00  0.00000000E+00  0.00000000E+00  0.00000000E+00  0.00000000E+00
  0.00000000E+00  0.00000000E+00  0.00000000E+00  0.00000000E+00  0.00000000E+00
  0.00000000E+00  0.00000000E+00  0.00000000E+00  0.00000000E+00  0.00000000E+00
  0.00000000E+00
Nuclear GFac                               R   N=          26
  4.03761000E-01  4.03761000E-01  0.00000000E+00  0.00000000E+00  0.00000000E+00
  0.00000000E+00  0.00000000E+00  0.00000000E+00  0.00000000E+00  0.00000000E+00
  0.00000000E+00  0.00000000E+00  0.00000000E+00  0.00000000E+00  2.79284600E+00
  2.79284600E+00  2.79284600E+00  2.79284600E+00  2.79284600E+00  2.79284600E+00
  2.79284600E+00  2.79284600E+00  2.79284600E+00  2.79284600E+00  2.79284600E+00
  2.79284600E+00
MicOpt                                     I   N=          26
          -1          -1          -1          -1          -1          -1
          -1          -1          -1          -1          -1          -1
          -1          -1          -1          -1          -1          -1
          -1          -1          -1          -1          -1          -1
          -1          -1
Number of contracted shells                I               80
Number of primitive shells                 I              202
Pure/Cartesian d shells                    I                1
Pure/Cartesian f shells                    I                0
Highest angular momentum                   I                2
Largest degree of contraction              I                6
Shell types                                I   N=          80
           0          -1          -1           2           0          -1
          -1           2           0          -1          -1           2
           0          -1          -1           2           0          -1
          -1           2           0          -1          -1           2
           0          -1          -1           2           0          -1
          -1           2           0          -1          -1           2
           0          -1          -1           2           0          -1
          -1           2           0          -1          -1           2
           0          -1          -1           2           0          -1
          -1           2           0           0           0           0
           0           0           0           0           0           0
           0           0           0           0           0           0
           0           0           0           0           0           0
           0           0
Number of primitives per shell             I   N=          80
           6           3           1           1           6           3
           1           1           6           3           1           1
           6           3           1           1           6           3
           1           1           6           3           1           1
           6           3           1           1           6           3
           1           1           6           3           1           1
           6           3           1           1           6           3
           1           1           6           3           1           1
           6           3           1           1           6           3
           1           1           3           1           3           1
           3           1           3           1           3           1
           3           1           3           1           3           1
           3           1           3           1           3           1
           3           1
Shell to atom map                          I   N=          80
           1           1           1           1           2           2
           2           2           3           3           3           3
           4           4           4           4           5           5
           5           5           6           6           6           6
           7           7           7           7           8           8
           8           8           9           9           9           9
          10          10          10          10          11          11
          11          11          12          12          12          12
          13          13          13          13          14          14
          14          14          15          15          16          16
          17          17          18          18          19          19
          20          20          21          21          22          22
          23          23          24          24          25          25
          26          26
Primitive exponents                        R   N=         202
  4.17351146E+03  6.27457911E+02  1.42902093E+02  4.02343293E+01  1.28202129E+01
  4.39043701E+00  1.16263619E+01  2.71627981E+00  7.72218397E-01  2.12031498E-01
  8.00000000E-01  4.17351146E+03  6.27457911E+02  1.42902093E+02  4.02343293E+01
  1.28202129E+01  4.39043701E+00  1.16263619E+01  2.71627981E+00  7.72218397E-01
  2.12031498E-01  8.00000000E-01  3.04752488E+03  4.57369518E+02  1.03948685E+02
  2.92101553E+01  9.28666296E+00  3.16392696E+00  7.86827235E+00  1.88128854E+00
  5.44249258E-01  1.68714478E-01  8.00000000E-01  3.04752488E+03  4.57369518E+02
  1.03948685E+02  2.92101553E+01  9.28666296E+00  3.16392696E+00  7.86827235E+00
  1.88128854E+00  5.44249258E-01  1.68714478E-01  8.00000000E-01  3.04752488E+03
  4.57369518E+02  1.03948685E+02  2.92101553E+01  9.28666296E+00  3.16392696E+00
  7.86827235E+00  1.88128854E+00  5.44249258E-01  1.68714478E-01  8.00000000E-01
  3.04752488E+03  4.57369518E+02  1.03948685E+02  2.92101553E+01  9.28666296E+00
  3.16392696E+00  7.86827235E+00  1.88128854E+00  5.44249258E-01  1.68714478E-01
  8.00000000E-01  3.04752488E+03  4.57369518E+02  1.03948685E+02  2.92101553E+01
  9.28666296E+00  3.16392696E+00  7.86827235E+00  1.88128854E+00  5.44249258E-01
  1.68714478E-01  8.00000000E-01  3.04752488E+03  4.57369518E+02  1.03948685E+02
  2.92101553E+01  9.28666296E+00  3.16392696E+00  7.86827235E+00  1.88128854E+00
  5.44249258E-01  1.68714478E-01  8.00000000E-01  3.04752488E+03  4.57369518E+02
  1.03948685E+02  2.92101553E+01  9.28666296E+00  3.16392696E+00  7.86827235E+00
  1.88128854E+00  5.44249258E-01  1.68714478E-01  8.00000000E-01  3.04752488E+03
  4.57369518E+02  1.03948685E+02  2.92101553E+01  9.28666296E+00  3.16392696E+00
  7.86827235E+00  1.88128854E+00  5.44249258E-01  1.68714478E-01  8.00000000E-01
  3.04752488E+03  4.57369518E+02  1.03948685E+02  2.92101553E+01  9.28666296E+00
  3.16392696E+00  7.86827235E+00  1.88128854E+00  5.44249258E-01  1.68714478E-01
  8.00000000E-01  3.04752488E+03  4.57369518E+02  1.03948685E+02  2.92101553E+01
  9.28666296E+00  3.16392696E+00  7.86827235E+00  1.88128854E+00  5.44249258E-01
  1.68714478E-01  8.00000000E-01  3.04752488E+03  4.57369518E+02  1.03948685E+02
  2.92101553E+01  9.28666296E+00  3.16392696E+00  7.86827235E+00  1.88128854E+00
  5.44249258E-01  1.68714478E-01  8.00000000E-01  3.04752488E+03  4.57369518E+02
  1.03948685E+02  2.92101553E+01  9.28666296E+00  3.16392696E+00  7.86827235E+00
  1.88128854E+00  5.44249258E-01  1.68714478E-01  8.00000000E-01  1.87311370E+01
  2.82539436E+00  6.40121692E-01  1.61277759E-01  1.87311370E+01  2.82539436E+00
  6.40121692E-01  1.61277759E-01  1.87311370E+01  2.82539436E+00  6.40121692E-01
  1.61277759E-01  1.87311370E+01  2.82539436E+00  6.40121692E-01  1.61277759E-01
  1.87311370E+01  2.82539436E+00  6.40121692E-01  1.61277759E-01  1.87311370E+01
  2.82539436E+00  6.40121692E-01  1.61277759E-01  1.87311370E+01  2.82539436E+00
  6.40121692E-01  1.61277759E-01  1.87311370E+01  2.82539436E+00  6.40121692E-01
  1.61277759E-01  1.87311370E+01  2.82539436E+00  6.40121692E-01  1.61277759E-01
  1.87311370E+01  2.82539436E+00  6.40121692E-01  1.61277759E-01  1.87311370E+01
  2.82539436E+00  6.40121692E-01  1.61277759E-01  1.87311370E+01  2.82539436E+00
  6.40121692E-01  1.61277759E-01
Contraction coefficients                   R   N=         202
  1.83477216E-03  1.39946270E-02  6.85865518E-02  2.32240873E-01  4.69069948E-01
  3.60455199E-01 -1.14961182E-01 -1.69117479E-01  1.14585195E+00  1.00000000E+00
  1.00000000E+00  1.83477216E-03  1.39946270E-02  6.85865518E-02  2.32240873E-01
  4.69069948E-01  3.60455199E-01 -1.14961182E-01 -1.69117479E-01  1.14585195E+00
  1.00000000E+00  1.00000000E+00  1.83473713E-03  1.40373228E-02  6.88426223E-02
  2.32184443E-01  4.67941348E-01  3.62311985E-01 -1.19332420E-01 -1.60854152E-01
  1.14345644E+00  1.00000000E+00  1.00000000E+00  1.83473713E-03  1.40373228E-02
  6.88426223E-02  2.32184443E-01  4.67941348E-01  3.62311985E-01 -1.19332420E-01
 -1.60854152E-01  1.14345644E+00  1.00000000E+00  1.00000000E+00  1.83473713E-03
  1.40373228E-02  6.88426223E-02  2.32184443E-01  4.67941348E-01  3.62311985E-01
 -1.19332420E-01 -1.60854152E-01  1.14345644E+00  1.00000000E+00  1.00000000E+00
  1.83473713E-03  1.40373228E-02  6.88426223E-02  2.32184443E-01  4.67941348E-01
  3.62311985E-01 -1.19332420E-01 -1.60854152E-01  1.14345644E+00  1.00000000E+00
  1.00000000E+00  1.83473713E-03  1.40373228E-02  6.88426223E-02  2.32184443E-01
  4.67941348E-01  3.62311985E-01 -1.19332420E-01 -1.60854152E-01  1.14345644E+00
  1.00000000E+00  1.00000000E+00  1.83473713E-03  1.40373228E-02  6.88426223E-02
  2.32184443E-01  4.67941348E-01  3.62311985E-01 -1.19332420E-01 -1.60854152E-01
  1.14345644E+00  1.00000000E+00  1.00000000E+00  1.83473713E-03  1.40373228E-02
  6.88426223E-02  2.32184443E-01  4.67941348E-01  3.62311985E-01 -1.19332420E-01
 -1.60854152E-01  1.14345644E+00  1.00000000E+00  1.00000000E+00  1.83473713E-03
  1.40373228E-02  6.88426223E-02  2.32184443E-01  4.67941348E-01  3.62311985E-01
 -1.19332420E-01 -1.60854152E-01  1.14345644E+00  1.00000000E+00  1.00000000E+00
  1.83473713E-03  1.40373228E-02  6.88426223E-02  2.32184443E-01  4.67941348E-01
  3.62311985E-01 -1.19332420E-01 -1.60854152E-01  1.14345644E+00  1.00000000E+00
  1.00000000E+00  1.83473713E-03  1.40373228E-02  6.88426223E-02  2.32184443E-01
  4.67941348E-01  3.62311985E-01 -1.19332420E-01 -1.60854152E-01  1.14345644E+00
  1.00000000E+00  1.00000000E+00  1.83473713E-03  1.40373228E-02  6.88426223E-02
  2.32184443E-01  4.67941348E-01  3.62311985E-01 -1.19332420E-01 -1.60854152E-01
  1.14345644E+00  1.00000000E+00  1.00000000E+00  1.83473713E-03  1.40373228E-02
  6.88426223E-02  2.32184443E-01  4.67941348E-01  3.62311985E-01 -1.19332420E-01
 -1.60854152E-01  1.14345644E+00  1.00000000E+00  1.00000000E+00  3.34946043E-02
  2.34726953E-01  8.13757326E-01  1.00000000E+00  3.34946043E-02  2.34726953E-01
  8.13757326E-01  1.00000000E+00  3.34946043E-02  2.34726953E-01  8.13757326E-01
  1.00000000E+00  3.34946043E-02  2.34726953E-01  8.13757326E-01  1.00000000E+00
  3.34946043E-02  2.34726953E-01  8.13757326E-01  1.00000000E+00  3.34946043E-02
  2.34726953E-01  8.13757326E-01  1.00000000E+00  3.34946043E-02  2.34726953E-01
  8.13757326E-01  1.00000000E+00  3.34946043E-02  2.34726953E-01  8.13757326E-01
  1.00000000E+00  3.34946043E-02  2.34726953E-01  8.13757326E-01  1.00000000E+00
  3.34946043E-02  2.34726953E-01  8.13757326E-01  1.00000000E+00  3.34946043E-02
  2.34726953E-01  8.13757326E-01  1.00000000E+00  3.34946043E-02  2.34726953E-01
  8.13757326E-01  1.00000000E+00
P(S=P) Contraction coefficients            R   N=         202
  0.00000000E+00  0.00000000E+00  0.00000000E+00  0.00000000E+00  0.00000000E+00
  0.00000000E+00  6.75797439E-02  3.23907296E-01  7.40895140E-01  1.00000000E+00
  0.00000000E+00  0.00000000E+00  0.00000000E+00  0.00000000E+00  0.00000000E+00
  0.00000000E+00  0.00000000E+00  6.75797439E-02  3.23907296E-01  7.40895140E-01
  1.00000000E+00  0.00000000E+00  0.00000000E+00  0.00000000E+00  0.00000000E+00
  0.00000000E+00  0.00000000E+00  0.00000000E+00  6.89990666E-02  3.16423961E-01
  7.44308291E-01  1.00000000E+00  0.00000000E+00  0.00000000E+00  0.00000000E+00
  0.00000000E+00  0.00000000E+00  0.00000000E+00  0.00000000E+00  6.89990666E-02
  3.16423961E-01  7.44308291E-01  1.00000000E+00  0.00000000E+00  0.00000000E+00
  0.00000000E+00  0.00000000E+00  0.00000000E+00  0.00000000E+00  0.00000000E+00
  6.89990666E-02  3.16423961E-01  7.44308291E-01  1.00000000E+00  0.00000000E+00
  0.00000000E+00  0.00000000E+00  0.00000000E+00  0.00000000E+00  0.00000000E+00
  0.00000000E+00  6.89990666E-02  3.16423961E-01  7.44308291E-01  1.00000000E+00
  0.00000000E+00  0.00000000E+00  0.00000000E+00  0.00000000E+00  0.00000000E+00
  0.00000000E+00  0.00000000E+00  6.89990666E-02  3.16423961E-01  7.44308291E-01
  1.00000000E+00  0.00000000E+00  0.00000000E+00  0.00000000E+00  0.00000000E+00
  0.00000000E+00  0.00000000E+00  0.00000000E+00  6.89990666E-02  3.16423961E-01
  7.44308291E-01  1.00000000E+00  0.00000000E+00  0.00000000E+00  0.00000000E+00
  0.00000000E+00  0.00000000E+00  0.00000000E+00  0.00000000E+00  6.89990666E-02
  3.16423961E-01  7.44308291E-01  1.00000000E+00  0.00000000E+00  0.00000000E+00
  0.00000000E+00  0.00000000E+00  0.00000000E+00  0.00000000E+00  0.00000000E+00
  6.89990666E-02  3.16423961E-01  7.44308291E-01  1.00000000E+00  0.00000000E+00
  0.00000000E+00  0.00000000E+00  0.00000000E+00  0.00000000E+00  0.00000000E+00
  0.00000000E+00  6.89990666E-02  3.16423961E-01  7.44308291E-01  1.00000000E+00
  0.00000000E+00  0.00000000E+00  0.00000000E+00  0.00000000E+00  0.00000000E+00
  0.00000000E+00  0.00000000E+00  6.89990666E-02  3.16423961E-01  7.44308291E-01
  1.00000000E+00  0.00000000E+00  0.00000000E+00  0.00000000E+00  0.00000000E+00
  0.00000000E+00  0.00000000E+00  0.00000000E+00  6.89990666E-02  3.16423961E-01
  7.44308291E-01  1.00000000E+00  0.00000000E+00  0.00000000E+00  0.00000000E+00
  0.00000000E+00  0.00000000E+00  0.00000000E+00  0.00000000E+00  6.89990666E-02
  3.16423961E-01  7.44308291E-01  1.00000000E+00  0.00000000E+00  0.00000000E+00
  0.00000000E+00  0.00000000E+00  0.00000000E+00  0.00000000E+00  0.00000000E+00
  0.00000000E+00  0.00000000E+00  0.00000000E+00  0.00000000E+00  0.00000000E+00
  0.00000000E+00  0.00000000E+00  0.00000000E+00  0.00000000E+00  0.00000000E+00
  0.00000000E+00  0.00000000E+00  0.00000000E+00  0.00000000E+00  0.00000000E+00
  0.00000000E+00  0.00000000E+00  0.00000000E+00  0.00000000E+00  0.00000000E+00
  0.00000000E+00  0.00000000E+00  0.00000000E+00  0.00000000E+00  0.00000000E+00
  0.00000000E+00  0.00000000E+00  0.00000000E+00  0.00000000E+00  0.00000000E+00
  0.00000000E+00  0.00000000E+00  0.00000000E+00  0.00000000E+00  0.00000000E+00
  0.00000000E+00  0.00000000E+00  0.00000000E+00  0.00000000E+00  0.00000000E+00
  0.00000000E+00  0.00000000E+00
Coordinates of each shell                  R   N=         240
  1.51426418E-01  4.78331774E+00 -7.39475004E-01  1.51426418E-01  4.78331774E+00
 -7.39475004E-01  1.51426418E-01  4.78331774E+00 -7.39475004E-01  1.51426418E-01
  4.78331774E+00 -7.39475004E-01 -3.59174940E+00  1.47059920E+00  1.17714028E+00
 -3.59174940E+00  1.47059920E+00  1.17714028E+00 -3.59174940E+00  1.47059920E+00
  1.17714028E+00 -3.59174940E+00  1.47059920E+00  1.17714028E+00  6.61336806E-01
  2.31362104E-01 -1.23902636E-02  6.61336806E-01  2.31362104E-01 -1.23902636E-02
  6.61336806E-01  2.31362104E-01 -1.23902636E-02  6.61336806E-01  2.31362104E-01
 -1.23902636E-02  1.69333240E+00  2.68129409E+00 -3.13396360E-01  1.69333240E+00
  2.68129409E+00 -3.13396360E-01  1.69333240E+00  2.68129409E+00 -3.13396360E-01
  1.69333240E+00  2.68129409E+00 -3.13396360E-01  4.92521814E+00 -1.58851328E+00
  2.23163621E-01  4.92521814E+00 -1.58851328E+00  2.23163621E-01  4.92521814E+00
 -1.58851328E+00  2.23163621E-01  4.92521814E+00 -1.58851328E+00  2.23163621E-01
  2.30044474E+00 -1.83156909E+00  3.00568761E-01  2.30044474E+00 -1.83156909E+00
  3.00568761E-01  2.30044474E+00 -1.83156909E+00  3.00568761E-01  2.30044474E+00
 -1.83156909E+00  3.00568761E-01 -2.09333311E+00 -2.33136724E-01 -8.05578774E-03
 -2.09333311E+00 -2.33136724E-01 -8.05578774E-03 -2.09333311E+00 -2.33136724E-01
 -8.05578774E-03 -2.09333311E+00 -2.33136724E-01 -8.05578774E-03  4.33363153E+00
  2.91688324E+00 -4.31206205E-01  4.33363153E+00  2.91688324E+00 -4.31206205E-01
  4.33363153E+00  2.91688324E+00 -4.31206205E-01  4.33363153E+00  2.91688324E+00
 -4.31206205E-01  5.91614244E+00  8.37953254E-01 -1.44100869E-01  5.91614244E+00
  8.37953254E-01 -1.44100869E-01  5.91614244E+00  8.37953254E-01 -1.44100869E-01
  5.91614244E+00  8.37953254E-01 -1.44100869E-01  6.63014431E+00 -3.82691118E+00
  6.55678189E-01  6.63014431E+00 -3.82691118E+00  6.55678189E-01  6.63014431E+00
 -3.82691118E+00  6.55678189E-01  6.63014431E+00 -3.82691118E+00  6.55678189E-01
 -3.10117369E+00 -2.38831752E+00 -1.18662029E+00 -3.10117369E+00 -2.38831752E+00
 -1.18662029E+00 -3.10117369E+00 -2.38831752E+00 -1.18662029E+00 -3.10117369E+00
 -2.38831752E+00 -1.18662029E+00 -5.68981735E+00 -2.83975005E+00 -1.06761562E+00
 -5.68981735E+00 -2.83975005E+00 -1.06761562E+00 -5.68981735E+00 -2.83975005E+00
 -1.06761562E+00 -5.68981735E+00 -2.83975005E+00 -1.06761562E+00 -6.09038917E+00
  1.02194921E+00  1.25151472E+00 -6.09038917E+00  1.02194921E+00  1.25151472E+00
 -6.09038917E+00  1.02194921E+00  1.25151472E+00 -6.09038917E+00  1.02194921E+00
  1.25151472E+00 -7.22495989E+00 -1.10548426E+00  1.89925447E-01 -7.22495989E+00
 -1.10548426E+00  1.89925447E-01 -7.22495989E+00 -1.10548426E+00  1.89925447E-01
 -7.22495989E+00 -1.10548426E+00  1.89925447E-01  1.48057134E+00 -3.69101577E+00
  6.35814473E-01  1.48057134E+00 -3.69101577E+00  6.35814473E-01  5.14801963E+00
  4.78723151E+00 -7.10361477E-01  5.14801963E+00  4.78723151E+00 -7.10361477E-01
  7.95546858E+00  1.10663624E+00 -2.28597780E-01  7.95546858E+00  1.10663624E+00
 -2.28597780E-01  7.23542113E+00 -3.94783780E+00  2.63223086E+00  7.23542113E+00
 -3.94783780E+00  2.63223086E+00  5.66737561E+00 -5.59504512E+00  1.86107579E-01
  5.66737561E+00 -5.59504512E+00  1.86107579E-01  8.33315087E+00 -3.69956324E+00
 -5.10483551E-01  8.33315087E+00 -3.69956324E+00 -5.10483551E-01 -1.85982818E+00
 -3.66484787E+00 -2.20736120E+00 -1.85982818E+00 -3.66484787E+00 -2.20736120E+00
  1.04861807E+00  6.44306024E+00 -3.93764037E-01  1.04861807E+00  6.44306024E+00
 -3.93764037E-01 -1.51326131E+00  4.66071233E+00  2.13328540E-01 -1.51326131E+00
  4.66071233E+00  2.13328540E-01 -6.49935145E+00 -4.49989327E+00 -1.96860921E+00
 -6.49935145E+00 -4.49989327E+00 -1.96860921E+00 -7.22160690E+00  2.44220628E+00
  2.21986104E+00 -7.22160690E+00  2.44220628E+00  2.21986104E+00 -9.25577950E+00
 -1.37362085E+00  3.23385756E-01 -9.25577950E+00 -1.37362085E+00  3.23385756E-01
Constraint Structure                       R   N=          78
  1.51426418E-01  4.78331774E+00 -7.39475004E-01 -3.59174940E+00  1.47059920E+00
  1.17714028E+00  6.61336806E-01  2.31362104E-01 -1.23902636E-02  1.69333240E+00
  2.68129409E+00 -3.13396360E-01  4.92521814E+00 -1.58851328E+00  2.23163621E-01
  2.30044474E+00 -1.83156909E+00  3.00568761E-01 -2.09333311E+00 -2.33136724E-01
 -8.05578774E-03  4.33363153E+00  2.91688324E+00 -4.31206205E-01  5.91614244E+00
  8.37953254E-01 -1.44100869E-01  6.63014431E+00 -3.82691118E+00  6.55678189E-01
 -3.10117369E+00 -2.38831752E+00 -1.18662029E+00 -5.68981735E+00 -2.83975005E+00
 -1.06761562E+00 -6.09038917E+00  1.02194921E+00  1.25151472E+00 -7.22495989E+00
 -1.10548426E+00  1.89925447E-01  1.48057134E+00 -3.69101577E+00  6.35814473E-01
  5.14801963E+00  4.78723151E+00 -7.10361477E-01  7.95546858E+00  1.10663624E+00
 -2.28597780E-01  7.23542113E+00 -3.94783780E+00  2.63223086E+00  5.66737561E+00
 -5.59504512E+00  1.86107579E-01  8.33315087E+00 -3.69956324E+00 -5.10483551E-01
 -1.85982818E+00 -3.66484787E+00 -2.20736120E+00  1.04861807E+00  6.44306024E+00
 -3.93764037E-01 -1.51326131E+00  4.66071233E+00  2.13328540E-01 -6.49935145E+00
 -4.49989327E+00 -1.96860921E+00 -7.22160690E+00  2.44220628E+00  2.21986104E+00
 -9.25577950E+00 -1.37362085E+00  3.23385756E-01
Num ILSW                                   I              100
ILSW                                       I   N=         100
           0           1           0           1           2           0
           0           0           0           0           0          -1
           0           0           0           0           0           0
           0           0           0           0           1           0
           1           0           0           0           0           0
           0           0      100000           0          -1           0
           0           0           0           0           0           0
           0           0           0           1           1           0
           0           0           1           0           0           0
           0           0           4          40           0           0
           0           0           0           0           0           0
           0           0           0           0           0           0
           0           0           0           0           0           0
           0           0           0           0           0           0
           0           0           0           0           0           0
           0           0           0           0           0           0
           0           0           0           0
Num RLSW                                   I               40
RLSW                                       R   N=          40
  1.00000000E+00  1.00000000E+00  1.00000000E+00  1.00000000E+00  1.00000000E+00
  0.00000000E+00  0.00000000E+00  1.00000000E+00  0.00000000E+00  0.00000000E+00
  0.00000000E+00  0.00000000E+00  1.00000000E+00  0.00000000E+00  0.00000000E+00
  0.00000000E+00  0.00000000E+00  1.00000000E+00  0.00000000E+00  0.00000000E+00
  0.00000000E+00  0.00000000E+00  1.00000000E+00  0.00000000E+00  0.00000000E+00
  0.00000000E+00  0.00000000E+00  1.00000000E+00  0.00000000E+00  0.00000000E+00
  0.00000000E+00  0.00000000E+00  0.00000000E+00  0.00000000E+00  0.00000000E+00
  0.00000000E+00  0.00000000E+00  0.00000000E+00  1.00000000E+00  1.00000000E+00
MxBond                                     I                4
NBond                                      I   N=          26
           3           2           3           3           3           3
           3           3           3           4           3           3
           3           3           1           1           1           1
           1           1           1           1           1           1
           1           1
IBond                                      I   N=         104
           4          22          23           0           7          13
           0           0           4           6           7           0
           1           3           8           0           6           9
          10           0           3           5          15           0
           2           3          11           0           4           9
          16           0           5           8          17           0
           5          18          19          20           7          12
          21           0          11          14          24           0
           2          14          25           0          12          13