
    -----------------------------------------------------------------------
          Psi4: An Open-Source Ab Initio Electronic Structure Package
                               Psi4 1.3.2 release

                         Git: Rev {HEAD} ecbda83 


    R. M. Parrish, L. A. Burns, D. G. A. Smith, A. C. Simmonett,
    A. E. DePrince III, E. G. Hohenstein, U. Bozkaya, A. Yu. Sokolov,
    R. Di Remigio, R. M. Richard, J. F. Gonthier, A. M. James,
    H. R. McAlexander, A. Kumar, M. Saitow, X. Wang, B. P. Pritchard,
    P. Verma, H. F. Schaefer III, K. Patkowski, R. A. King, E. F. Valeev,
    F. A. Evangelista, J. M. Turney, T. D. Crawford, and C. D. Sherrill,
    J. Chem. Theory Comput. 13(7) pp 3185--3197 (2017).
    (doi: 10.1021/acs.jctc.7b00174)


                         Additional Contributions by
    P. Kraus, H. Kruse, M. H. Lechner, M. C. Schieber, R. A. Shaw,
    A. Alenaizan, R. Galvelis, Z. L. Glick, S. Lehtola, and J. P. Misiewicz

    -----------------------------------------------------------------------


    Psi4 started on: Monday, 09 November 2020 12:50PM

    Process ID: 19388
    Host:       node37.bme.utexas.edu
    PSIDATADIR: /home/xy3866/psi4conda/share/psi4
    Memory:     500.0 MiB
    Threads:    8
    
  ==> Input File <==

--------------------------------------------------------------------------
#psi4
#
memory 32 gb

molecule  {
0 1
  S        1.5992360    -0.0004910    -0.9713300
  N        2.9928530     0.0007270     1.5561310
  C       -0.0983020    -0.0001890    -0.3868260
  C       -0.7602250     1.2164250    -0.1926110
  C       -0.6976487    -1.2165331    -0.0018591
  C       -2.0926340     1.2101350     0.2229910
  C       -2.0927710    -1.2098700     0.2238180
  C       -2.7593910     0.0002400     0.4292470
  C        2.3883410     0.0002320     0.5352820
  H       -0.2335390     2.1531730    -0.3546160
  H       -0.2337770    -2.1535140    -0.3531260
  H       -2.6102660     2.1527600     0.3813710
  H       -2.6105080    -2.1523280     0.3828450
  H       -3.7976120     0.0004090     0.7511150
units angstrom
no_reorient  #important for SAPT in psi4, default
symmetry c1  #important for SAPT in psi4, default
}

set PROPERTIES_ORIGIN ["COM"]
properties('MP2/aug-cc-pvtz', properties = ['dipole'])
--------------------------------------------------------------------------

  Memory set to  29.802 GiB by Python driver.
    SCF Algorithm Type (re)set to DF.

*** tstart() called on node37.bme.utexas.edu
*** at Mon Nov  9 12:50:48 2020

   => Loading Basis Set <=

    Name: AUG-CC-PVTZ
    Role: ORBITAL
    Keyword: BASIS
    atoms 1     entry S          line   902 file /home/xy3866/psi4conda/share/psi4/basis/aug-cc-pvtz.gbs 
    atoms 2     entry N          line   281 file /home/xy3866/psi4conda/share/psi4/basis/aug-cc-pvtz.gbs 
    atoms 3-9   entry C          line   235 file /home/xy3866/psi4conda/share/psi4/basis/aug-cc-pvtz.gbs 
    atoms 10-14 entry H          line    36 file /home/xy3866/psi4conda/share/psi4/basis/aug-cc-pvtz.gbs 


         ---------------------------------------------------------
                                   SCF
               by Justin Turney, Rob Parrish, Andy Simmonett
                          and Daniel G. A. Smith
                              RHF Reference
                        8 Threads,  30517 MiB Core
         ---------------------------------------------------------

  ==> Geometry <==

    Molecular point group: c1
    Full point group: C1

    Geometry (in Angstrom), charge = 0, multiplicity = 1:

       Center              X                  Y                   Z               Mass       
    ------------   -----------------  -----------------  -----------------  -----------------
         S            1.524217759997    -0.000492960240    -0.982511017132    31.972071174400
         N            2.917834759997     0.000725039760     1.544949982868    14.003074004430
         C           -0.173320240003    -0.000190960240    -0.398007017132    12.000000000000
         C           -0.835243240003     1.216423039760    -0.203792017132    12.000000000000
         C           -0.772666940003    -1.216535060240    -0.013040117132    12.000000000000
         C           -2.167652240003     1.210133039760     0.211809982868    12.000000000000
         C           -2.167789240003    -1.209871960240     0.212636982868    12.000000000000
         C           -2.834409240003     0.000238039760     0.418065982868    12.000000000000
         C            2.313322759997     0.000230039760     0.524100982868    12.000000000000
         H           -0.308557240003     2.153171039760    -0.365797017132     1.007825032230
         H           -0.308795240003    -2.153515960240    -0.364307017132     1.007825032230
         H           -2.685284240003     2.152758039760     0.370189982868     1.007825032230
         H           -2.685526240003    -2.152329960240     0.371663982868     1.007825032230
         H           -3.872630240003     0.000407039760     0.739933982868     1.007825032230

  Running in c1 symmetry.

  Rotational constants: A =      0.10305  B =      0.02875  C =      0.02798 [cm^-1]
  Rotational constants: A =   3089.49240  B =    861.81841  C =    838.82530 [MHz]
  Nuclear repulsion =  440.168159086919388

  Charge       = 0
  Multiplicity = 1
  Electrons    = 70
  Nalpha       = 35
  Nbeta        = 35

  ==> Algorithm <==

  SCF Algorithm Type is DF.
  DIIS enabled.
  MOM disabled.
  Fractional occupation disabled.
  Guess Type is SAD.
  Energy threshold   = 1.00e-10
  Density threshold  = 1.00e-10
  Integral threshold = 0.00e+00

  ==> Primary Basis <==

  Basis Set: AUG-CC-PVTZ
    Blend: AUG-CC-PVTZ
    Number of shells: 173
    Number of basis function: 533
    Number of Cartesian functions: 624
    Spherical Harmonics?: true
    Max angular momentum: 3

   => Loading Basis Set <=

    Name: (AUG-CC-PVTZ AUX)
    Role: JKFIT
    Keyword: DF_BASIS_SCF
    atoms 1     entry S          line   730 file /home/xy3866/psi4conda/share/psi4/basis/aug-cc-pvtz-jkfit.gbs 
    atoms 2     entry N          line   224 file /home/xy3866/psi4conda/share/psi4/basis/aug-cc-pvtz-jkfit.gbs 
    atoms 3-9   entry C          line   162 file /home/xy3866/psi4conda/share/psi4/basis/aug-cc-pvtz-jkfit.gbs 
    atoms 10-14 entry H          line    70 file /home/xy3866/psi4conda/share/psi4/basis/aug-cc-pvtz-jkfit.gbs 

  ==> Pre-Iterations <==

   -------------------------------------------------------
    Irrep   Nso     Nmo     Nalpha   Nbeta   Ndocc  Nsocc
   -------------------------------------------------------
     A        533     533       0       0       0       0
   -------------------------------------------------------
    Total     533     533      35      35      35       0
   -------------------------------------------------------

  ==> Integral Setup <==

  DFHelper Memory: AOs need 2.541 GiB; user supplied 22.352 GiB. Using in-core AOs.

  ==> MemDFJK: Density-Fitted J/K Matrices <==

    J tasked:                   Yes
    K tasked:                   Yes
    wK tasked:                   No
    OpenMP threads:               8
    Memory [MiB]:             22888
    Algorithm:                 Disk
    Schwarz Cutoff:           1E-12
    Mask sparsity (%):       3.9319
    Fitting Condition:        1E-10

   => Auxiliary Basis Set <=

  Basis Set: (AUG-CC-PVTZ AUX)
    Blend: AUG-CC-PVTZ-JKFIT
    Number of shells: 352
    Number of basis function: 1208
    Number of Cartesian functions: 1503
    Spherical Harmonics?: true
    Max angular momentum: 4

  Minimum eigenvalue in the overlap matrix is 1.8672334519E-06.
  Using Symmetric Orthogonalization.

  SCF Guess: Superposition of Atomic Densities via on-the-fly atomic UHF.

  ==> Iterations <==

                           Total Energy        Delta E     RMS |[F,P]|

   @DF-RHF iter SAD:  -719.01646040378375   -7.19016e+02   0.00000e+00 
   @DF-RHF iter   1:  -719.76618806042734   -7.49728e-01   1.32787e-03 DIIS
   @DF-RHF iter   2:  -719.90142252227463   -1.35234e-01   1.06838e-03 DIIS
   @DF-RHF iter   3:  -720.04553421386152   -1.44112e-01   1.93771e-04 DIIS
   @DF-RHF iter   4:  -720.05193509921082   -6.40089e-03   8.56536e-05 DIIS
   @DF-RHF iter   5:  -720.05330321315796   -1.36811e-03   1.65665e-05 DIIS
   @DF-RHF iter   6:  -720.05342156401298   -1.18351e-04   6.80278e-06 DIIS
   @DF-RHF iter   7:  -720.05344252247460   -2.09585e-05   2.53406e-06 DIIS
   @DF-RHF iter   8:  -720.05344492318284   -2.40071e-06   1.32008e-06 DIIS
   @DF-RHF iter   9:  -720.05344575818879   -8.35006e-07   5.30481e-07 DIIS
   @DF-RHF iter  10:  -720.05344600371961   -2.45531e-07   2.28874e-07 DIIS
   @DF-RHF iter  11:  -720.05344605364769   -4.99281e-08   8.34550e-08 DIIS
   @DF-RHF iter  12:  -720.05344605807124   -4.42355e-09   2.76830e-08 DIIS
   @DF-RHF iter  13:  -720.05344605846597   -3.94721e-10   1.34163e-08 DIIS
   @DF-RHF iter  14:  -720.05344605858249   -1.16529e-10   7.96350e-09 DIIS
   @DF-RHF iter  15:  -720.05344605863945   -5.69571e-11   3.95875e-09 DIIS
   @DF-RHF iter  16:  -720.05344605865491   -1.54614e-11   1.53512e-09 DIIS
   @DF-RHF iter  17:  -720.05344605865457    3.41061e-13   4.75452e-10 DIIS
   @DF-RHF iter  18:  -720.05344605865616   -1.59162e-12   1.74239e-10 DIIS
   @DF-RHF iter  19:  -720.05344605865366    2.50111e-12   9.18193e-11 DIIS
  Energy and wave function converged.


  ==> Post-Iterations <==

    Orbital Energies [Eh]
    ---------------------

    Doubly Occupied:                                                      

       1A    -92.023359     2A    -15.586932     3A    -11.303231  
       4A    -11.300807     5A    -11.273975     6A    -11.270281  
       7A    -11.266900     8A    -11.265742     9A    -11.264235  
      10A     -9.022433    11A     -6.703905    12A     -6.702388  
      13A     -6.701546    14A     -1.213480    15A     -1.183922  
      16A     -1.091183    17A     -1.042360    18A     -0.999005  
      19A     -0.856254    20A     -0.837093    21A     -0.733103  
      22A     -0.685882    23A     -0.654728    24A     -0.645219  
      25A     -0.613406    26A     -0.584752    27A     -0.559247  
      28A     -0.533736    29A     -0.527441    30A     -0.512260  
      31A     -0.510570    32A     -0.448420    33A     -0.388041  
      34A     -0.366037    35A     -0.362834  

    Virtual:                                                              

      36A      0.022725    37A      0.029820    38A      0.034651  
      39A      0.047329    40A      0.049595    41A      0.060733  
      42A      0.065004    43A      0.073428    44A      0.078435  
      45A      0.082699    46A      0.088383    47A      0.095332  
      48A      0.101839    49A      0.102164    50A      0.111729  
      51A      0.114247    52A      0.122732    53A      0.125722  
      54A      0.126399    55A      0.131452    56A      0.134007  
      57A      0.135700    58A      0.137791    59A      0.144520  
      60A      0.146650    61A      0.150695    62A      0.153978  
      63A      0.162654    64A      0.164851    65A      0.168157  
      66A      0.174404    67A      0.189121    68A      0.192615  
      69A      0.193765    70A      0.202532    71A      0.207491  
      72A      0.222690    73A      0.224689    74A      0.228293  
      75A      0.235210    76A      0.244319    77A      0.246922  
      78A      0.253641    79A      0.260894    80A      0.268672  
      81A      0.269690    82A      0.280302    83A      0.286602  
      84A      0.290723    85A      0.297112    86A      0.300013  
      87A      0.310026    88A      0.310901    89A      0.315298  
      90A      0.330646    91A      0.331451    92A      0.339113  
      93A      0.341694    94A      0.345238    95A      0.354282  
      96A      0.358278    97A      0.367125    98A      0.369763  
      99A      0.378178   100A      0.393523   101A      0.396539  
     102A      0.401247   103A      0.404560   104A      0.408275  
     105A      0.418165   106A      0.421137   107A      0.427104  
     108A      0.431145   109A      0.440686   110A      0.445357  
     111A      0.455889   112A      0.458067   113A      0.460928  
     114A      0.466068   115A      0.471737   116A      0.472603  
     117A      0.477322   118A      0.482930   119A      0.497678  
     120A      0.498360   121A      0.501165   122A      0.508861  
     123A      0.513309   124A      0.517431   125A      0.526228  
     126A      0.532665   127A      0.536188   128A      0.540059  
     129A      0.545983   130A      0.550413   131A      0.566193  
     132A      0.573606   133A      0.585517   134A      0.593480  
     135A      0.598692   136A      0.604730   137A      0.614058  
     138A      0.623765   139A      0.624927   140A      0.635671  
     141A      0.641301   142A      0.648614   143A      0.654450  
     144A      0.664725   145A      0.670222   146A      0.681448  
     147A      0.684265   148A      0.687207   149A      0.695814  
     150A      0.698952   151A      0.714575   152A      0.723674  
     153A      0.732913   154A      0.740307   155A      0.750610  
     156A      0.762747   157A      0.772131   158A      0.782617  
     159A      0.789060   160A      0.803447   161A      0.806145  
     162A      0.813317   163A      0.821206   164A      0.830543  
     165A      0.831775   166A      0.835317   167A      0.843834  
     168A      0.850854   169A      0.860625   170A      0.864899  
     171A      0.869950   172A      0.874778   173A      0.881672  
     174A      0.887119   175A      0.888731   176A      0.897498  
     177A      0.907659   178A      0.910278   179A      0.928232  
     180A      0.932011   181A      0.941317   182A      0.943924  
     183A      0.955809   184A      0.963052   185A      0.975478  
     186A      0.983632   187A      0.985268   188A      0.997259  
     189A      1.008228   190A      1.013791   191A      1.020587  
     192A      1.030952   193A      1.032260   194A      1.045321  
     195A      1.050873   196A      1.052901   197A      1.063220  
     198A      1.064562   199A      1.067997   200A      1.076170  
     201A      1.086097   202A      1.088043   203A      1.097197  
     204A      1.108817   205A      1.111918   206A      1.118278  
     207A      1.130793   208A      1.138064   209A      1.145419  
     210A      1.147187   211A      1.152743   212A      1.164437  
     213A      1.174882   214A      1.184088   215A      1.186827  
     216A      1.193240   217A      1.194630   218A      1.201452  
     219A      1.204651   220A      1.205754   221A      1.217863  
     222A      1.226976   223A      1.239684   224A      1.241232  
     225A      1.252729   226A      1.263572   227A      1.274980  
     228A      1.281644   229A      1.283432   230A      1.297494  
     231A      1.306879   232A      1.308268   233A      1.325704  
     234A      1.329442   235A      1.339448   236A      1.342583  
     237A      1.354926   238A      1.363163   239A      1.377104  
     240A      1.381828   241A      1.405451   242A      1.411086  
     243A      1.426428   244A      1.432036   245A      1.442905  
     246A      1.471365   247A      1.486199   248A      1.502051  
     249A      1.506776   250A      1.514963   251A      1.519874  
     252A      1.522401   253A      1.533862   254A      1.544453  
     255A      1.565452   256A      1.574836   257A      1.601973  
     258A      1.615610   259A      1.617728   260A      1.629106  
     261A      1.643067   262A      1.660818   263A      1.668393  
     264A      1.678558   265A      1.686685   266A      1.691886  
     267A      1.712985   268A      1.725201   269A      1.730428  
     270A      1.746217   271A      1.764522   272A      1.783373  
     273A      1.786003   274A      1.792969   275A      1.805421  
     276A      1.810836   277A      1.819552   278A      1.821004  
     279A      1.831329   280A      1.850216   281A      1.853422  
     282A      1.862222   283A      1.875132   284A      1.894328  
     285A      1.898490   286A      1.907410   287A      1.927266  
     288A      1.932797   289A      1.946476   290A      1.952027  
     291A      1.966874   292A      1.974077   293A      1.988085  
     294A      1.998700   295A      2.006199   296A      2.015545  
     297A      2.017318   298A      2.023029   299A      2.029421  
     300A      2.043961   301A      2.051619   302A      2.054891  
     303A      2.061921   304A      2.079716   305A      2.087944  
     306A      2.098224   307A      2.127145   308A      2.137823  
     309A      2.156958   310A      2.159238   311A      2.196206  
     312A      2.203524   313A      2.210194   314A      2.226354  
     315A      2.249319   316A      2.252821   317A      2.275255  
     318A      2.285763   319A      2.311051   320A      2.316877  
     321A      2.330823   322A      2.333232   323A      2.346734  
     324A      2.360189   325A      2.369619   326A      2.383220  
     327A      2.400126   328A      2.407895   329A      2.422773  
     330A      2.442728   331A      2.481830   332A      2.501249  
     333A      2.502553   334A      2.519844   335A      2.526501  
     336A      2.556370   337A      2.571628   338A      2.594303  
     339A      2.613106   340A      2.648732   341A      2.658890  
     342A      2.691087   343A      2.698104   344A      2.719076  
     345A      2.744912   346A      2.769680   347A      2.802901  
     348A      2.843640   349A      2.858433   350A      2.871169  
     351A      2.887617   352A      2.902293   353A      2.972100  
     354A      2.997613   355A      3.027190   356A      3.037805  
     357A      3.100734   358A      3.127534   359A      3.152435  
     360A      3.165144   361A      3.179107   362A      3.203353  
     363A      3.218658   364A      3.238449   365A      3.282288  
     366A      3.289309   367A      3.315917   368A      3.330691  
     369A      3.341420   370A      3.356379   371A      3.379971  
     372A      3.382485   373A      3.389109   374A      3.409497  
     375A      3.423130   376A      3.440374   377A      3.471952  
     378A      3.473135   379A      3.485934   380A      3.522693  
     381A      3.534830   382A      3.540050   383A      3.551547  
     384A      3.560502   385A      3.571112   386A      3.575787  
     387A      3.581690   388A      3.587365   389A      3.604811  
     390A      3.627917   391A      3.637980   392A      3.641994  
     393A      3.651623   394A      3.659401   395A      3.674742  
     396A      3.691579   397A      3.701663   398A      3.716427  
     399A      3.719605   400A      3.729934   401A      3.770374  
     402A      3.779577   403A      3.796812   404A      3.808315  
     405A      3.818587   406A      3.822867   407A      3.836564  
     408A      3.852697   409A      3.859471   410A      3.882742  
     411A      3.898893   412A      3.914965   413A      3.926609  
     414A      3.948651   415A      3.953615   416A      3.976478  
     417A      3.985486   418A      3.995694   419A      4.011987  
     420A      4.018315   421A      4.025121   422A      4.069963  
     423A      4.086397   424A      4.094415   425A      4.097348  
     426A      4.109081   427A      4.123195   428A      4.136640  
     429A      4.140743   430A      4.156882   431A      4.185202  
     432A      4.191090   433A      4.199756   434A      4.222557  
     435A      4.238265   436A      4.253498   437A      4.275747  
     438A      4.294281   439A      4.313898   440A      4.330123  
     441A      4.338203   442A      4.350893   443A      4.373636  
     444A      4.393669   445A      4.405937   446A      4.407948  
     447A      4.427400   448A      4.433571   449A      4.440336  
     450A      4.477923   451A      4.510716   452A      4.550162  
     453A      4.559679   454A      4.611296   455A      4.618276  
     456A      4.633787   457A      4.658337   458A      4.673471  
     459A      4.695397   460A      4.702827   461A      4.744487  
     462A      4.749162   463A      4.782653   464A      4.799871  
     465A      4.833842   466A      4.852489   467A      4.862433  
     468A      4.879717   469A      4.921446   470A      4.958571  
     471A      4.975126   472A      4.987943   473A      5.011564  
     474A      5.012103   475A      5.028188   476A      5.047853  
     477A      5.061435   478A      5.082177   479A      5.100338  
     480A      5.126098   481A      5.129944   482A      5.137287  
     483A      5.153102   484A      5.188513   485A      5.208550  
     486A      5.226218   487A      5.259508   488A      5.269665  
     489A      5.284706   490A      5.299840   491A      5.307884  
     492A      5.351557   493A      5.376756   494A      5.442096  
     495A      5.470983   496A      5.547948   497A      5.550503  
     498A      5.571280   499A      5.594837   500A      5.641144  
     501A      5.698397   502A      5.703799   503A      5.731660  
     504A      5.776009   505A      5.790204   506A      5.859737  
     507A      5.956494   508A      6.025285   509A      6.090450  
     510A      6.149682   511A      6.168217   512A      6.171313  
     513A      6.180876   514A      6.195638   515A      6.247728  
     516A      6.282692   517A      6.380221   518A      6.453560  
     519A      6.545164   520A      6.635847   521A      6.740046  
     522A      6.773253   523A      7.020031   524A      7.071840  
     525A      8.503433   526A     12.171688   527A     15.703247  
     528A     15.977251   529A     16.942447   530A     17.826354  
     531A     18.640895   532A     19.019102   533A     19.337471  

    Final Occupation by Irrep:
              A 
    DOCC [    35 ]

  @DF-RHF Final Energy:  -720.05344605865366

   => Energetics <=

    Nuclear Repulsion Energy =            440.1681590869193883
    One-Electron Energy =               -1858.3737920772473444
    Two-Electron Energy =                 698.1521869316743505
    Total Energy =                       -720.0534460586536625

Computation Completed

*** tstop() called on node37.bme.utexas.edu at Mon Nov  9 12:52:14 2020
Module time:
	user time   =     324.97 seconds =       5.42 minutes
	system time =      64.29 seconds =       1.07 minutes
	total time  =         86 seconds =       1.43 minutes
Total time:
	user time   =     324.97 seconds =       5.42 minutes
	system time =      64.29 seconds =       1.07 minutes
	total time  =         86 seconds =       1.43 minutes
   => Loading Basis Set <=

    Name: (AUG-CC-PVTZ AUX)
    Role: RIFIT
    Keyword: DF_BASIS_MP2
    atoms 1     entry S          line   666 file /home/xy3866/psi4conda/share/psi4/basis/aug-cc-pvtz-ri.gbs 
    atoms 2     entry N          line   206 file /home/xy3866/psi4conda/share/psi4/basis/aug-cc-pvtz-ri.gbs 
    atoms 3-9   entry C          line   148 file /home/xy3866/psi4conda/share/psi4/basis/aug-cc-pvtz-ri.gbs 
    atoms 10-14 entry H          line    30 file /home/xy3866/psi4conda/share/psi4/basis/aug-cc-pvtz-ri.gbs 


*** tstart() called on node37.bme.utexas.edu
*** at Mon Nov  9 12:52:15 2020


  //>>>>>>>>>>>>>>>>>>>>>>>>>>>>>>>>>>>//
  //               DFMP2               //
  //<<<<<<<<<<<<<<<<<<<<<<<<<<<<<<<<<<<//

	 --------------------------------------------------------
	                          DF-MP2                         
	      2nd-Order Density-Fitted Moller-Plesset Theory     
	              RMP2 Wavefunction,   8 Threads             
	                                                         
	        Rob Parrish, Justin Turney, Andy Simmonett,      
	           Ed Hohenstein, and C. David Sherrill          
	 --------------------------------------------------------

   => Auxiliary Basis Set <=

  Basis Set: (AUG-CC-PVTZ AUX)
    Blend: AUG-CC-PVTZ-RI
    Number of shells: 331
    Number of basis function: 1225
    Number of Cartesian functions: 1554
    Spherical Harmonics?: true
    Max angular momentum: 4

	 --------------------------------------------------------
	                 NBF =   533, NAUX =  1225
	 --------------------------------------------------------
	   CLASS    FOCC     OCC    AOCC    AVIR     VIR    FVIR
	   PAIRS       0      35      35     498     498       0
	 --------------------------------------------------------

  DFHelper Memory: AOs need 2.541 GiB; user supplied 22.352 GiB. Using in-core AOs.


         ------------------------------------------------------------
                                     CPHF                           
                                  Rob Parrish                       
         ------------------------------------------------------------

  ==> Geometry <==

    Molecular point group: c1
    Full point group: C1

    Geometry (in Angstrom), charge = 0, multiplicity = 1:

       Center              X                  Y                   Z               Mass       
    ------------   -----------------  -----------------  -----------------  -----------------
         S            1.524217759997    -0.000492960240    -0.982511017132    31.972071174400
         N            2.917834759997     0.000725039760     1.544949982868    14.003074004430
         C           -0.173320240003    -0.000190960240    -0.398007017132    12.000000000000
         C           -0.835243240003     1.216423039760    -0.203792017132    12.000000000000
         C           -0.772666940003    -1.216535060240    -0.013040117132    12.000000000000
         C           -2.167652240003     1.210133039760     0.211809982868    12.000000000000
         C           -2.167789240003    -1.209871960240     0.212636982868    12.000000000000
         C           -2.834409240003     0.000238039760     0.418065982868    12.000000000000
         C            2.313322759997     0.000230039760     0.524100982868    12.000000000000
         H           -0.308557240003     2.153171039760    -0.365797017132     1.007825032230
         H           -0.308795240003    -2.153515960240    -0.364307017132     1.007825032230
         H           -2.685284240003     2.152758039760     0.370189982868     1.007825032230
         H           -2.685526240003    -2.152329960240     0.371663982868     1.007825032230
         H           -3.872630240003     0.000407039760     0.739933982868     1.007825032230

  Nuclear repulsion =  440.168159086919388
  Reference energy  = -720.053446058653662

  ==> Basis Set <==

  Basis Set: AUG-CC-PVTZ
    Blend: AUG-CC-PVTZ
    Number of shells: 173
    Number of basis function: 533
    Number of Cartesian functions: 624
    Spherical Harmonics?: true
    Max angular momentum: 3

  ==> CGRSolver (by Rob Parrish) <==

   Number of roots    =         1
   Preconditioning    =    JACOBI
   Convergence cutoff =     1E-06
   Maximum iterations =       100

  ==> CPHFRHamiltonian (by Rob Parrish) <== 

  ==> MemDFJK: Density-Fitted J/K Matrices <==

    J tasked:                   Yes
    K tasked:                   Yes
    wK tasked:                   No
    OpenMP threads:               8
    Memory [MiB]:             22888
    Algorithm:                 Disk
    Schwarz Cutoff:           1E-12
    Mask sparsity (%):       3.9319
    Fitting Condition:        1E-10

   => Auxiliary Basis Set <=

  Basis Set: (AUG-CC-PVTZ AUX)
    Blend: AUG-CC-PVTZ-JKFIT
    Number of shells: 352
    Number of basis function: 1208
    Number of Cartesian functions: 1503
    Spherical Harmonics?: true
    Max angular momentum: 4

  ==> CPHF Iterations <==

  => Iterations <=

             Iter  Converged  Remaining    Residual
  CGR           1          0          1   9.965E-02
  CGR           2          0          1   3.353E-02
  CGR           3          0          1   2.026E-02
  CGR           4          0          1   1.124E-02
  CGR           5          0          1   4.445E-03
  CGR           6          0          1   2.355E-03
  CGR           7          0          1   9.177E-04
  CGR           8          0          1   3.137E-04
  CGR           9          0          1   1.319E-04
  CGR          10          0          1   8.145E-05
  CGR          11          0          1   2.626E-05
  CGR          12          0          1   9.387E-06
  CGR          13          0          1   3.078E-06
  CGR          14          0          1   1.001E-06
  CGR          15          1          0   3.549E-07

    CGRSolver converged.

	-----------------------------------------------------------
	 ==================> DF-MP2 Energies <==================== 
	-----------------------------------------------------------
	 Reference Energy          =    -720.0534460586536625 [Eh]
	 Singles Energy            =      -0.0000000000000000 [Eh]
	 Same-Spin Energy          =      -0.4136355129460692 [Eh]
	 Opposite-Spin Energy      =      -1.2533845042687661 [Eh]
	 Correlation Energy        =      -1.6670200172148353 [Eh]
	 Total Energy              =    -721.7204660758684440 [Eh]
	-----------------------------------------------------------
	 ================> DF-SCS-MP2 Energies <================== 
	-----------------------------------------------------------
	 SCS Same-Spin Scale       =       0.3333333333333333 [-]
	 SCS Opposite-Spin Scale   =       1.2000000000000000 [-]
	 SCS Same-Spin Energy      =      -0.1378785043153564 [Eh]
	 SCS Opposite-Spin Energy  =      -1.5040614051225194 [Eh]
	 SCS Correlation Energy    =      -1.6419399094378757 [Eh]
	 SCS Total Energy          =    -721.6953859680915002 [Eh]
	-----------------------------------------------------------



Properties will be evaluated at  -0.000000,  -0.000000,  -0.000000 [a0]

Properties computed using the MP2 density matrix

  Nuclear Dipole Moment: [e a0]
     X:    -9.2124      Y:     0.0004      Z:     0.6743

  Electronic Dipole Moment: [e a0]
     X:     7.5471      Y:     0.0209      Z:    -1.4778

  Dipole Moment: [e a0]
     X:    -1.6653      Y:     0.0213      Z:    -0.8035     Total:     1.8492

  Dipole Moment: [D]
     X:    -4.2328      Y:     0.0543      Z:    -2.0423     Total:     4.7001


*** tstop() called on node37.bme.utexas.edu at Mon Nov  9 12:55:07 2020
Module time:
	user time   =     878.02 seconds =      14.63 minutes
	system time =      79.09 seconds =       1.32 minutes
	total time  =        172 seconds =       2.87 minutes
Total time:
	user time   =    1204.30 seconds =      20.07 minutes
	system time =     143.47 seconds =       2.39 minutes
	total time  =        259 seconds =       4.32 minutes

    Psi4 stopped on: Monday, 09 November 2020 12:55PM
    Psi4 wall time for execution: 0:04:19.65

*** Psi4 exiting successfully. Buy a developer a beer!
