
    -----------------------------------------------------------------------
          Psi4: An Open-Source Ab Initio Electronic Structure Package
                               Psi4 1.3.2 release

                         Git: Rev {HEAD} ecbda83 


    R. M. Parrish, L. A. Burns, D. G. A. Smith, A. C. Simmonett,
    A. E. DePrince III, E. G. Hohenstein, U. Bozkaya, A. Yu. Sokolov,
    R. Di Remigio, R. M. Richard, J. F. Gonthier, A. M. James,
    H. R. McAlexander, A. Kumar, M. Saitow, X. Wang, B. P. Pritchard,
    P. Verma, H. F. Schaefer III, K. Patkowski, R. A. King, E. F. Valeev,
    F. A. Evangelista, J. M. Turney, T. D. Crawford, and C. D. Sherrill,
    J. Chem. Theory Comput. 13(7) pp 3185--3197 (2017).
    (doi: 10.1021/acs.jctc.7b00174)


                         Additional Contributions by
    P. Kraus, H. Kruse, M. H. Lechner, M. C. Schieber, R. A. Shaw,
    A. Alenaizan, R. Galvelis, Z. L. Glick, S. Lehtola, and J. P. Misiewicz

    -----------------------------------------------------------------------


    Psi4 started on: Monday, 09 November 2020 12:59PM

    Process ID: 19838
    Host:       node37.bme.utexas.edu
    PSIDATADIR: /home/xy3866/psi4conda/share/psi4
    Memory:     500.0 MiB
    Threads:    8
    
  ==> Input File <==

--------------------------------------------------------------------------
#psi4
#
memory 32 gb

molecule  {
0 1
  S        1.5992360    -0.0004910    -0.9713300
  N        2.9928530     0.0007270     1.5561310
  C       -0.0983020    -0.0001890    -0.3868260
  C       -0.7602250     1.2164250    -0.1926110
  C       -0.6662930    -1.2165021     0.0930978
  C       -2.0926340     1.2101350     0.2229910
  C       -2.0927710    -1.2098700     0.2238180
  C       -2.7593910     0.0002400     0.4292470
  C        2.3883410     0.0002320     0.5352820
  H       -0.2335390     2.1531730    -0.3546160
  H       -0.2337770    -2.1535140    -0.3531260
  H       -2.6102660     2.1527600     0.3813710
  H       -2.6105080    -2.1523280     0.3828450
  H       -3.7976120     0.0004090     0.7511150
units angstrom
no_reorient  #important for SAPT in psi4, default
symmetry c1  #important for SAPT in psi4, default
}

set PROPERTIES_ORIGIN ["COM"]
properties('MP2/aug-cc-pvtz', properties = ['dipole'])
--------------------------------------------------------------------------

  Memory set to  29.802 GiB by Python driver.
    SCF Algorithm Type (re)set to DF.

*** tstart() called on node37.bme.utexas.edu
*** at Mon Nov  9 12:59:27 2020

   => Loading Basis Set <=

    Name: AUG-CC-PVTZ
    Role: ORBITAL
    Keyword: BASIS
    atoms 1     entry S          line   902 file /home/xy3866/psi4conda/share/psi4/basis/aug-cc-pvtz.gbs 
    atoms 2     entry N          line   281 file /home/xy3866/psi4conda/share/psi4/basis/aug-cc-pvtz.gbs 
    atoms 3-9   entry C          line   235 file /home/xy3866/psi4conda/share/psi4/basis/aug-cc-pvtz.gbs 
    atoms 10-14 entry H          line    36 file /home/xy3866/psi4conda/share/psi4/basis/aug-cc-pvtz.gbs 


         ---------------------------------------------------------
                                   SCF
               by Justin Turney, Rob Parrish, Andy Simmonett
                          and Daniel G. A. Smith
                              RHF Reference
                        8 Threads,  30517 MiB Core
         ---------------------------------------------------------

  ==> Geometry <==

    Molecular point group: c1
    Full point group: C1

    Geometry (in Angstrom), charge = 0, multiplicity = 1:

       Center              X                  Y                   Z               Mass       
    ------------   -----------------  -----------------  -----------------  -----------------
         S            1.521430881254    -0.000495715504    -0.990950738334    31.972071174400
         N            2.915047881254     0.000722284496     1.536510261666    14.003074004430
         C           -0.176107118746    -0.000193715504    -0.406446738334    12.000000000000
         C           -0.838030118746     1.216420284496    -0.212231738334    12.000000000000
         C           -0.744098118746    -1.216506815504     0.073477061666    12.000000000000
         C           -2.170439118746     1.210130284496     0.203370261666    12.000000000000
         C           -2.170576118746    -1.209874715504     0.204197261666    12.000000000000
         C           -2.837196118746     0.000235284496     0.409626261666    12.000000000000
         C            2.310535881254     0.000227284496     0.515661261666    12.000000000000
         H           -0.311344118746     2.153168284496    -0.374236738334     1.007825032230
         H           -0.311582118746    -2.153518715504    -0.372746738334     1.007825032230
         H           -2.688071118746     2.152755284496     0.361750261666     1.007825032230
         H           -2.688313118746    -2.152332715504     0.363224261666     1.007825032230
         H           -3.875417118746     0.000404284496     0.731494261666     1.007825032230

  Running in c1 symmetry.

  Rotational constants: A =      0.10301  B =      0.02880  C =      0.02798 [cm^-1]
  Rotational constants: A =   3088.07895  B =    863.40764  C =    838.82669 [MHz]
  Nuclear repulsion =  439.766443735846224

  Charge       = 0
  Multiplicity = 1
  Electrons    = 70
  Nalpha       = 35
  Nbeta        = 35

  ==> Algorithm <==

  SCF Algorithm Type is DF.
  DIIS enabled.
  MOM disabled.
  Fractional occupation disabled.
  Guess Type is SAD.
  Energy threshold   = 1.00e-10
  Density threshold  = 1.00e-10
  Integral threshold = 0.00e+00

  ==> Primary Basis <==

  Basis Set: AUG-CC-PVTZ
    Blend: AUG-CC-PVTZ
    Number of shells: 173
    Number of basis function: 533
    Number of Cartesian functions: 624
    Spherical Harmonics?: true
    Max angular momentum: 3

   => Loading Basis Set <=

    Name: (AUG-CC-PVTZ AUX)
    Role: JKFIT
    Keyword: DF_BASIS_SCF
    atoms 1     entry S          line   730 file /home/xy3866/psi4conda/share/psi4/basis/aug-cc-pvtz-jkfit.gbs 
    atoms 2     entry N          line   224 file /home/xy3866/psi4conda/share/psi4/basis/aug-cc-pvtz-jkfit.gbs 
    atoms 3-9   entry C          line   162 file /home/xy3866/psi4conda/share/psi4/basis/aug-cc-pvtz-jkfit.gbs 
    atoms 10-14 entry H          line    70 file /home/xy3866/psi4conda/share/psi4/basis/aug-cc-pvtz-jkfit.gbs 

  ==> Pre-Iterations <==

   -------------------------------------------------------
    Irrep   Nso     Nmo     Nalpha   Nbeta   Ndocc  Nsocc
   -------------------------------------------------------
     A        533     533       0       0       0       0
   -------------------------------------------------------
    Total     533     533      35      35      35       0
   -------------------------------------------------------

  ==> Integral Setup <==

  DFHelper Memory: AOs need 2.542 GiB; user supplied 22.352 GiB. Using in-core AOs.

  ==> MemDFJK: Density-Fitted J/K Matrices <==

    J tasked:                   Yes
    K tasked:                   Yes
    wK tasked:                   No
    OpenMP threads:               8
    Memory [MiB]:             22888
    Algorithm:                 Disk
    Schwarz Cutoff:           1E-12
    Mask sparsity (%):       3.9241
    Fitting Condition:        1E-10

   => Auxiliary Basis Set <=

  Basis Set: (AUG-CC-PVTZ AUX)
    Blend: AUG-CC-PVTZ-JKFIT
    Number of shells: 352
    Number of basis function: 1208
    Number of Cartesian functions: 1503
    Spherical Harmonics?: true
    Max angular momentum: 4

  Minimum eigenvalue in the overlap matrix is 2.0916892879E-06.
  Using Symmetric Orthogonalization.

  SCF Guess: Superposition of Atomic Densities via on-the-fly atomic UHF.

  ==> Iterations <==

                           Total Energy        Delta E     RMS |[F,P]|

   @DF-RHF iter SAD:  -718.96937354469139   -7.18969e+02   0.00000e+00 
   @DF-RHF iter   1:  -719.75092450458374   -7.81551e-01   1.32329e-03 DIIS
   @DF-RHF iter   2:  -719.88467802680282   -1.33754e-01   1.06945e-03 DIIS
   @DF-RHF iter   3:  -720.02942769246943   -1.44750e-01   1.92869e-04 DIIS
   @DF-RHF iter   4:  -720.03583446497657   -6.40677e-03   8.57286e-05 DIIS
   @DF-RHF iter   5:  -720.03720817455928   -1.37371e-03   1.65943e-05 DIIS
   @DF-RHF iter   6:  -720.03732525400744   -1.17079e-04   6.60556e-06 DIIS
   @DF-RHF iter   7:  -720.03734449543276   -1.92414e-05   2.36963e-06 DIIS
   @DF-RHF iter   8:  -720.03734640858079   -1.91315e-06   1.17812e-06 DIIS
   @DF-RHF iter   9:  -720.03734700728967   -5.98709e-07   4.58768e-07 DIIS
   @DF-RHF iter  10:  -720.03734718808209   -1.80792e-07   2.30477e-07 DIIS
   @DF-RHF iter  11:  -720.03734723921525   -5.11332e-08   9.75908e-08 DIIS
   @DF-RHF iter  12:  -720.03734724557273   -6.35748e-09   3.27511e-08 DIIS
   @DF-RHF iter  13:  -720.03734724616731   -5.94582e-10   1.37498e-08 DIIS
   @DF-RHF iter  14:  -720.03734724627964   -1.12323e-10   7.81500e-09 DIIS
   @DF-RHF iter  15:  -720.03734724632545   -4.58158e-11   3.70763e-09 DIIS
   @DF-RHF iter  16:  -720.03734724634307   -1.76215e-11   1.56404e-09 DIIS
   @DF-RHF iter  17:  -720.03734724634478   -1.70530e-12   5.22751e-10 DIIS
   @DF-RHF iter  18:  -720.03734724634910   -4.32010e-12   2.20828e-10 DIIS
   @DF-RHF iter  19:  -720.03734724634512    3.97904e-12   9.89407e-11 DIIS
  Energy and wave function converged.


  ==> Post-Iterations <==

    Orbital Energies [Eh]
    ---------------------

    Doubly Occupied:                                                      

       1A    -92.023265     2A    -15.586906     3A    -11.304227  
       4A    -11.303294     5A    -11.277774     6A    -11.270812  
       7A    -11.269958     8A    -11.267060     9A    -11.265246  
      10A     -9.022391    11A     -6.703860    12A     -6.702350  
      13A     -6.701493    14A     -1.213359    15A     -1.182321  
      16A     -1.091181    17A     -1.040215    18A     -0.998098  
      19A     -0.855273    20A     -0.834543    21A     -0.731360  
      22A     -0.685403    23A     -0.651381    24A     -0.644569  
      25A     -0.610325    26A     -0.583100    27A     -0.558655  
      28A     -0.533767    29A     -0.525366    30A     -0.510734  
      31A     -0.507250    32A     -0.448582    33A     -0.388926  
      34A     -0.364279    35A     -0.361959  

    Virtual:                                                              

      36A      0.022513    37A      0.029776    38A      0.034734  
      39A      0.047460    40A      0.049823    41A      0.057019  
      42A      0.061595    43A      0.073214    44A      0.076705  
      45A      0.081605    46A      0.088172    47A      0.094741  
      48A      0.101794    49A      0.102771    50A      0.111305  
      51A      0.114293    52A      0.122728    53A      0.124395  
      54A      0.125774    55A      0.130935    56A      0.133279  
      57A      0.135664    58A      0.138157    59A      0.143823  
      60A      0.147402    61A      0.152182    62A      0.154790  
      63A      0.162630    64A      0.164068    65A      0.167478  
      66A      0.174205    67A      0.188593    68A      0.192720  
      69A      0.193913    70A      0.201528    71A      0.205023  
      72A      0.222376    73A      0.225108    74A      0.227340  
      75A      0.234097    76A      0.243372    77A      0.247435  
      78A      0.253308    79A      0.258273    80A      0.266362  
      81A      0.269665    82A      0.279103    83A      0.285347  
      84A      0.287516    85A      0.295966    86A      0.299966  
      87A      0.310224    88A      0.310489    89A      0.317176  
      90A      0.329777    91A      0.330391    92A      0.337465  
      93A      0.341439    94A      0.346328    95A      0.354089  
      96A      0.358955    97A      0.367976    98A      0.370175  
      99A      0.381252   100A      0.391645   101A      0.395311  
     102A      0.400733   103A      0.403839   104A      0.407008  
     105A      0.416244   106A      0.419480   107A      0.424495  
     108A      0.428153   109A      0.439933   110A      0.446102  
     111A      0.454448   112A      0.456880   113A      0.459706  
     114A      0.467037   115A      0.470210   116A      0.472723  
     117A      0.474832   118A      0.481591   119A      0.496449  
     120A      0.498935   121A      0.502408   122A      0.509031  
     123A      0.513802   124A      0.517676   125A      0.524444  
     126A      0.535721   127A      0.537003   128A      0.539240  
     129A      0.546763   130A      0.552082   131A      0.564240  
     132A      0.571781   133A      0.583845   134A      0.589719  
     135A      0.595085   136A      0.603450   137A      0.609749  
     138A      0.621463   139A      0.623322   140A      0.633432  
     141A      0.640351   142A      0.649447   143A      0.659674  
     144A      0.665104   145A      0.671380   146A      0.677844  
     147A      0.685228   148A      0.687497   149A      0.695256  
     150A      0.699967   151A      0.715005   152A      0.723399  
     153A      0.730289   154A      0.742627   155A      0.750358  
     156A      0.765143   157A      0.772834   158A      0.778691  
     159A      0.784188   160A      0.801981   161A      0.802711  
     162A      0.812070   163A      0.815268   164A      0.824880  
     165A      0.825865   166A      0.832007   167A      0.840196  
     168A      0.852103   169A      0.857564   170A      0.860278  
     171A      0.866842   172A      0.875458   173A      0.880762  
     174A      0.884534   175A      0.889122   176A      0.898592  
     177A      0.907118   178A      0.911700   179A      0.925880  
     180A      0.932173   181A      0.933588   182A      0.942128  
     183A      0.954364   184A      0.961502   185A      0.977491  
     186A      0.986008   187A      0.988995   188A      0.999497  
     189A      1.012762   190A      1.014741   191A      1.019871  
     192A      1.031288   193A      1.034024   194A      1.043507  
     195A      1.046407   196A      1.049434   197A      1.064043  
     198A      1.065448   199A      1.066006   200A      1.075326  
     201A      1.084741   202A      1.088491   203A      1.091003  
     204A      1.108733   205A      1.112605   206A      1.121134  
     207A      1.130067   208A      1.136419   209A      1.142615  
     210A      1.146939   211A      1.155562   212A      1.166065  
     213A      1.175119   214A      1.182944   215A      1.187070  
     216A      1.191372   217A      1.194529   218A      1.202310  
     219A      1.205798   220A      1.207777   221A      1.221403  
     222A      1.226273   223A      1.234248   224A      1.240146  
     225A      1.252682   226A      1.263095   227A      1.276633  
     228A      1.277329   229A      1.283639   230A      1.298683  
     231A      1.305254   232A      1.312090   233A      1.326870  
     234A      1.329092   235A      1.335177   236A      1.344240  
     237A      1.355647   238A      1.363358   239A      1.376695  
     240A      1.388677   241A      1.408512   242A      1.412956  
     243A      1.427541   244A      1.428550   245A      1.445196  
     246A      1.470672   247A      1.484296   248A      1.495325  
     249A      1.507060   250A      1.513523   251A      1.519443  
     252A      1.523340   253A      1.535340   254A      1.544758  
     255A      1.568116   256A      1.572183   257A      1.598143  
     258A      1.608214   259A      1.616938   260A      1.623651  
     261A      1.636125   262A      1.656160   263A      1.665563  
     264A      1.677972   265A      1.686378   266A      1.692747  
     267A      1.715902   268A      1.721719   269A      1.731803  
     270A      1.746009   271A      1.762185   272A      1.771965  
     273A      1.780593   274A      1.788385   275A      1.794737  
     276A      1.803098   277A      1.816185   278A      1.819590  
     279A      1.826181   280A      1.843167   281A      1.850903  
     282A      1.859228   283A      1.867932   284A      1.891141  
     285A      1.894955   286A      1.913728   287A      1.922947  
     288A      1.931989   289A      1.946129   290A      1.948419  
     291A      1.970075   292A      1.973646   293A      1.979224  
     294A      2.000125   295A      2.007264   296A      2.008208  
     297A      2.018386   298A      2.021297   299A      2.023081  
     300A      2.038398   301A      2.045978   302A      2.054555  
     303A      2.055722   304A      2.077358   305A      2.081608  
     306A      2.093114   307A      2.112246   308A      2.135402  
     309A      2.140393   310A      2.168044   311A      2.176651  
     312A      2.193064   313A      2.201685   314A      2.215613  
     315A      2.232410   316A      2.246964   317A      2.273033  
     318A      2.281505   319A      2.292254   320A      2.310929  
     321A      2.324347   322A      2.331747   323A      2.339626  
     324A      2.348588   325A      2.368048   326A      2.374728  
     327A      2.399065   328A      2.408725   329A      2.413268  
     330A      2.437386   331A      2.464548   332A      2.481260  
     333A      2.490075   334A      2.508751   335A      2.513758  
     336A      2.547048   337A      2.556679   338A      2.591727  
     339A      2.599623   340A      2.620125   341A      2.650300  
     342A      2.668474   343A      2.681463   344A      2.717229  
     345A      2.728685   346A      2.769731   347A      2.802667  
     348A      2.817431   349A      2.855896   350A      2.868243  
     351A      2.889600   352A      2.924979   353A      2.974027  
     354A      2.988919   355A      3.027804   356A      3.045604  
     357A      3.096392   358A      3.128165   359A      3.149114  
     360A      3.167864   361A      3.178116   362A      3.194219  
     363A      3.220201   364A      3.236510   365A      3.271620  
     366A      3.288213   367A      3.311522   368A      3.321177  
     369A      3.335693   370A      3.355490   371A      3.377350  
     372A      3.384184   373A      3.402528   374A      3.422553  
     375A      3.428595   376A      3.457191   377A      3.471911  
     378A      3.482825   379A      3.486449   380A      3.521252  
     381A      3.534485   382A      3.541930   383A      3.551817  
     384A      3.561220   385A      3.574509   386A      3.578782  
     387A      3.580537   388A      3.599742   389A      3.610149  
     390A      3.629454   391A      3.634576   392A      3.645095  
     393A      3.652497   394A      3.661910   395A      3.677358  
     396A      3.692843   397A      3.698442   398A      3.713785  
     399A      3.720101   400A      3.724845   401A      3.746796  
     402A      3.777106   403A      3.790106   404A      3.803307  
     405A      3.804104   406A      3.818641   407A      3.831210  
     408A      3.848584   409A      3.858393   410A      3.876372  
     411A      3.883264   412A      3.913474   413A      3.923773  
     414A      3.948563   415A      3.963108   416A      3.970347  
     417A      3.980199   418A      3.996009   419A      4.009811  
     420A      4.025909   421A      4.033904   422A      4.059733  
     423A      4.073220   424A      4.083142   425A      4.085992  
     426A      4.096735   427A      4.114320   428A      4.128023  
     429A      4.137254   430A      4.144139   431A      4.177858  
     432A      4.191983   433A      4.203901   434A      4.227918  
     435A      4.241740   436A      4.248873   437A      4.261824  
     438A      4.277492   439A      4.304248   440A      4.308958  
     441A      4.329413   442A      4.344236   443A      4.367002  
     444A      4.380050   445A      4.393204   446A      4.416309  
     447A      4.420394   448A      4.426046   449A      4.443601  
     450A      4.474158   451A      4.503445   452A      4.534375  
     453A      4.545348   454A      4.590996   455A      4.603514  
     456A      4.625426   457A      4.660020   458A      4.664999  
     459A      4.695080   460A      4.700565   461A      4.728589  
     462A      4.741323   463A      4.760710   464A      4.784598  
     465A      4.836253   466A      4.842355   467A      4.860546  
     468A      4.885722   469A      4.923228   470A      4.941315  
     471A      4.955577   472A      4.970544   473A      5.000502  
     474A      5.011354   475A      5.016834   476A      5.026933  
     477A      5.036243   478A      5.060516   479A      5.088430  
     480A      5.120266   481A      5.122081   482A      5.134719  
     483A      5.151547   484A      5.166482   485A      5.194391  
     486A      5.205921   487A      5.237826   488A      5.263740  
     489A      5.281849   490A      5.295883   491A      5.310342  
     492A      5.333473   493A      5.364634   494A      5.442446  
     495A      5.483847   496A      5.546953   497A      5.552785  
     498A      5.559714   499A      5.579097   500A      5.616458  
     501A      5.678835   502A      5.692534   503A      5.705370  
     504A      5.747134   505A      5.790003   506A      5.847862  
     507A      5.885435   508A      5.996501   509A      6.015947  
     510A      6.122697   511A      6.145641   512A      6.160983  
     513A      6.180797   514A      6.193657   515A      6.248047  
     516A      6.263752   517A      6.381598   518A      6.453981  
     519A      6.540335   520A      6.583327   521A      6.649303  
     522A      6.739078   523A      6.984928   524A      7.004605  
     525A      8.441330   526A     12.178802   527A     15.533830  
     528A     16.014855   529A     16.943480   530A     17.728540  
     531A     18.435814   532A     18.799647   533A     19.067619  

    Final Occupation by Irrep:
              A 
    DOCC [    35 ]

  @DF-RHF Final Energy:  -720.03734724634512

   => Energetics <=

    Nuclear Repulsion Energy =            439.7664437358462237
    One-Electron Energy =               -1857.5690188178543849
    Two-Electron Energy =                 697.7652278356630404
    Total Energy =                       -720.0373472463451208

Computation Completed

*** tstop() called on node37.bme.utexas.edu at Mon Nov  9 13:00:53 2020
Module time:
	user time   =     322.99 seconds =       5.38 minutes
	system time =      65.41 seconds =       1.09 minutes
	total time  =         86 seconds =       1.43 minutes
Total time:
	user time   =     322.99 seconds =       5.38 minutes
	system time =      65.41 seconds =       1.09 minutes
	total time  =         86 seconds =       1.43 minutes
   => Loading Basis Set <=

    Name: (AUG-CC-PVTZ AUX)
    Role: RIFIT
    Keyword: DF_BASIS_MP2
    atoms 1     entry S          line   666 file /home/xy3866/psi4conda/share/psi4/basis/aug-cc-pvtz-ri.gbs 
    atoms 2     entry N          line   206 file /home/xy3866/psi4conda/share/psi4/basis/aug-cc-pvtz-ri.gbs 
    atoms 3-9   entry C          line   148 file /home/xy3866/psi4conda/share/psi4/basis/aug-cc-pvtz-ri.gbs 
    atoms 10-14 entry H          line    30 file /home/xy3866/psi4conda/share/psi4/basis/aug-cc-pvtz-ri.gbs 


*** tstart() called on node37.bme.utexas.edu
*** at Mon Nov  9 13:00:54 2020


  //>>>>>>>>>>>>>>>>>>>>>>>>>>>>>>>>>>>//
  //               DFMP2               //
  //<<<<<<<<<<<<<<<<<<<<<<<<<<<<<<<<<<<//

	 --------------------------------------------------------
	                          DF-MP2                         
	      2nd-Order Density-Fitted Moller-Plesset Theory     
	              RMP2 Wavefunction,   8 Threads             
	                                                         
	        Rob Parrish, Justin Turney, Andy Simmonett,      
	           Ed Hohenstein, and C. David Sherrill          
	 --------------------------------------------------------

   => Auxiliary Basis Set <=

  Basis Set: (AUG-CC-PVTZ AUX)
    Blend: AUG-CC-PVTZ-RI
    Number of shells: 331
    Number of basis function: 1225
    Number of Cartesian functions: 1554
    Spherical Harmonics?: true
    Max angular momentum: 4

	 --------------------------------------------------------
	                 NBF =   533, NAUX =  1225
	 --------------------------------------------------------
	   CLASS    FOCC     OCC    AOCC    AVIR     VIR    FVIR
	   PAIRS       0      35      35     498     498       0
	 --------------------------------------------------------

  DFHelper Memory: AOs need 2.542 GiB; user supplied 22.352 GiB. Using in-core AOs.


         ------------------------------------------------------------
                                     CPHF                           
                                  Rob Parrish                       
         ------------------------------------------------------------

  ==> Geometry <==

    Molecular point group: c1
    Full point group: C1

    Geometry (in Angstrom), charge = 0, multiplicity = 1:

       Center              X                  Y                   Z               Mass       
    ------------   -----------------  -----------------  -----------------  -----------------
         S            1.521430881254    -0.000495715504    -0.990950738334    31.972071174400
         N            2.915047881254     0.000722284496     1.536510261666    14.003074004430
         C           -0.176107118746    -0.000193715504    -0.406446738334    12.000000000000
         C           -0.838030118746     1.216420284496    -0.212231738334    12.000000000000
         C           -0.744098118746    -1.216506815504     0.073477061666    12.000000000000
         C           -2.170439118746     1.210130284496     0.203370261666    12.000000000000
         C           -2.170576118746    -1.209874715504     0.204197261666    12.000000000000
         C           -2.837196118746     0.000235284496     0.409626261666    12.000000000000
         C            2.310535881254     0.000227284496     0.515661261666    12.000000000000
         H           -0.311344118746     2.153168284496    -0.374236738334     1.007825032230
         H           -0.311582118746    -2.153518715504    -0.372746738334     1.007825032230
         H           -2.688071118746     2.152755284496     0.361750261666     1.007825032230
         H           -2.688313118746    -2.152332715504     0.363224261666     1.007825032230
         H           -3.875417118746     0.000404284496     0.731494261666     1.007825032230

  Nuclear repulsion =  439.766443735846224
  Reference energy  = -720.037347246345121

  ==> Basis Set <==

  Basis Set: AUG-CC-PVTZ
    Blend: AUG-CC-PVTZ
    Number of shells: 173
    Number of basis function: 533
    Number of Cartesian functions: 624
    Spherical Harmonics?: true
    Max angular momentum: 3

  ==> CGRSolver (by Rob Parrish) <==

   Number of roots    =         1
   Preconditioning    =    JACOBI
   Convergence cutoff =     1E-06
   Maximum iterations =       100

  ==> CPHFRHamiltonian (by Rob Parrish) <== 

  ==> MemDFJK: Density-Fitted J/K Matrices <==

    J tasked:                   Yes
    K tasked:                   Yes
    wK tasked:                   No
    OpenMP threads:               8
    Memory [MiB]:             22888
    Algorithm:                 Disk
    Schwarz Cutoff:           1E-12
    Mask sparsity (%):       3.9241
    Fitting Condition:        1E-10

   => Auxiliary Basis Set <=

  Basis Set: (AUG-CC-PVTZ AUX)
    Blend: AUG-CC-PVTZ-JKFIT
    Number of shells: 352
    Number of basis function: 1208
    Number of Cartesian functions: 1503
    Spherical Harmonics?: true
    Max angular momentum: 4

  ==> CPHF Iterations <==

  => Iterations <=

             Iter  Converged  Remaining    Residual
  CGR           1          0          1   9.945E-02
  CGR           2          0          1   3.297E-02
  CGR           3          0          1   1.936E-02
  CGR           4          0          1   1.106E-02
  CGR           5          0          1   4.528E-03
  CGR           6          0          1   2.440E-03
  CGR           7          0          1   9.265E-04
  CGR           8          0          1   2.769E-04
  CGR           9          0          1   1.018E-04
  CGR          10          0          1   5.665E-05
  CGR          11          0          1   2.325E-05
  CGR          12          0          1   9.913E-06
  CGR          13          0          1   3.280E-06
  CGR          14          0          1   1.074E-06
  CGR          15          1          0   4.004E-07

    CGRSolver converged.

	-----------------------------------------------------------
	 ==================> DF-MP2 Energies <==================== 
	-----------------------------------------------------------
	 Reference Energy          =    -720.0373472463451208 [Eh]
	 Singles Energy            =      -0.0000000000000000 [Eh]
	 Same-Spin Energy          =      -0.4145136305834588 [Eh]
	 Opposite-Spin Energy      =      -1.2558887741883742 [Eh]
	 Correlation Energy        =      -1.6704024047718331 [Eh]
	 Total Energy              =    -721.7077496511169556 [Eh]
	-----------------------------------------------------------
	 ================> DF-SCS-MP2 Energies <================== 
	-----------------------------------------------------------
	 SCS Same-Spin Scale       =       0.3333333333333333 [-]
	 SCS Opposite-Spin Scale   =       1.2000000000000000 [-]
	 SCS Same-Spin Energy      =      -0.1381712101944862 [Eh]
	 SCS Opposite-Spin Energy  =      -1.5070665290260490 [Eh]
	 SCS Correlation Energy    =      -1.6452377392205353 [Eh]
	 SCS Total Energy          =    -721.6825849855656543 [Eh]
	-----------------------------------------------------------



Properties will be evaluated at  -0.000000,  -0.000000,  -0.000000 [a0]

Properties computed using the MP2 density matrix

  Nuclear Dipole Moment: [e a0]
     X:    -9.2256      Y:     0.0004      Z:     0.6345

  Electronic Dipole Moment: [e a0]
     X:     7.5354      Y:     0.0507      Z:    -1.4489

  Dipole Moment: [e a0]
     X:    -1.6902      Y:     0.0511      Z:    -0.8143     Total:     1.8768

  Dipole Moment: [D]
     X:    -4.2961      Y:     0.1299      Z:    -2.0699     Total:     4.7705


*** tstop() called on node37.bme.utexas.edu at Mon Nov  9 13:03:43 2020
Module time:
	user time   =     842.83 seconds =      14.05 minutes
	system time =      79.83 seconds =       1.33 minutes
	total time  =        169 seconds =       2.82 minutes
Total time:
	user time   =    1167.09 seconds =      19.45 minutes
	system time =     145.33 seconds =       2.42 minutes
	total time  =        256 seconds =       4.27 minutes

    Psi4 stopped on: Monday, 09 November 2020 01:03PM
    Psi4 wall time for execution: 0:04:16.10

*** Psi4 exiting successfully. Buy a developer a beer!
