
    -----------------------------------------------------------------------
          Psi4: An Open-Source Ab Initio Electronic Structure Package
                               Psi4 1.4a3.dev225 

                         Git: Rev {master} 7105e37 


    D. G. A. Smith, L. A. Burns, A. C. Simmonett, R. M. Parrish,
    M. C. Schieber, R. Galvelis, P. Kraus, H. Kruse, R. Di Remigio,
    A. Alenaizan, A. M. James, S. Lehtola, J. P. Misiewicz, M. Scheurer,
    R. A. Shaw, J. B. Schriber, Y. Xie, Z. L. Glick, D. A. Sirianni,
    J. S. O'Brien, J. M. Waldrop, A. Kumar, E. G. Hohenstein,
    B. P. Pritchard, B. R. Brooks, H. F. Schaefer III, A. Yu. Sokolov,
    K. Patkowski, A. E. DePrince III, U. Bozkaya, R. A. King,
    F. A. Evangelista, J. M. Turney, T. D. Crawford, C. D. Sherrill,
    J. Chem. Phys. 152(18) 184108 (2020). https://doi.org/10.1063/5.0006002

                            Additional Code Authors
    E. T. Seidl, C. L. Janssen, E. F. Valeev, M. L. Leininger,
    J. F. Gonthier, R. M. Richard, H. R. McAlexander, M. Saitow, X. Wang,
    P. Verma, and M. H. Lechner

             Previous Authors, Complete List of Code Contributors,
                       and Citations for Specific Modules
    https://github.com/psi4/psi4/blob/master/codemeta.json
    https://github.com/psi4/psi4/graphs/contributors
    http://psicode.org/psi4manual/master/introduction.html#citing-psifour

    -----------------------------------------------------------------------


    Psi4 started on: Saturday, 20 March 2021 01:52AM

    Process ID: 164190
    Host:       c452-002.stampede2.tacc.utexas.edu
    PSIDATADIR: /home1/07844/xy3866/miniconda3/envs/p4env/share/psi4
    Memory:     500.0 MiB
    Threads:    32
    
  ==> Input File <==

--------------------------------------------------------------------------
#psi4
#
memory 32 gb

molecule  {
0 1
  C        0.0000000    -0.4260750     0.3076100
  C        1.2381225    -0.8458943    -0.4570615
  C        0.0000000     1.0639900     0.6808960
  C       -1.2544720    -0.8514380    -0.4671590
  C        2.5736720    -0.5554960     0.2430540
  C        0.0000000     2.0274100    -0.5051140
  C       -2.5736720    -0.5554960     0.2430540
  H        0.0000000    -0.9878700     1.2558670
  H        1.1852130    -1.9306880    -0.6549460
  H        1.2532300    -0.3750670    -1.4556400
  H        0.8717050     1.2713650     1.3118990
  H       -0.8717030     1.2713660     1.3119000
  H       -1.2532300    -0.3750660    -1.4556400
  H       -1.1852130    -1.9306880    -0.6549460
  H        2.7605980     0.5184190     0.3244420
  H        3.4150690    -0.9954020    -0.3009240
  H        2.5738760    -0.9743250     1.2548280
  H        0.8836400     1.8931300    -1.1354610
  H        0.0000000     3.0642610    -0.1553580
  H       -0.8836410     1.8931290    -1.1354600
  H       -3.4150690    -0.9954020    -0.3009240
  H       -2.7605980     0.5184190     0.3244430
  H       -2.5738760    -0.9743270     1.2548280
units angstrom
no_reorient  #important for SAPT in psi4, default
symmetry c1  #important for SAPT in psi4, default
}

set PROPERTIES_ORIGIN ["COM"]
properties('MP2/aug-cc-pvtz', properties = ['dipole'])
--------------------------------------------------------------------------

  Memory set to  29.802 GiB by Python driver.
    SCF Algorithm Type (re)set to DF.

*** tstart() called on c452-002.stampede2.tacc.utexas.edu
*** at Sat Mar 20 01:52:19 2021

   => Loading Basis Set <=

    Name: AUG-CC-PVTZ
    Role: ORBITAL
    Keyword: BASIS
    atoms 1-7  entry C          line   239 file /home1/07844/xy3866/miniconda3/envs/p4env/share/psi4/basis/aug-cc-pvtz.gbs 
    atoms 8-23 entry H          line    40 file /home1/07844/xy3866/miniconda3/envs/p4env/share/psi4/basis/aug-cc-pvtz.gbs 


         ---------------------------------------------------------
                                   SCF
               by Justin Turney, Rob Parrish, Andy Simmonett
                          and Daniel G. A. Smith
                              RHF Reference
                       32 Threads,  30517 MiB Core
         ---------------------------------------------------------

  ==> Geometry <==

    Molecular point group: c1
    Full point group: C1

    Geometry (in Angstrom), charge = 0, multiplicity = 1:

       Center              X                  Y                   Z               Mass       
    ------------   -----------------  -----------------  -----------------  -----------------
         C            0.001959476647    -0.417907590551     0.304308032098    12.000000000000
         C            1.240081976647    -0.837726890551    -0.460363467902    12.000000000000
         C            0.001959476647     1.072157409449     0.677594032098    12.000000000000
         C           -1.252512523353    -0.843270590551    -0.470460967902    12.000000000000
         C            2.575631476647    -0.547328590551     0.239752032098    12.000000000000
         C            0.001959476647     2.035577409449    -0.508415967902    12.000000000000
         C           -2.571712523353    -0.547328590551     0.239752032098    12.000000000000
         H            0.001959476647    -0.979702590551     1.252565032098     1.007825032230
         H            1.187172476647    -1.922520590551    -0.658247967902     1.007825032230
         H            1.255189476647    -0.366899590551    -1.458941967902     1.007825032230
         H            0.873664476647     1.279532409449     1.308597032098     1.007825032230
         H           -0.869743523353     1.279533409449     1.308598032098     1.007825032230
         H           -1.251270523353    -0.366898590551    -1.458941967902     1.007825032230
         H           -1.183253523353    -1.922520590551    -0.658247967902     1.007825032230
         H            2.762557476647     0.526586409449     0.321140032098     1.007825032230
         H            3.417028476647    -0.987234590551    -0.304225967902     1.007825032230
         H            2.575835476647    -0.966157590551     1.251526032098     1.007825032230
         H            0.885599476647     1.901297409449    -1.138762967902     1.007825032230
         H            0.001959476647     3.072428409449    -0.158659967902     1.007825032230
         H           -0.881681523353     1.901296409449    -1.138761967902     1.007825032230
         H           -3.413109523353    -0.987234590551    -0.304225967902     1.007825032230
         H           -2.758638523353     0.526586409449     0.321141032098     1.007825032230
         H           -2.571916523353    -0.966159590551     1.251526032098     1.007825032230

  Running in c1 symmetry.

  Rotational constants: A =      0.10831  B =      0.05808  C =      0.04430 [cm^-1]
  Rotational constants: A =   3247.12000  B =   1741.11033  C =   1328.09688 [MHz]
  Nuclear repulsion =  333.890310393974119

  Charge       = 0
  Multiplicity = 1
  Electrons    = 58
  Nalpha       = 29
  Nbeta        = 29

  ==> Algorithm <==

  SCF Algorithm Type is DF.
  DIIS enabled.
  MOM disabled.
  Fractional occupation disabled.
  Guess Type is SAD.
  Energy threshold   = 1.00e-10
  Density threshold  = 1.00e-10
  Integral threshold = 1.00e-12

  ==> Primary Basis <==

  Basis Set: AUG-CC-PVTZ
    Blend: AUG-CC-PVTZ
    Number of shells: 242
    Number of basis functions: 690
    Number of Cartesian functions: 785
    Spherical Harmonics?: true
    Max angular momentum: 3

   => Loading Basis Set <=

    Name: (AUG-CC-PVTZ AUX)
    Role: JKFIT
    Keyword: DF_BASIS_SCF
    atoms 1-7  entry C          line   162 file /home1/07844/xy3866/miniconda3/envs/p4env/share/psi4/basis/aug-cc-pvtz-jkfit.gbs 
    atoms 8-23 entry H          line    70 file /home1/07844/xy3866/miniconda3/envs/p4env/share/psi4/basis/aug-cc-pvtz-jkfit.gbs 

  ==> Integral Setup <==

  DFHelper Memory: AOs need 5.098 GiB; user supplied 22.352 GiB. Using in-core AOs.

  ==> MemDFJK: Density-Fitted J/K Matrices <==

    J tasked:                   Yes
    K tasked:                   Yes
    wK tasked:                   No
    OpenMP threads:              32
    Memory [MiB]:             22888
    Algorithm:                 Core
    Schwarz Cutoff:           1E-12
    Mask sparsity (%):       6.1672
    Fitting Condition:        1E-10

   => Auxiliary Basis Set <=

  Basis Set: (AUG-CC-PVTZ AUX)
    Blend: AUG-CC-PVTZ-JKFIT
    Number of shells: 434
    Number of basis functions: 1464
    Number of Cartesian functions: 1797
    Spherical Harmonics?: true
    Max angular momentum: 4

  Minimum eigenvalue in the overlap matrix is 1.4899005872E-06.
  Reciprocal condition number of the overlap matrix is 6.0108218395E-08.
    Using symmetric orthogonalization.

  ==> Pre-Iterations <==

  SCF Guess: Superposition of Atomic Densities via on-the-fly atomic UHF (no occupation information).

   -------------------------
    Irrep   Nso     Nmo    
   -------------------------
     A        690     690 
   -------------------------
    Total     690     690
   -------------------------

  ==> Iterations <==

                           Total Energy        Delta E     RMS |[F,P]|

   @DF-RHF iter SAD:  -274.20196687490085   -2.74202e+02   0.00000e+00 
   @DF-RHF iter   1:  -274.11485401436624    8.71129e-02   1.11480e-03 DIIS
   @DF-RHF iter   2:  -274.40856160522918   -2.93708e-01   5.60139e-04 DIIS
   @DF-RHF iter   3:  -274.48621447521248   -7.76529e-02   1.01750e-04 DIIS
   @DF-RHF iter   4:  -274.49090964652436   -4.69517e-03   3.00538e-05 DIIS
   @DF-RHF iter   5:  -274.49121439495559   -3.04748e-04   6.52688e-06 DIIS
   @DF-RHF iter   6:  -274.49123312008260   -1.87251e-05   1.21442e-06 DIIS
   @DF-RHF iter   7:  -274.49123382105739   -7.00975e-07   2.78568e-07 DIIS
   @DF-RHF iter   8:  -274.49123385604798   -3.49906e-08   7.57755e-08 DIIS
   @DF-RHF iter   9:  -274.49123385832394   -2.27595e-09   1.98225e-08 DIIS
   @DF-RHF iter  10:  -274.49123385852295   -1.99009e-10   5.27189e-09 DIIS
   @DF-RHF iter  11:  -274.49123385853898   -1.60298e-11   1.26528e-09 DIIS
   @DF-RHF iter  12:  -274.49123385853943   -4.54747e-13   3.44870e-10 DIIS
   @DF-RHF iter  13:  -274.49123385853909    3.41061e-13   1.02093e-10 DIIS
   @DF-RHF iter  14:  -274.49123385853915   -5.68434e-14   2.28902e-11 DIIS
  Energy and wave function converged.


  ==> Post-Iterations <==

    Orbital Energies [Eh]
    ---------------------

    Doubly Occupied:                                                      

       1A    -11.216554     2A    -11.213253     3A    -11.212690  
       4A    -11.211980     5A    -11.209316     6A    -11.208990  
       7A    -11.208744     8A     -1.103541     9A     -1.012226  
      10A     -1.003867    11A     -0.919584    12A     -0.850525  
      13A     -0.816685    14A     -0.734939    15A     -0.647337  
      16A     -0.633876    17A     -0.594436    18A     -0.561062  
      19A     -0.558271    20A     -0.557418    21A     -0.546086  
      22A     -0.516436    23A     -0.500361    24A     -0.495388  
      25A     -0.482072    26A     -0.469321    27A     -0.441785  
      28A     -0.438078    29A     -0.432849  

    Virtual:                                                              

      30A      0.030176    31A      0.033967    32A      0.035019  
      33A      0.036181    34A      0.050752    35A      0.051538  
      36A      0.053055    37A      0.054409    38A      0.055267  
      39A      0.072680    40A      0.074327    41A      0.075178  
      42A      0.079187    43A      0.082079    44A      0.083696  
      45A      0.100668    46A      0.116565    47A      0.118514  
      48A      0.120177    49A      0.122022    50A      0.127437  
      51A      0.132799    52A      0.138121    53A      0.141161  
      54A      0.145432    55A      0.149849    56A      0.150200  
      57A      0.153140    58A      0.157069    59A      0.159270  
      60A      0.161358    61A      0.163194    62A      0.166920  
      63A      0.178745    64A      0.179489    65A      0.182928  
      66A      0.188037    67A      0.202660    68A      0.211374  
      69A      0.217080    70A      0.220997    71A      0.236642  
      72A      0.244987    73A      0.253619    74A      0.258585  
      75A      0.262172    76A      0.272685    77A      0.277681  
      78A      0.277904    79A      0.287313    80A      0.290869  
      81A      0.303862    82A      0.311601    83A      0.313480  
      84A      0.314433    85A      0.317938    86A      0.320925  
      87A      0.328347    88A      0.332750    89A      0.333788  
      90A      0.343868    91A      0.347427    92A      0.351642  
      93A      0.352196    94A      0.362705    95A      0.366493  
      96A      0.369285    97A      0.369476    98A      0.371212  
      99A      0.377294   100A      0.377949   101A      0.384546  
     102A      0.391772   103A      0.394460   104A      0.398225  
     105A      0.400552   106A      0.411841   107A      0.418866  
     108A      0.420931   109A      0.422097   110A      0.424813  
     111A      0.437683   112A      0.442365   113A      0.444732  
     114A      0.453129   115A      0.459464   116A      0.461491  
     117A      0.462151   118A      0.463269   119A      0.472324  
     120A      0.473045   121A      0.476298   122A      0.483762  
     123A      0.486048   124A      0.496193   125A      0.496766  
     126A      0.501640   127A      0.503468   128A      0.505916  
     129A      0.509839   130A      0.511656   131A      0.512354  
     132A      0.516092   133A      0.527729   134A      0.538030  
     135A      0.538145   136A      0.541578   137A      0.546489  
     138A      0.550200   139A      0.552924   140A      0.558134  
     141A      0.561492   142A      0.572319   143A      0.577523  
     144A      0.586826   145A      0.587721   146A      0.591801  
     147A      0.597517   148A      0.600936   149A      0.605618  
     150A      0.606023   151A      0.614675   152A      0.615772  
     153A      0.629432   154A      0.636838   155A      0.640064  
     156A      0.646028   157A      0.648937   158A      0.659813  
     159A      0.663548   160A      0.667364   161A      0.671656  
     162A      0.678001   163A      0.682843   164A      0.693271  
     165A      0.697404   166A      0.700296   167A      0.701946  
     168A      0.706515   169A      0.730608   170A      0.736483  
     171A      0.738818   172A      0.739204   173A      0.741551  
     174A      0.757487   175A      0.758997   176A      0.767075  
     177A      0.767935   178A      0.772578   179A      0.806062  
     180A      0.815379   181A      0.828968   182A      0.832186  
     183A      0.839453   184A      0.844635   185A      0.850277  
     186A      0.863924   187A      0.865119   188A      0.868390  
     189A      0.877058   190A      0.879543   191A      0.888752  
     192A      0.903911   193A      0.905538   194A      0.913512  
     195A      0.918567   196A      0.924667   197A      0.926331  
     198A      0.933073   199A      0.935404   200A      0.940839  
     201A      0.944967   202A      0.947590   203A      0.950680  
     204A      0.953518   205A      0.962471   206A      0.965343  
     207A      0.973449   208A      0.977201   209A      0.980130  
     210A      0.994178   211A      0.996168   212A      1.001438  
     213A      1.004832   214A      1.014351   215A      1.017236  
     216A      1.020510   217A      1.039611   218A      1.040593  
     219A      1.043607   220A      1.049349   221A      1.052208  
     222A      1.059618   223A      1.060927   224A      1.074140  
     225A      1.082488   226A      1.084390   227A      1.089289  
     228A      1.089558   229A      1.110069   230A      1.118299  
     231A      1.122515   232A      1.127591   233A      1.132795  
     234A      1.137995   235A      1.143979   236A      1.153109  
     237A      1.163579   238A      1.170075   239A      1.177861  
     240A      1.189216   241A      1.190056   242A      1.196879  
     243A      1.199180   244A      1.204165   245A      1.208227  
     246A      1.216736   247A      1.223392   248A      1.229354  
     249A      1.234266   250A      1.243059   251A      1.244717  
     252A      1.248936   253A      1.260895   254A      1.262541  
     255A      1.268915   256A      1.269817   257A      1.273237  
     258A      1.283895   259A      1.287228   260A      1.298137  
     261A      1.301562   262A      1.318628   263A      1.325837  
     264A      1.327410   265A      1.337203   266A      1.338073  
     267A      1.350567   268A      1.363846   269A      1.365881  
     270A      1.369573   271A      1.381718   272A      1.383781  
     273A      1.399599   274A      1.407362   275A      1.411882  
     276A      1.414878   277A      1.418430   278A      1.428221  
     279A      1.452470   280A      1.457304   281A      1.469348  
     282A      1.470533   283A      1.485253   284A      1.497138  
     285A      1.501404   286A      1.512068   287A      1.518165  
     288A      1.523448   289A      1.525245   290A      1.539207  
     291A      1.540715   292A      1.559500   293A      1.579004  
     294A      1.579837   295A      1.591794   296A      1.593011  
     297A      1.594122   298A      1.603421   299A      1.605906  
     300A      1.624823   301A      1.629317   302A      1.636330  
     303A      1.641342   304A      1.651438   305A      1.657935  
     306A      1.662684   307A      1.665755   308A      1.670831  
     309A      1.679835   310A      1.686263   311A      1.693901  
     312A      1.707346   313A      1.708063   314A      1.711209  
     315A      1.715668   316A      1.718010   317A      1.733441  
     318A      1.734361   319A      1.745880   320A      1.758952  
     321A      1.766469   322A      1.781389   323A      1.791118  
     324A      1.791982   325A      1.794041   326A      1.802893  
     327A      1.806165   328A      1.815510   329A      1.828997  
     330A      1.830227   331A      1.832329   332A      1.844679  
     333A      1.845551   334A      1.851166   335A      1.864629  
     336A      1.874048   337A      1.883064   338A      1.883425  
     339A      1.890858   340A      1.892205   341A      1.898327  
     342A      1.913083   343A      1.913701   344A      1.928659  
     345A      1.931749   346A      1.947001   347A      1.967487  
     348A      1.975036   349A      1.977800   350A      1.980968  
     351A      1.989562   352A      1.991862   353A      2.000889  
     354A      2.011010   355A      2.016366   356A      2.017630  
     357A      2.029667   358A      2.031622   359A      2.033831  
     360A      2.047772   361A      2.051783   362A      2.056243  
     363A      2.068777   364A      2.092390   365A      2.099120  
     366A      2.101946   367A      2.115459   368A      2.126622  
     369A      2.128534   370A      2.132817   371A      2.150631  
     372A      2.155222   373A      2.159515   374A      2.163722  
     375A      2.180537   376A      2.190458   377A      2.195106  
     378A      2.227105   379A      2.237245   380A      2.248043  
     381A      2.259863   382A      2.262334   383A      2.271303  
     384A      2.273900   385A      2.284136   386A      2.285608  
     387A      2.293283   388A      2.298856   389A      2.313041  
     390A      2.330590   391A      2.331679   392A      2.337050  
     393A      2.352181   394A      2.363995   395A      2.373002  
     396A      2.381813   397A      2.384107   398A      2.406608  
     399A      2.412904   400A      2.416726   401A      2.419741  
     402A      2.441369   403A      2.460178   404A      2.486734  
     405A      2.489117   406A      2.491398   407A      2.504698  
     408A      2.510526   409A      2.543650   410A      2.547160  
     411A      2.560647   412A      2.565403   413A      2.581529  
     414A      2.603273   415A      2.608301   416A      2.618194  
     417A      2.633889   418A      2.648707   419A      2.687358  
     420A      2.694951   421A      2.696950   422A      2.734361  
     423A      2.759328   424A      2.768329   425A      2.788321  
     426A      2.849848   427A      2.894092   428A      2.947851  
     429A      2.994528   430A      3.026000   431A      3.051386  
     432A      3.092433   433A      3.111975   434A      3.269941  
     435A      3.324049   436A      3.346751   437A      3.360081  
     438A      3.404117   439A      3.411503   440A      3.438818  
     441A      3.486605   442A      3.487364   443A      3.497979  
     444A      3.502689   445A      3.542566   446A      3.548086  
     447A      3.559053   448A      3.587675   449A      3.602699  
     450A      3.613268   451A      3.621045   452A      3.627236  
     453A      3.627700   454A      3.647017   455A      3.649419  
     456A      3.674826   457A      3.678305   458A      3.694309  
     459A      3.708706   460A      3.710246   461A      3.722054  
     462A      3.742591   463A      3.743475   464A      3.751301  
     465A      3.767826   466A      3.772436   467A      3.782133  
     468A      3.788243   469A      3.791430   470A      3.803816  
     471A      3.818339   472A      3.823683   473A      3.837059  
     474A      3.843532   475A      3.848355   476A      3.861513  
     477A      3.868494   478A      3.875950   479A      3.884270  
     480A      3.906410   481A      3.911684   482A      3.917666  
     483A      3.939967   484A      3.953025   485A      3.954176  
     486A      3.970725   487A      3.974422   488A      3.982354  
     489A      3.996144   490A      3.998783   491A      4.008017  
     492A      4.022148   493A      4.033981   494A      4.038888  
     495A      4.046272   496A      4.050021   497A      4.055312  
     498A      4.058652   499A      4.074216   500A      4.076545  
     501A      4.099897   502A      4.102947   503A      4.104516  
     504A      4.118795   505A      4.124037   506A      4.130846  
     507A      4.150910   508A      4.157824   509A      4.162379  
     510A      4.169720   511A      4.189482   512A      4.190930  
     513A      4.203006   514A      4.221825   515A      4.227233  
     516A      4.232687   517A      4.237365   518A      4.243238  
     519A      4.248095   520A      4.253302   521A      4.279520  
     522A      4.281288   523A      4.305064   524A      4.328339  
     525A      4.331619   526A      4.342195   527A      4.357497  
     528A      4.360985   529A      4.368810   530A      4.391305  
     531A      4.396805   532A      4.398686   533A      4.412504  
     534A      4.432696   535A      4.445240   536A      4.450228  
     537A      4.456716   538A      4.461059   539A      4.469755  
     540A      4.509059   541A      4.527325   542A      4.529303  
     543A      4.541519   544A      4.559135   545A      4.567115  
     546A      4.581464   547A      4.587888   548A      4.594414  
     549A      4.622909   550A      4.658160   551A      4.661903  
     552A      4.670677   553A      4.678686   554A      4.690133  
     555A      4.713495   556A      4.722738   557A      4.730981  
     558A      4.743269   559A      4.752116   560A      4.755053  
     561A      4.772467   562A      4.794636   563A      4.799196  
     564A      4.811845   565A      4.815789   566A      4.823677  
     567A      4.831360   568A      4.871441   569A      4.880171  
     570A      4.905353   571A      4.910625   572A      4.922849  
     573A      4.927678   574A      4.950546   575A      4.953833  
     576A      4.954947   577A      4.968447   578A      4.988701  
     579A      5.015479   580A      5.025004   581A      5.030987  
     582A      5.045723   583A      5.047842   584A      5.075783  
     585A      5.097944   586A      5.128398   587A      5.132965  
     588A      5.142046   589A      5.157537   590A      5.183566  
     591A      5.191205   592A      5.216575   593A      5.217174  
     594A      5.231414   595A      5.253439   596A      5.256187  
     597A      5.260799   598A      5.271619   599A      5.284291  
     600A      5.294454   601A      5.313372   602A      5.315215  
     603A      5.320594   604A      5.338702   605A      5.346382  
     606A      5.351192   607A      5.376354   608A      5.382377  
     609A      5.391462   610A      5.404059   611A      5.426330  
     612A      5.441140   613A      5.445231   614A      5.458718  
     615A      5.475995   616A      5.483624   617A      5.492109  
     618A      5.510283   619A      5.517232   620A      5.528349  
     621A      5.557133   622A      5.565874   623A      5.575080  
     624A      5.581611   625A      5.622027   626A      5.633353  
     627A      5.636348   628A      5.656684   629A      5.671639  
     630A      5.692567   631A      5.696274   632A      5.700684  
     633A      5.724962   634A      5.725352   635A      5.746818  
     636A      5.748449   637A      5.765204   638A      5.773403  
     639A      5.802466   640A      5.808311   641A      5.817921  
     642A      5.847111   643A      5.853445   644A      5.890183  
     645A      5.924081   646A      5.946368   647A      5.967284  
     648A      5.978741   649A      6.006593   650A      6.015132  
     651A      6.042757   652A      6.060465   653A      6.103033  
     654A      6.109261   655A      6.168358   656A      6.177112  
     657A      6.192322   658A      6.219825   659A      6.248286  
     660A      6.260492   661A      6.270133   662A      6.291900  
     663A      6.297751   664A      6.323204   665A      6.336764  
     666A      6.341923   667A      6.362409   668A      6.406550  
     669A      6.457806   670A      6.465831   671A      6.577086  
     672A      6.723107   673A      6.746364   674A      6.826131  
     675A      6.859116   676A      6.915376   677A      6.929920  
     678A      6.940157   679A      6.947341   680A      6.959438  
     681A      7.071316   682A      7.117037   683A      7.145918  
     684A     17.904879   685A     18.070587   686A     18.320787  
     687A     18.395829   688A     18.883324   689A     19.158769  
     690A     20.191893  

    Final Occupation by Irrep:
              A 
    DOCC [    29 ]

  @DF-RHF Final Energy:  -274.49123385853915

   => Energetics <=

    Nuclear Repulsion Energy =            333.8903103939741186
    One-Electron Energy =               -1031.1677542251416071
    Two-Electron Energy =                 422.7862099726283418
    Total Energy =                       -274.4912338585391467

Computation Completed

*** tstop() called on c452-002.stampede2.tacc.utexas.edu at Sat Mar 20 01:52:53 2021
Module time:
	user time   =     582.05 seconds =       9.70 minutes
	system time =      37.86 seconds =       0.63 minutes
	total time  =         34 seconds =       0.57 minutes
Total time:
	user time   =     582.05 seconds =       9.70 minutes
	system time =      37.86 seconds =       0.63 minutes
	total time  =         34 seconds =       0.57 minutes
   => Loading Basis Set <=

    Name: (AUG-CC-PVTZ AUX)
    Role: RIFIT
    Keyword: DF_BASIS_MP2
    atoms 1-7  entry C          line   148 file /home1/07844/xy3866/miniconda3/envs/p4env/share/psi4/basis/aug-cc-pvtz-ri.gbs 
    atoms 8-23 entry H          line    30 file /home1/07844/xy3866/miniconda3/envs/p4env/share/psi4/basis/aug-cc-pvtz-ri.gbs 


*** tstart() called on c452-002.stampede2.tacc.utexas.edu
*** at Sat Mar 20 01:52:54 2021


  //>>>>>>>>>>>>>>>>>>>>>>>>>>>>>>>>>>>//
  //               DFMP2               //
  //<<<<<<<<<<<<<<<<<<<<<<<<<<<<<<<<<<<//

	 --------------------------------------------------------
	                          DF-MP2                         
	      2nd-Order Density-Fitted Moller-Plesset Theory     
	              RMP2 Wavefunction,  32 Threads             
	                                                         
	        Rob Parrish, Justin Turney, Andy Simmonett,      
	           Ed Hohenstein, and C. David Sherrill          
	 --------------------------------------------------------

   => Auxiliary Basis Set <=

  Basis Set: (AUG-CC-PVTZ AUX)
    Blend: AUG-CC-PVTZ-RI
    Number of shells: 420
    Number of basis functions: 1478
    Number of Cartesian functions: 1832
    Spherical Harmonics?: true
    Max angular momentum: 4

	 --------------------------------------------------------
	                 NBF =   690, NAUX =  1478
	 --------------------------------------------------------
	   CLASS    FOCC     OCC    AOCC    AVIR     VIR    FVIR
	   PAIRS       0      29      29     661     661       0
	 --------------------------------------------------------

  DFHelper Memory: AOs need 5.232 GiB; user supplied 22.352 GiB. Using in-core AOs.


         ------------------------------------------------------------
                                     CPHF                           
                                  Rob Parrish                       
         ------------------------------------------------------------

  ==> Geometry <==

    Molecular point group: c1
    Full point group: C1

    Geometry (in Angstrom), charge = 0, multiplicity = 1:

       Center              X                  Y                   Z               Mass       
    ------------   -----------------  -----------------  -----------------  -----------------
         C            0.001959476647    -0.417907590551     0.304308032098    12.000000000000
         C            1.240081976647    -0.837726890551    -0.460363467902    12.000000000000
         C            0.001959476647     1.072157409449     0.677594032098    12.000000000000
         C           -1.252512523353    -0.843270590551    -0.470460967902    12.000000000000
         C            2.575631476647    -0.547328590551     0.239752032098    12.000000000000
         C            0.001959476647     2.035577409449    -0.508415967902    12.000000000000
         C           -2.571712523353    -0.547328590551     0.239752032098    12.000000000000
         H            0.001959476647    -0.979702590551     1.252565032098     1.007825032230
         H            1.187172476647    -1.922520590551    -0.658247967902     1.007825032230
         H            1.255189476647    -0.366899590551    -1.458941967902     1.007825032230
         H            0.873664476647     1.279532409449     1.308597032098     1.007825032230
         H           -0.869743523353     1.279533409449     1.308598032098     1.007825032230
         H           -1.251270523353    -0.366898590551    -1.458941967902     1.007825032230
         H           -1.183253523353    -1.922520590551    -0.658247967902     1.007825032230
         H            2.762557476647     0.526586409449     0.321140032098     1.007825032230
         H            3.417028476647    -0.987234590551    -0.304225967902     1.007825032230
         H            2.575835476647    -0.966157590551     1.251526032098     1.007825032230
         H            0.885599476647     1.901297409449    -1.138762967902     1.007825032230
         H            0.001959476647     3.072428409449    -0.158659967902     1.007825032230
         H           -0.881681523353     1.901296409449    -1.138761967902     1.007825032230
         H           -3.413109523353    -0.987234590551    -0.304225967902     1.007825032230
         H           -2.758638523353     0.526586409449     0.321141032098     1.007825032230
         H           -2.571916523353    -0.966159590551     1.251526032098     1.007825032230

  Nuclear repulsion =  333.890310393974119
  Reference energy  = -274.491233858539147

  ==> Basis Set <==

  Basis Set: AUG-CC-PVTZ
    Blend: AUG-CC-PVTZ
    Number of shells: 242
    Number of basis functions: 690
    Number of Cartesian functions: 785
    Spherical Harmonics?: true
    Max angular momentum: 3

  ==> CGRSolver (by Rob Parrish) <==

   Number of roots    =         1
   Preconditioning    =    JACOBI
   Convergence cutoff =     1E-06
   Maximum iterations =       100

  ==> CPHFRHamiltonian (by Rob Parrish) <== 

  ==> MemDFJK: Density-Fitted J/K Matrices <==

    J tasked:                   Yes
    K tasked:                   Yes
    wK tasked:                   No
    OpenMP threads:              32
    Memory [MiB]:             22888
    Algorithm:                 Core
    Schwarz Cutoff:           1E-12
    Mask sparsity (%):       3.5812
    Fitting Condition:        1E-10

   => Auxiliary Basis Set <=

  Basis Set: (AUG-CC-PVTZ AUX)
    Blend: AUG-CC-PVTZ-JKFIT
    Number of shells: 434
    Number of basis functions: 1464
    Number of Cartesian functions: 1797
    Spherical Harmonics?: true
    Max angular momentum: 4

  ==> CPHF Iterations <==

  => Iterations <=

             Iter  Converged  Remaining    Residual
  CGR           1          0          1   8.779E-02
  CGR           2          0          1   1.434E-02
  CGR           3          0          1   4.410E-03
  CGR           4          0          1   9.629E-04
  CGR           5          0          1   2.051E-04
  CGR           6          0          1   4.812E-05
  CGR           7          0          1   1.352E-05
  CGR           8          0          1   3.030E-06
  CGR           9          1          0   8.175E-07

    CGRSolver converged.

	-----------------------------------------------------------
	 ==================> DF-MP2 Energies <==================== 
	-----------------------------------------------------------
	 Reference Energy          =    -274.4912338585391467 [Eh]
	 Singles Energy            =      -0.0000000000000000 [Eh]
	 Same-Spin Energy          =      -0.2969534370323360 [Eh]
	 Opposite-Spin Energy      =      -1.1073666780113176 [Eh]
	 Correlation Energy        =      -1.4043201150436535 [Eh]
	 Total Energy              =    -275.8955539735828211 [Eh]
	-----------------------------------------------------------
	 ================> DF-SCS-MP2 Energies <================== 
	-----------------------------------------------------------
	 SCS Same-Spin Scale       =       0.3333333333333333 [-]
	 SCS Opposite-Spin Scale   =       1.2000000000000000 [-]
	 SCS Same-Spin Energy      =      -0.0989844790107787 [Eh]
	 SCS Opposite-Spin Energy  =      -1.3288400136135812 [Eh]
	 SCS Correlation Energy    =      -1.4278244926243597 [Eh]
	 SCS Total Energy          =    -275.9190583511635282 [Eh]
	-----------------------------------------------------------



Properties will be evaluated at  -0.000000,   0.000000,   0.000000 [a0]

Properties computed using the MP2 density matrix

  Nuclear Dipole Moment: [e a0]
     X:     0.0294      Y:     0.9580      Z:    -0.2474

  Electronic Dipole Moment: [e a0]
     X:    -0.0317      Y:    -0.9833      Z:     0.2590

  Dipole Moment: [e a0]
     X:    -0.0023      Y:    -0.0252      Z:     0.0116     Total:     0.0279

  Dipole Moment: [D]
     X:    -0.0059      Y:    -0.0642      Z:     0.0296     Total:     0.0709


*** tstop() called on c452-002.stampede2.tacc.utexas.edu at Sat Mar 20 01:55:55 2021
Module time:
	user time   =    1761.05 seconds =      29.35 minutes
	system time =      53.84 seconds =       0.90 minutes
	total time  =        181 seconds =       3.02 minutes
Total time:
	user time   =    2344.19 seconds =      39.07 minutes
	system time =      91.73 seconds =       1.53 minutes
	total time  =        216 seconds =       3.60 minutes

    Psi4 stopped on: Saturday, 20 March 2021 01:55AM
    Psi4 wall time for execution: 0:03:37.34

*** Psi4 exiting successfully. Buy a developer a beer!
