081_3-Methylindole Gaussian SP Calculation on node59.bme.utexas.edu     
Freq      RMP2-FC                                                     6-31G(d)            
Number of atoms                            I               19
Info1-9                                    I   N=           9
          30          29        1002           0           0         100
           6           2           1
Charge                                     I                0
Multiplicity                               I                1
Number of electrons                        I               70
Number of alpha electrons                  I               35
Number of beta electrons                   I               35
Number of basis functions                  I              168
Number of independent functions            I              168
Number of point charges in /Mol/           I                0
Number of translation vectors              I                0
Atomic numbers                             I   N=          19
           7           6           6           6           6           6
           6           6           6           6           1           1
           1           1           1           1           1           1
           1
Nuclear charges                            R   N=          19
  7.00000000E+00  6.00000000E+00  6.00000000E+00  6.00000000E+00  6.00000000E+00
  6.00000000E+00  6.00000000E+00  6.00000000E+00  6.00000000E+00  6.00000000E+00
  1.00000000E+00  1.00000000E+00  1.00000000E+00  1.00000000E+00  1.00000000E+00
  1.00000000E+00  1.00000000E+00  1.00000000E+00  1.00000000E+00
Current cartesian coordinates              R   N=          57
  1.19590695E+00  3.42356898E+00 -2.12150154E-05  3.37482951E-01 -7.38887542E-01
  1.99854986E-05 -7.63069798E-01  1.71305740E+00 -3.21421884E-05  3.02901124E+00
 -4.29306355E-01  2.61809735E-05  3.46635159E+00  2.13702321E+00  2.84586847E-05
 -1.26393881E+00 -2.86286921E+00 -5.19559955E-06 -3.38156774E+00  2.09734265E+00
 -6.51424961E-05  4.96242804E+00 -2.49097292E+00  1.35123832E-04 -3.86119887E+00
 -2.49233628E+00 -3.77255075E-05 -4.90920311E+00 -3.80455852E-02 -8.01066318E-05
  1.00650877E+00  5.32461140E+00 -5.27328131E-05  5.24161115E+00  3.15786384E+00
  2.21036951E-05 -4.79662672E-01 -4.76473145E+00  3.48955034E-05 -4.19409557E+00
  3.98688580E+00 -1.01929285E-04  4.77752046E+00 -3.70189643E+00  1.66884989E+00
  4.77697378E+00 -3.70254648E+00 -1.66804512E+00  6.87424171E+00 -1.70340317E+00
 -3.34029035E-04 -5.12000118E+00 -4.11680357E+00 -5.46930016E-05 -6.95221803E+00
  1.85005072E-01 -1.06498374E-04
Force Field                                I                0
Int Atom Types                             I   N=          19
           0           0           0           0           0           0
           0           0           0           0           0           0
           0           0           0           0           0           0
           0
MM charges                                 R   N=          19
  0.00000000E+00  0.00000000E+00  0.00000000E+00  0.00000000E+00  0.00000000E+00
  0.00000000E+00  0.00000000E+00  0.00000000E+00  0.00000000E+00  0.00000000E+00
  0.00000000E+00  0.00000000E+00  0.00000000E+00  0.00000000E+00  0.00000000E+00
  0.00000000E+00  0.00000000E+00  0.00000000E+00  0.00000000E+00
Integer atomic weights                     I   N=          19
          14          12          12          12          12          12
          12          12          12          12           1           1
           1           1           1           1           1           1
           1
Real atomic weights                        R   N=          19
  1.40030740E+01  1.20000000E+01  1.20000000E+01  1.20000000E+01  1.20000000E+01
  1.20000000E+01  1.20000000E+01  1.20000000E+01  1.20000000E+01  1.20000000E+01
  1.00782504E+00  1.00782504E+00  1.00782504E+00  1.00782504E+00  1.00782504E+00
  1.00782504E+00  1.00782504E+00  1.00782504E+00  1.00782504E+00
Atom fragment info                         I   N=          19
           0           0           0           0           0           0
           0           0           0           0           0           0
           0           0           0           0           0           0
           0
Atom residue num                           I   N=          19
           0           0           0           0           0           0
           0           0           0           0           0           0
           0           0           0           0           0           0
           0
Nuclear spins                              I   N=          19
           2           0           0           0           0           0
           0           0           0           0           1           1
           1           1           1           1           1           1
           1
Nuclear ZEff                               R   N=          19
 -4.55000000E+00 -3.60000000E+00 -3.60000000E+00 -3.60000000E+00 -3.60000000E+00
 -3.60000000E+00 -3.60000000E+00 -3.60000000E+00 -3.60000000E+00 -3.60000000E+00
 -1.00000000E+00 -1.00000000E+00 -1.00000000E+00 -1.00000000E+00 -1.00000000E+00
 -1.00000000E+00 -1.00000000E+00 -1.00000000E+00 -1.00000000E+00
Nuclear QMom                               R   N=          19
  2.04400000E+00  0.00000000E+00  0.00000000E+00  0.00000000E+00  0.00000000E+00
  0.00000000E+00  0.00000000E+00  0.00000000E+00  0.00000000E+00  0.00000000E+00
  0.00000000E+00  0.00000000E+00  0.00000000E+00  0.00000000E+00  0.00000000E+00
  0.00000000E+00  0.00000000E+00  0.00000000E+00  0.00000000E+00
Nuclear GFac                               R   N=          19
  4.03761000E-01  0.00000000E+00  0.00000000E+00  0.00000000E+00  0.00000000E+00
  0.00000000E+00  0.00000000E+00  0.00000000E+00  0.00000000E+00  0.00000000E+00
  2.79284600E+00  2.79284600E+00  2.79284600E+00  2.79284600E+00  2.79284600E+00
  2.79284600E+00  2.79284600E+00  2.79284600E+00  2.79284600E+00
MicOpt                                     I   N=          19
          -1          -1          -1          -1          -1          -1
          -1          -1          -1          -1          -1          -1
          -1          -1          -1          -1          -1          -1
          -1
Number of contracted shells                I               58
Number of primitive shells                 I              146
Pure/Cartesian d shells                    I                1
Pure/Cartesian f shells                    I                0
Highest angular momentum                   I                2
Largest degree of contraction              I                6
Shell types                                I   N=          58
           0          -1          -1           2           0          -1
          -1           2           0          -1          -1           2
           0          -1          -1           2           0          -1
          -1           2           0          -1          -1           2
           0          -1          -1           2           0          -1
          -1           2           0          -1          -1           2
           0          -1          -1           2           0           0
           0           0           0           0           0           0
           0           0           0           0           0           0
           0           0           0           0
Number of primitives per shell             I   N=          58
           6           3           1           1           6           3
           1           1           6           3           1           1
           6           3           1           1           6           3
           1           1           6           3           1           1
           6           3           1           1           6           3
           1           1           6           3           1           1
           6           3           1           1           3           1
           3           1           3           1           3           1
           3           1           3           1           3           1
           3           1           3           1
Shell to atom map                          I   N=          58
           1           1           1           1           2           2
           2           2           3           3           3           3
           4           4           4           4           5           5
           5           5           6           6           6           6
           7           7           7           7           8           8
           8           8           9           9           9           9
          10          10          10          10          11          11
          12          12          13          13          14          14
          15          15          16          16          17          17
          18          18          19          19
Primitive exponents                        R   N=         146
  4.17351146E+03  6.27457911E+02  1.42902093E+02  4.02343293E+01  1.28202129E+01
  4.39043701E+00  1.16263619E+01  2.71627981E+00  7.72218397E-01  2.12031498E-01
  8.00000000E-01  3.04752488E+03  4.57369518E+02  1.03948685E+02  2.92101553E+01
  9.28666296E+00  3.16392696E+00  7.86827235E+00  1.88128854E+00  5.44249258E-01
  1.68714478E-01  8.00000000E-01  3.04752488E+03  4.57369518E+02  1.03948685E+02
  2.92101553E+01  9.28666296E+00  3.16392696E+00  7.86827235E+00  1.88128854E+00
  5.44249258E-01  1.68714478E-01  8.00000000E-01  3.04752488E+03  4.57369518E+02
  1.03948685E+02  2.92101553E+01  9.28666296E+00  3.16392696E+00  7.86827235E+00
  1.88128854E+00  5.44249258E-01  1.68714478E-01  8.00000000E-01  3.04752488E+03
  4.57369518E+02  1.03948685E+02  2.92101553E+01  9.28666296E+00  3.16392696E+00
  7.86827235E+00  1.88128854E+00  5.44249258E-01  1.68714478E-01  8.00000000E-01
  3.04752488E+03  4.57369518E+02  1.03948685E+02  2.92101553E+01  9.28666296E+00
  3.16392696E+00  7.86827235E+00  1.88128854E+00  5.44249258E-01  1.68714478E-01
  8.00000000E-01  3.04752488E+03  4.57369518E+02  1.03948685E+02  2.92101553E+01
  9.28666296E+00  3.16392696E+00  7.86827235E+00  1.88128854E+00  5.44249258E-01
  1.68714478E-01  8.00000000E-01  3.04752488E+03  4.57369518E+02  1.03948685E+02
  2.92101553E+01  9.28666296E+00  3.16392696E+00  7.86827235E+00  1.88128854E+00
  5.44249258E-01  1.68714478E-01  8.00000000E-01  3.04752488E+03  4.57369518E+02
  1.03948685E+02  2.92101553E+01  9.28666296E+00  3.16392696E+00  7.86827235E+00
  1.88128854E+00  5.44249258E-01  1.68714478E-01  8.00000000E-01  3.04752488E+03
  4.57369518E+02  1.03948685E+02  2.92101553E+01  9.28666296E+00  3.16392696E+00
  7.86827235E+00  1.88128854E+00  5.44249258E-01  1.68714478E-01  8.00000000E-01
  1.87311370E+01  2.82539436E+00  6.40121692E-01  1.61277759E-01  1.87311370E+01
  2.82539436E+00  6.40121692E-01  1.61277759E-01  1.87311370E+01  2.82539436E+00
  6.40121692E-01  1.61277759E-01  1.87311370E+01  2.82539436E+00  6.40121692E-01
  1.61277759E-01  1.87311370E+01  2.82539436E+00  6.40121692E-01  1.61277759E-01
  1.87311370E+01  2.82539436E+00  6.40121692E-01  1.61277759E-01  1.87311370E+01
  2.82539436E+00  6.40121692E-01  1.61277759E-01  1.87311370E+01  2.82539436E+00
  6.40121692E-01  1.61277759E-01  1.87311370E+01  2.82539436E+00  6.40121692E-01
  1.61277759E-01
Contraction coefficients                   R   N=         146
  1.83477216E-03  1.39946270E-02  6.85865518E-02  2.32240873E-01  4.69069948E-01
  3.60455199E-01 -1.14961182E-01 -1.69117479E-01  1.14585195E+00  1.00000000E+00
  1.00000000E+00  1.83473713E-03  1.40373228E-02  6.88426223E-02  2.32184443E-01
  4.67941348E-01  3.62311985E-01 -1.19332420E-01 -1.60854152E-01  1.14345644E+00
  1.00000000E+00  1.00000000E+00  1.83473713E-03  1.40373228E-02  6.88426223E-02
  2.32184443E-01  4.67941348E-01  3.62311985E-01 -1.19332420E-01 -1.60854152E-01
  1.14345644E+00  1.00000000E+00  1.00000000E+00  1.83473713E-03  1.40373228E-02
  6.88426223E-02  2.32184443E-01  4.67941348E-01  3.62311985E-01 -1.19332420E-01
 -1.60854152E-01  1.14345644E+00  1.00000000E+00  1.00000000E+00  1.83473713E-03
  1.40373228E-02  6.88426223E-02  2.32184443E-01  4.67941348E-01  3.62311985E-01
 -1.19332420E-01 -1.60854152E-01  1.14345644E+00  1.00000000E+00  1.00000000E+00
  1.83473713E-03  1.40373228E-02  6.88426223E-02  2.32184443E-01  4.67941348E-01
  3.62311985E-01 -1.19332420E-01 -1.60854152E-01  1.14345644E+00  1.00000000E+00
  1.00000000E+00  1.83473713E-03  1.40373228E-02  6.88426223E-02  2.32184443E-01
  4.67941348E-01  3.62311985E-01 -1.19332420E-01 -1.60854152E-01  1.14345644E+00
  1.00000000E+00  1.00000000E+00  1.83473713E-03  1.40373228E-02  6.88426223E-02
  2.32184443E-01  4.67941348E-01  3.62311985E-01 -1.19332420E-01 -1.60854152E-01
  1.14345644E+00  1.00000000E+00  1.00000000E+00  1.83473713E-03  1.40373228E-02
  6.88426223E-02  2.32184443E-01  4.67941348E-01  3.62311985E-01 -1.19332420E-01
 -1.60854152E-01  1.14345644E+00  1.00000000E+00  1.00000000E+00  1.83473713E-03
  1.40373228E-02  6.88426223E-02  2.32184443E-01  4.67941348E-01  3.62311985E-01
 -1.19332420E-01 -1.60854152E-01  1.14345644E+00  1.00000000E+00  1.00000000E+00
  3.34946043E-02  2.34726953E-01  8.13757326E-01  1.00000000E+00  3.34946043E-02
  2.34726953E-01  8.13757326E-01  1.00000000E+00  3.34946043E-02  2.34726953E-01
  8.13757326E-01  1.00000000E+00  3.34946043E-02  2.34726953E-01  8.13757326E-01
  1.00000000E+00  3.34946043E-02  2.34726953E-01  8.13757326E-01  1.00000000E+00
  3.34946043E-02  2.34726953E-01  8.13757326E-01  1.00000000E+00  3.34946043E-02
  2.34726953E-01  8.13757326E-01  1.00000000E+00  3.34946043E-02  2.34726953E-01
  8.13757326E-01  1.00000000E+00  3.34946043E-02  2.34726953E-01  8.13757326E-01
  1.00000000E+00
P(S=P) Contraction coefficients            R   N=         146
  0.00000000E+00  0.00000000E+00  0.00000000E+00  0.00000000E+00  0.00000000E+00
  0.00000000E+00  6.75797439E-02  3.23907296E-01  7.40895140E-01  1.00000000E+00
  0.00000000E+00  0.00000000E+00  0.00000000E+00  0.00000000E+00  0.00000000E+00
  0.00000000E+00  0.00000000E+00  6.89990666E-02  3.16423961E-01  7.44308291E-01
  1.00000000E+00  0.00000000E+00  0.00000000E+00  0.00000000E+00  0.00000000E+00
  0.00000000E+00  0.00000000E+00  0.00000000E+00  6.89990666E-02  3.16423961E-01
  7.44308291E-01  1.00000000E+00  0.00000000E+00  0.00000000E+00  0.00000000E+00
  0.00000000E+00  0.00000000E+00  0.00000000E+00  0.00000000E+00  6.89990666E-02
  3.16423961E-01  7.44308291E-01  1.00000000E+00  0.00000000E+00  0.00000000E+00
  0.00000000E+00  0.00000000E+00  0.00000000E+00  0.00000000E+00  0.00000000E+00
  6.89990666E-02  3.16423961E-01  7.44308291E-01  1.00000000E+00  0.00000000E+00
  0.00000000E+00  0.00000000E+00  0.00000000E+00  0.00000000E+00  0.00000000E+00
  0.00000000E+00  6.89990666E-02  3.16423961E-01  7.44308291E-01  1.00000000E+00
  0.00000000E+00  0.00000000E+00  0.00000000E+00  0.00000000E+00  0.00000000E+00
  0.00000000E+00  0.00000000E+00  6.89990666E-02  3.16423961E-01  7.44308291E-01
  1.00000000E+00  0.00000000E+00  0.00000000E+00  0.00000000E+00  0.00000000E+00
  0.00000000E+00  0.00000000E+00  0.00000000E+00  6.89990666E-02  3.16423961E-01
  7.44308291E-01  1.00000000E+00  0.00000000E+00  0.00000000E+00  0.00000000E+00
  0.00000000E+00  0.00000000E+00  0.00000000E+00  0.00000000E+00  6.89990666E-02
  3.16423961E-01  7.44308291E-01  1.00000000E+00  0.00000000E+00  0.00000000E+00
  0.00000000E+00  0.00000000E+00  0.00000000E+00  0.00000000E+00  0.00000000E+00
  6.89990666E-02  3.16423961E-01  7.44308291E-01  1.00000000E+00  0.00000000E+00
  0.00000000E+00  0.00000000E+00  0.00000000E+00  0.00000000E+00  0.00000000E+00
  0.00000000E+00  0.00000000E+00  0.00000000E+00  0.00000000E+00  0.00000000E+00
  0.00000000E+00  0.00000000E+00  0.00000000E+00  0.00000000E+00  0.00000000E+00
  0.00000000E+00  0.00000000E+00  0.00000000E+00  0.00000000E+00  0.00000000E+00
  0.00000000E+00  0.00000000E+00  0.00000000E+00  0.00000000E+00  0.00000000E+00
  0.00000000E+00  0.00000000E+00  0.00000000E+00  0.00000000E+00  0.00000000E+00
  0.00000000E+00  0.00000000E+00  0.00000000E+00  0.00000000E+00  0.00000000E+00
  0.00000000E+00
Coordinates of each shell                  R   N=         174
  1.19590695E+00  3.42356898E+00 -2.12150154E-05  1.19590695E+00  3.42356898E+00
 -2.12150154E-05  1.19590695E+00  3.42356898E+00 -2.12150154E-05  1.19590695E+00
  3.42356898E+00 -2.12150154E-05  3.37482951E-01 -7.38887542E-01  1.99854986E-05
  3.37482951E-01 -7.38887542E-01  1.99854986E-05  3.37482951E-01 -7.38887542E-01
  1.99854986E-05  3.37482951E-01 -7.38887542E-01  1.99854986E-05 -7.63069798E-01
  1.71305740E+00 -3.21421884E-05 -7.63069798E-01  1.71305740E+00 -3.21421884E-05
 -7.63069798E-01  1.71305740E+00 -3.21421884E-05 -7.63069798E-01  1.71305740E+00
 -3.21421884E-05  3.02901124E+00 -4.29306355E-01  2.61809735E-05  3.02901124E+00
 -4.29306355E-01  2.61809735E-05  3.02901124E+00 -4.29306355E-01  2.61809735E-05
  3.02901124E+00 -4.29306355E-01  2.61809735E-05  3.46635159E+00  2.13702321E+00
  2.84586847E-05  3.46635159E+00  2.13702321E+00  2.84586847E-05  3.46635159E+00
  2.13702321E+00  2.84586847E-05  3.46635159E+00  2.13702321E+00  2.84586847E-05
 -1.26393881E+00 -2.86286921E+00 -5.19559955E-06 -1.26393881E+00 -2.86286921E+00
 -5.19559955E-06 -1.26393881E+00 -2.86286921E+00 -5.19559955E-06 -1.26393881E+00
 -2.86286921E+00 -5.19559955E-06 -3.38156774E+00  2.09734265E+00 -6.51424961E-05
 -3.38156774E+00  2.09734265E+00 -6.51424961E-05 -3.38156774E+00  2.09734265E+00
 -6.51424961E-05 -3.38156774E+00  2.09734265E+00 -6.51424961E-05  4.96242804E+00
 -2.49097292E+00  1.35123832E-04  4.96242804E+00 -2.49097292E+00  1.35123832E-04
  4.96242804E+00 -2.49097292E+00  1.35123832E-04  4.96242804E+00 -2.49097292E+00
  1.35123832E-04 -3.86119887E+00 -2.49233628E+00 -3.77255075E-05 -3.86119887E+00
 -2.49233628E+00 -3.77255075E-05 -3.86119887E+00 -2.49233628E+00 -3.77255075E-05
 -3.86119887E+00 -2.49233628E+00 -3.77255075E-05 -4.90920311E+00 -3.80455852E-02
 -8.01066318E-05 -4.90920311E+00 -3.80455852E-02 -8.01066318E-05 -4.90920311E+00
 -3.80455852E-02 -8.01066318E-05 -4.90920311E+00 -3.80455852E-02 -8.01066318E-05
  1.00650877E+00  5.32461140E+00 -5.27328131E-05  1.00650877E+00  5.32461140E+00
 -5.27328131E-05  5.24161115E+00  3.15786384E+00  2.21036951E-05  5.24161115E+00
  3.15786384E+00  2.21036951E-05 -4.79662672E-01 -4.76473145E+00  3.48955034E-05
 -4.79662672E-01 -4.76473145E+00  3.48955034E-05 -4.19409557E+00  3.98688580E+00
 -1.01929285E-04 -4.19409557E+00  3.98688580E+00 -1.01929285E-04  4.77752046E+00
 -3.70189643E+00  1.66884989E+00  4.77752046E+00 -3.70189643E+00  1.66884989E+00
  4.77697378E+00 -3.70254648E+00 -1.66804512E+00  4.77697378E+00 -3.70254648E+00
 -1.66804512E+00  6.87424171E+00 -1.70340317E+00 -3.34029035E-04  6.87424171E+00
 -1.70340317E+00 -3.34029035E-04 -5.12000118E+00 -4.11680357E+00 -5.46930016E-05
 -5.12000118E+00 -4.11680357E+00 -5.46930016E-05 -6.95221803E+00  1.85005072E-01
 -1.06498374E-04 -6.95221803E+00  1.85005072E-01 -1.06498374E-04
Constraint Structure                       R   N=          57
  1.19590695E+00  3.42356898E+00 -2.12150154E-05  3.37482951E-01 -7.38887542E-01
  1.99854986E-05 -7.63069798E-01  1.71305740E+00 -3.21421884E-05  3.02901124E+00
 -4.29306355E-01  2.61809735E-05  3.46635159E+00  2.13702321E+00  2.84586847E-05
 -1.26393881E+00 -2.86286921E+00 -5.19559955E-06 -3.38156774E+00  2.09734265E+00
 -6.51424961E-05  4.96242804E+00 -2.49097292E+00  1.35123832E-04 -3.86119887E+00
 -2.49233628E+00 -3.77255075E-05 -4.90920311E+00 -3.80455852E-02 -8.01066318E-05
  1.00650877E+00  5.32461140E+00 -5.27328131E-05  5.24161115E+00  3.15786384E+00
  2.21036951E-05 -4.79662672E-01 -4.76473145E+00  3.48955034E-05 -4.19409557E+00
  3.98688580E+00 -1.01929285E-04  4.77752046E+00 -3.70189643E+00  1.66884989E+00
  4.77697378E+00 -3.70254648E+00 -1.66804512E+00  6.87424171E+00 -1.70340317E+00
 -3.34029035E-04 -5.12000118E+00 -4.11680357E+00 -5.46930016E-05 -6.95221803E+00
  1.85005072E-01 -1.06498374E-04
Num ILSW                                   I              100
ILSW                                       I   N=         100
           0           1           0           1           2           0
           0           0           0           0           0          -1
           0           0           0           0           0           0
           0           0           0           0           1           0
           1           0           0           0           0           0
           0           0      100000           0          -1           0
           0           0           0           0           0           0
           0           0           0           1           1           0
           0           0           1           0           0           0
           0           0           4          40           0           0
           0           0           0           0           0           0
           0           0           0           0           0           0
           0           0           0           0           0           0
           0           0           0           0           0           0
           0           0           0           0           0           0
           0           0           0           0           0           0
           0           0           0           0
Num RLSW                                   I               40
RLSW                                       R   N=          40
  1.00000000E+00  1.00000000E+00  1.00000000E+00  1.00000000E+00  1.00000000E+00
  0.00000000E+00  0.00000000E+00  1.00000000E+00  0.00000000E+00  0.00000000E+00
  0.00000000E+00  0.00000000E+00  1.00000000E+00  0.00000000E+00  0.00000000E+00
  0.00000000E+00  0.00000000E+00  1.00000000E+00  0.00000000E+00  0.00000000E+00
  0.00000000E+00  0.00000000E+00  1.00000000E+00  0.00000000E+00  0.00000000E+00
  0.00000000E+00  0.00000000E+00  1.00000000E+00  0.00000000E+00  0.00000000E+00
  0.00000000E+00  0.00000000E+00  0.00000000E+00  0.00000000E+00  0.00000000E+00
  0.00000000E+00  0.00000000E+00  0.00000000E+00  1.00000000E+00  1.00000000E+00
MxBond                                     I                4
NBond                                      I   N=          19
           3           3           3           3           3           3
           3           4           3           3           1           1
           1           1           1           1           1           1
           1
IBond                                      I   N=          76
           3           5          11           0           3           4
           6           0           1           2           7           0
           2           5           8           0           1           4
          12           0           2           9          13           0
           3          10          14           0           4          15
          16          17           6          10          18           0
           7           9          19           0           1           0
           0           0           5           0           0           0
           6           0           0           0           7           0
           0           0           8           0           0           0
           8           0           0           0           8           0
           0           0           9           0           0           0
          10           0           0           0
RBond                                      R   N=          76
  1.00000000E+00  1.50000000E+00  1.00000000E+00  0.00000000E+00  1.50000000E+00
  1.50000000E+00  1.50000000E+00  0.00000000E+00  1.00000000E+00  1.50000000E+00
  1.50000000E+00  0.00000000E+00  1.50000000E+00  1.50000000E+00  1.00000000E+00
  0.00000000E+00  1.50000000E+00  1.50000000E+00  1.00000000E+00  0.00000000E+00
  1.50000000E+00  1.50000000E+00  1.00000000E+00  0.00000000E+00  1.50000000E+00
  1.50000000E+00  1.00000000E+00  0.00000000E+00  1.00000000E+00  1.00000000E+00
  1.00000000E+00  1.00000000E+00  1.50000000E+00  1.50000000E+00  1.00000000E+00
  0.00000000E+00  1.50000000E+00  1.50000000E+00  1.00000000E+00  0.00000000E+00
  1.00000000E+00  0.00000000E+00  0.00000000E+00  0.00000000E+00  1.00000000E+00
  0.00000000E+00  0.00000000E+00  0.00000000E+00  1.00000000E+00  0.00000000E+00
  0.00000000E+00  0.00000000E+00  1.00000000E+00  0.00000000E+00  0.00000000E+00
  0.00000000E+00  1.00000000E+00  0.00000000E+00  0.00000000E+00  0.00000000E+00
  1.00000000E+00  0.00000000E+00  0.00000000E+00  0.00000000E+00  1.00000000E+00
  0.00000000E+00  0.00000000E+00  0.00000000E+00  1.00000000E+00  0.00000000E+00
  0.00000000E+00  0.00000000E+00  1.00000000E+00  0.00000000E+00  0.00000000E+00
  0.00000000E+00
Virial Ratio                               R      2.002057912358192E+00
SCF Energy                                 R     -4.005030781221932E+02
MP2 Energy                                 R     -4.018137452980189E+02
Total Energy                               R     -4.018137452980189E+02
Post-SCF wavefunction norm                 R      1.714784854475817E+00
RMS Force                                  R      9.911215138008177E-07
RMS Density                                R      1.388121793574380E-09
External E-field                           R   N=          35
  0.00000000E+00  0.00000000E+00  0.00000000E+00  0.00000000E+00  0.00000000E+00
  0.00000000E+00  0.00000000E+00  0.00000000E+00  0.00000000E+00  0.00000000E+00
  0.00000000E+00  0.00000000E+00  0.00000000E+00  0.00000000E+00  0.00000000E+00
  0.00000000E+00  0.00000000E+00  0.00000000E+00  0.00000000E+00  0.00000000E+00
  0.00000000E+00  0.00000000E+00  0.00000000E+00  0.00000000E+00  0.00000000E+00
  0.00000000E+00  0.00000000E+00  0.00000000E+00  0.00000000E+00  0.00000000E+00
  0.00000000E+00  0.00000000E+00  0.00000000E+00  0.00000000E+00  0.00000000E+00
IOpCl                                      I                0
IROHF                                      I                0
Alpha Orbital Energies                     R   N=         168
 -1.56007826E+01 -1.12625471E+01 -1.12608707E+01 -1.12284445E+01 -1.12268604E+01
 -1.12261132E+01 -1.12197778E+01 -1.12179581E+01 -1.12175755E+01 -1.12170095E+01
 -1.28658953E+00 -1.12051596E+00 -1.06673810E+00 -9.91559869E-01 -9.80333100E-01
 -9.26883815E-01 -8.33457550E-01 -7.98210158E-01 -7.50617267E-01 -7.15358105E-01
 -6.54827695E-01 -6.39224154E-01 -5.98266527E-01 -5.87039977E-01 -5.85499961E-01
 -5.64843877E-01 -5.46910003E-01 -5.37689516E-01 -5.25340428E-01 -4.92201783E-01
 -4.70038694E-01 -4.55724435E-01 -3.67378876E-01 -2.91028115E-01 -2.70095141E-01
  1.33712373E-01  1.78610015E-01  2.27845309E-01  2.40086648E-01  2.43808035E-01
  2.64465536E-01  2.91020546E-01  2.99094141E-01  3.18176322E-01  3.34249579E-01
  3.40313274E-01  3.47024294E-01  4.01038608E-01  4.12149214E-01  4.27187182E-01
  4.51708357E-01  4.65982344E-01  5.07482520E-01  5.23266688E-01  5.34621502E-01
  5.88108853E-01  6.55317112E-01  6.97731699E-01  7.16843081E-01  7.44147438E-01
  7.60648044E-01  7.70998105E-01  7.71984968E-01  7.94719223E-01  7.97389443E-01
  8.30559962E-01  8.35525790E-01  8.39959180E-01  8.49231561E-01  8.50652554E-01
  8.69989412E-01  8.72947824E-01  9.00396842E-01  9.27246105E-01  9.45180687E-01
  9.50430160E-01  1.00978977E+00  1.03237700E+00  1.04209039E+00  1.08341979E+00
  1.08842352E+00  1.09526939E+00  1.11373299E+00  1.12193361E+00  1.14605142E+00
  1.16050224E+00  1.16097063E+00  1.17851382E+00  1.19131259E+00  1.22215862E+00
  1.22720602E+00  1.23830869E+00  1.25656893E+00  1.27763178E+00  1.30406560E+00
  1.33817654E+00  1.38329522E+00  1.39165537E+00  1.44851303E+00  1.50197558E+00
  1.52639449E+00  1.56741377E+00  1.59752276E+00  1.61965303E+00  1.62813637E+00
  1.66497615E+00  1.68422581E+00  1.70688902E+00  1.74574163E+00  1.75244013E+00
  1.78780791E+00  1.78883375E+00  1.79646897E+00  1.86913033E+00  1.88203834E+00
  2.05229333E+00  2.10226992E+00  2.11539523E+00  2.11959358E+00  2.18053770E+00
  2.19678547E+00  2.21947121E+00  2.26682214E+00  2.28272209E+00  2.31514338E+00
  2.32320585E+00  2.33686074E+00  2.37404332E+00  2.40097265E+00  2.46996315E+00
  2.48171842E+00  2.49616137E+00  2.55484731E+00  2.55637191E+00  2.56357782E+00
  2.58353499E+00  2.60389592E+00  2.62306443E+00  2.67757939E+00  2.69349277E+00
  2.73345049E+00  2.82769866E+00  2.83001216E+00  2.84216165E+00  2.92644330E+00
  2.93968868E+00  3.00396517E+00  3.02989915E+00  3.04036793E+00  3.09409139E+00
  3.13472755E+00  3.17722114E+00  3.22743602E+00  3.29100419E+00  3.35899271E+00
  3.50663605E+00  3.63187405E+00  3.82904669E+00  4.44429978E+00  4.52686210E+00
  4.53551857E+00  4.58858487E+00  4.63965138E+00  4.68469285E+00  4.78457635E+00
  4.83576564E+00  4.96359905E+00  5.22782992E+00
Alpha MO coefficients                      R   N=       28224
  9.95005847E-01  2.54887923E-02 -8.37143014E-06 -1.54730914E-04 -1.83874081E-09
 -5.52177889E-03  5.14745793E-04  1.97916862E-03 -9.06711508E-09 -3.45147411E-03
 -3.34063879E-03 -3.26203432E-03 -4.74683191E-05 -3.77646534E-09  3.93201906E-10
 -1.20564484E-06 -7.56281182E-05  4.69063528E-05 -3.01931125E-05  1.27534106E-09
  6.39822852E-04 -8.21689798E-04 -2.04518461E-04 -1.69370993E-08  7.00030566E-05
  1.70347816E-05 -1.62395745E-05  1.07849145E-05  2.32027762E-09 -6.97863311E-10
  4.40269338E-05  2.74135666E-04  1.36643800E-04  1.51113655E-04  1.38531488E-09
  1.40653247E-03  2.91496911E-03  1.88203140E-03  1.58935883E-08 -3.57291622E-05
 -9.25779705E-06 -2.97470581E-05  2.44472299E-05 -4.42951282E-10  4.70021052E-10
  2.31898872E-05  8.03285722E-05 -5.03234745E-05 -2.52539831E-05 -1.12474731E-09
 -1.37168309E-03  4.47061114E-04 -1.44241440E-03  1.90284038E-08  4.33232081E-05
 -5.47346609E-06  2.96979102E-05 -1.54749285E-05  5.45438122E-10 -1.25159624E-09