opt=Tight                                                               
Freq      RMP2-FC                                                     6-31G(d)            
Number of atoms                            I               17
Info1-9                                    I   N=           9
          26          26        1002           0           0         100
           6           2           1
Charge                                     I                0
Multiplicity                               I                1
Number of electrons                        I               64
Number of alpha electrons                  I               32
Number of beta electrons                   I               32
Number of basis functions                  I              151
Number of independent functions            I              151
Number of point charges in /Mol/           I                0
Number of translation vectors              I                0
Atomic numbers                             I   N=          17
           8           6           6           6           6           6
           6           6           6           1           1           1
           1           1           1           1           1
Nuclear charges                            R   N=          17
  8.00000000E+00  6.00000000E+00  6.00000000E+00  6.00000000E+00  6.00000000E+00
  6.00000000E+00  6.00000000E+00  6.00000000E+00  6.00000000E+00  1.00000000E+00
  1.00000000E+00  1.00000000E+00  1.00000000E+00  1.00000000E+00  1.00000000E+00
  1.00000000E+00  1.00000000E+00
Current cartesian coordinates              R   N=          51
 -6.16470239E+00 -5.78080452E-01  1.22416459E-02  2.95007603E+00 -5.95254283E-01
 -2.90809955E-02  5.85718725E-01 -1.77785057E+00 -1.89690709E-02 -1.64254806E+00
 -3.55374338E-01 -2.26767136E-03  3.02242231E+00  2.05200825E+00 -1.34510706E-02
 -1.54361523E+00  2.28980194E+00  1.22945582E-02  7.99845483E-01  3.48286353E+00
  2.67585220E-03  5.35296486E+00 -2.12134609E+00  2.53374480E-02 -4.11334798E+00
 -1.66161540E+00 -4.53534272E-03  4.72233112E-01 -3.83611948E+00 -3.76849185E-02
  4.84463042E+00  3.00851959E+00 -2.87729701E-02 -3.30177296E+00  3.35170331E+00
  1.98685806E-02  5.06953050E+00 -3.98366930E+00 -8.23776975E-01  6.86387649E+00
 -1.16524104E+00 -1.01081829E+00  6.00668538E+00 -2.40696496E+00  1.96823669E+00
  9.10035414E-01  5.53493792E+00  5.70697292E-03 -4.01669793E+00 -3.75792829E+00
 -2.27277362E-02
Force Field                                I                0
Int Atom Types                             I   N=          17
           0           0           0           0           0           0
           0           0           0           0           0           0
           0           0           0           0           0
MM charges                                 R   N=          17
  0.00000000E+00  0.00000000E+00  0.00000000E+00  0.00000000E+00  0.00000000E+00
  0.00000000E+00  0.00000000E+00  0.00000000E+00  0.00000000E+00  0.00000000E+00
  0.00000000E+00  0.00000000E+00  0.00000000E+00  0.00000000E+00  0.00000000E+00
  0.00000000E+00  0.00000000E+00
Integer atomic weights                     I   N=          17
          16          12          12          12          12          12
          12          12          12           1           1           1
           1           1           1           1           1
Real atomic weights                        R   N=          17
  1.59949146E+01  1.20000000E+01  1.20000000E+01  1.20000000E+01  1.20000000E+01
  1.20000000E+01  1.20000000E+01  1.20000000E+01  1.20000000E+01  1.00782504E+00
  1.00782504E+00  1.00782504E+00  1.00782504E+00  1.00782504E+00  1.00782504E+00
  1.00782504E+00  1.00782504E+00
Atom fragment info                         I   N=          17
           0           0           0           0           0           0
           0           0           0           0           0           0
           0           0           0           0           0
Atom residue num                           I   N=          17
           0           0           0           0           0           0
           0           0           0           0           0           0
           0           0           0           0           0
Nuclear spins                              I   N=          17
           0           0           0           0           0           0
           0           0           0           1           1           1
           1           1           1           1           1
Nuclear ZEff                               R   N=          17
 -5.60000000E+00 -3.60000000E+00 -3.60000000E+00 -3.60000000E+00 -3.60000000E+00
 -3.60000000E+00 -3.60000000E+00 -3.60000000E+00 -3.60000000E+00 -1.00000000E+00
 -1.00000000E+00 -1.00000000E+00 -1.00000000E+00 -1.00000000E+00 -1.00000000E+00
 -1.00000000E+00 -1.00000000E+00
Nuclear QMom                               R   N=          17
  0.00000000E+00  0.00000000E+00  0.00000000E+00  0.00000000E+00  0.00000000E+00
  0.00000000E+00  0.00000000E+00  0.00000000E+00  0.00000000E+00  0.00000000E+00
  0.00000000E+00  0.00000000E+00  0.00000000E+00  0.00000000E+00  0.00000000E+00
  0.00000000E+00  0.00000000E+00
Nuclear GFac                               R   N=          17
  0.00000000E+00  0.00000000E+00  0.00000000E+00  0.00000000E+00  0.00000000E+00
  0.00000000E+00  0.00000000E+00  0.00000000E+00  0.00000000E+00  2.79284600E+00
  2.79284600E+00  2.79284600E+00  2.79284600E+00  2.79284600E+00  2.79284600E+00
  2.79284600E+00  2.79284600E+00
MicOpt                                     I   N=          17
          -1          -1          -1          -1          -1          -1
          -1          -1          -1          -1          -1          -1
          -1          -1          -1          -1          -1
Number of contracted shells                I               52
Number of primitive shells                 I              131
Pure/Cartesian d shells                    I                1
Pure/Cartesian f shells                    I                0
Highest angular momentum                   I                2
Largest degree of contraction              I                6
Shell types                                I   N=          52
           0          -1          -1           2           0          -1
          -1           2           0          -1          -1           2
           0          -1          -1           2           0          -1
          -1           2           0          -1          -1           2
           0          -1          -1           2           0          -1
          -1           2           0          -1          -1           2
           0           0           0           0           0           0
           0           0           0           0           0           0
           0           0           0           0
Number of primitives per shell             I   N=          52
           6           3           1           1           6           3
           1           1           6           3           1           1
           6           3           1           1           6           3
           1           1           6           3           1           1
           6           3           1           1           6           3
           1           1           6           3           1           1
           3           1           3           1           3           1
           3           1           3           1           3           1
           3           1           3           1
Shell to atom map                          I   N=          52
           1           1           1           1           2           2
           2           2           3           3           3           3
           4           4           4           4           5           5
           5           5           6           6           6           6
           7           7           7           7           8           8
           8           8           9           9           9           9
          10          10          11          11          12          12
          13          13          14          14          15          15
          16          16          17          17
Primitive exponents                        R   N=         131
  5.48467166E+03  8.25234946E+02  1.88046958E+02  5.29645000E+01  1.68975704E+01
  5.79963534E+00  1.55396162E+01  3.59993359E+00  1.01376175E+00  2.70005823E-01
  8.00000000E-01  3.04752488E+03  4.57369518E+02  1.03948685E+02  2.92101553E+01
  9.28666296E+00  3.16392696E+00  7.86827235E+00  1.88128854E+00  5.44249258E-01
  1.68714478E-01  8.00000000E-01  3.04752488E+03  4.57369518E+02  1.03948685E+02
  2.92101553E+01  9.28666296E+00  3.16392696E+00  7.86827235E+00  1.88128854E+00
  5.44249258E-01  1.68714478E-01  8.00000000E-01  3.04752488E+03  4.57369518E+02
  1.03948685E+02  2.92101553E+01  9.28666296E+00  3.16392696E+00  7.86827235E+00
  1.88128854E+00  5.44249258E-01  1.68714478E-01  8.00000000E-01  3.04752488E+03
  4.57369518E+02  1.03948685E+02  2.92101553E+01  9.28666296E+00  3.16392696E+00
  7.86827235E+00  1.88128854E+00  5.44249258E-01  1.68714478E-01  8.00000000E-01
  3.04752488E+03  4.57369518E+02  1.03948685E+02  2.92101553E+01  9.28666296E+00
  3.16392696E+00  7.86827235E+00  1.88128854E+00  5.44249258E-01  1.68714478E-01
  8.00000000E-01  3.04752488E+03  4.57369518E+02  1.03948685E+02  2.92101553E+01
  9.28666296E+00  3.16392696E+00  7.86827235E+00  1.88128854E+00  5.44249258E-01
  1.68714478E-01  8.00000000E-01  3.04752488E+03  4.57369518E+02  1.03948685E+02
  2.92101553E+01  9.28666296E+00  3.16392696E+00  7.86827235E+00  1.88128854E+00
  5.44249258E-01  1.68714478E-01  8.00000000E-01  3.04752488E+03  4.57369518E+02
  1.03948685E+02  2.92101553E+01  9.28666296E+00  3.16392696E+00  7.86827235E+00
  1.88128854E+00  5.44249258E-01  1.68714478E-01  8.00000000E-01  1.87311370E+01
  2.82539436E+00  6.40121692E-01  1.61277759E-01  1.87311370E+01  2.82539436E+00
  6.40121692E-01  1.61277759E-01  1.87311370E+01  2.82539436E+00  6.40121692E-01
  1.61277759E-01  1.87311370E+01  2.82539436E+00  6.40121692E-01  1.61277759E-01
  1.87311370E+01  2.82539436E+00  6.40121692E-01  1.61277759E-01  1.87311370E+01
  2.82539436E+00  6.40121692E-01  1.61277759E-01  1.87311370E+01  2.82539436E+00
  6.40121692E-01  1.61277759E-01  1.87311370E+01  2.82539436E+00  6.40121692E-01
  1.61277759E-01
Contraction coefficients                   R   N=         131
  1.83107443E-03  1.39501722E-02  6.84450781E-02  2.32714336E-01  4.70192898E-01
  3.58520853E-01 -1.10777550E-01 -1.48026263E-01  1.13076702E+00  1.00000000E+00
  1.00000000E+00  1.83473713E-03  1.40373228E-02  6.88426223E-02  2.32184443E-01
  4.67941348E-01  3.62311985E-01 -1.19332420E-01 -1.60854152E-01  1.14345644E+00
  1.00000000E+00  1.00000000E+00  1.83473713E-03  1.40373228E-02  6.88426223E-02
  2.32184443E-01  4.67941348E-01  3.62311985E-01 -1.19332420E-01 -1.60854152E-01
  1.14345644E+00  1.00000000E+00  1.00000000E+00  1.83473713E-03  1.40373228E-02
  6.88426223E-02  2.32184443E-01  4.67941348E-01  3.62311985E-01 -1.19332420E-01
 -1.60854152E-01  1.14345644E+00  1.00000000E+00  1.00000000E+00  1.83473713E-03
  1.40373228E-02  6.88426223E-02  2.32184443E-01  4.67941348E-01  3.62311985E-01
 -1.19332420E-01 -1.60854152E-01  1.14345644E+00  1.00000000E+00  1.00000000E+00
  1.83473713E-03  1.40373228E-02  6.88426223E-02  2.32184443E-01  4.67941348E-01
  3.62311985E-01 -1.19332420E-01 -1.60854152E-01  1.14345644E+00  1.00000000E+00
  1.00000000E+00  1.83473713E-03  1.40373228E-02  6.88426223E-02  2.32184443E-01
  4.67941348E-01  3.62311985E-01 -1.19332420E-01 -1.60854152E-01  1.14345644E+00
  1.00000000E+00  1.00000000E+00  1.83473713E-03  1.40373228E-02  6.88426223E-02
  2.32184443E-01  4.67941348E-01  3.62311985E-01 -1.19332420E-01 -1.60854152E-01
  1.14345644E+00  1.00000000E+00  1.00000000E+00  1.83473713E-03  1.40373228E-02
  6.88426223E-02  2.32184443E-01  4.67941348E-01  3.62311985E-01 -1.19332420E-01
 -1.60854152E-01  1.14345644E+00  1.00000000E+00  1.00000000E+00  3.34946043E-02
  2.34726953E-01  8.13757326E-01  1.00000000E+00  3.34946043E-02  2.34726953E-01
  8.13757326E-01  1.00000000E+00  3.34946043E-02  2.34726953E-01  8.13757326E-01
  1.00000000E+00  3.34946043E-02  2.34726953E-01  8.13757326E-01  1.00000000E+00
  3.34946043E-02  2.34726953E-01  8.13757326E-01  1.00000000E+00  3.34946043E-02
  2.34726953E-01  8.13757326E-01  1.00000000E+00  3.34946043E-02  2.34726953E-01
  8.13757326E-01  1.00000000E+00  3.34946043E-02  2.34726953E-01  8.13757326E-01
  1.00000000E+00
P(S=P) Contraction coefficients            R   N=         131
  0.00000000E+00  0.00000000E+00  0.00000000E+00  0.00000000E+00  0.00000000E+00
  0.00000000E+00  7.08742682E-02  3.39752839E-01  7.27158577E-01  1.00000000E+00
  0.00000000E+00  0.00000000E+00  0.00000000E+00  0.00000000E+00  0.00000000E+00
  0.00000000E+00  0.00000000E+00  6.89990666E-02  3.16423961E-01  7.44308291E-01
  1.00000000E+00  0.00000000E+00  0.00000000E+00  0.00000000E+00  0.00000000E+00
  0.00000000E+00  0.00000000E+00  0.00000000E+00  6.89990666E-02  3.16423961E-01
  7.44308291E-01  1.00000000E+00  0.00000000E+00  0.00000000E+00  0.00000000E+00
  0.00000000E+00  0.00000000E+00  0.00000000E+00  0.00000000E+00  6.89990666E-02
  3.16423961E-01  7.44308291E-01  1.00000000E+00  0.00000000E+00  0.00000000E+00
  0.00000000E+00  0.00000000E+00  0.00000000E+00  0.00000000E+00  0.00000000E+00
  6.89990666E-02  3.16423961E-01  7.44308291E-01  1.00000000E+00  0.00000000E+00
  0.00000000E+00  0.00000000E+00  0.00000000E+00  0.00000000E+00  0.00000000E+00
  0.00000000E+00  6.89990666E-02  3.16423961E-01  7.44308291E-01  1.00000000E+00
  0.00000000E+00  0.00000000E+00  0.00000000E+00  0.00000000E+00  0.00000000E+00
  0.00000000E+00  0.00000000E+00  6.89990666E-02  3.16423961E-01  7.44308291E-01
  1.00000000E+00  0.00000000E+00  0.00000000E+00  0.00000000E+00  0.00000000E+00
  0.00000000E+00  0.00000000E+00  0.00000000E+00  6.89990666E-02  3.16423961E-01
  7.44308291E-01  1.00000000E+00  0.00000000E+00  0.00000000E+00  0.00000000E+00
  0.00000000E+00  0.00000000E+00  0.00000000E+00  0.00000000E+00  6.89990666E-02
  3.16423961E-01  7.44308291E-01  1.00000000E+00  0.00000000E+00  0.00000000E+00
  0.00000000E+00  0.00000000E+00  0.00000000E+00  0.00000000E+00  0.00000000E+00
  0.00000000E+00  0.00000000E+00  0.00000000E+00  0.00000000E+00  0.00000000E+00
  0.00000000E+00  0.00000000E+00  0.00000000E+00  0.00000000E+00  0.00000000E+00
  0.00000000E+00  0.00000000E+00  0.00000000E+00  0.00000000E+00  0.00000000E+00
  0.00000000E+00  0.00000000E+00  0.00000000E+00  0.00000000E+00  0.00000000E+00
  0.00000000E+00  0.00000000E+00  0.00000000E+00  0.00000000E+00  0.00000000E+00
  0.00000000E+00
Coordinates of each shell                  R   N=         156
 -6.16470241E+00 -5.78079713E-01  1.22418526E-02 -6.16470241E+00 -5.78079713E-01
  1.22418526E-02 -6.16470241E+00 -5.78079713E-01  1.22418526E-02 -6.16470241E+00
 -5.78079713E-01  1.22418526E-02  2.95007600E+00 -5.95254462E-01 -2.90807888E-02
  2.95007600E+00 -5.95254462E-01 -2.90807888E-02  2.95007600E+00 -5.95254462E-01
 -2.90807888E-02  2.95007600E+00 -5.95254462E-01 -2.90807888E-02  5.85718576E-01
 -1.77785051E+00 -1.89688642E-02  5.85718576E-01 -1.77785051E+00 -1.89688642E-02
  5.85718576E-01 -1.77785051E+00 -1.89688642E-02  5.85718576E-01 -1.77785051E+00
 -1.89688642E-02 -1.64254807E+00 -3.55374054E-01 -2.26746467E-03 -1.64254807E+00
 -3.55374054E-01 -2.26746467E-03 -1.64254807E+00 -3.55374054E-01 -2.26746467E-03
 -1.64254807E+00 -3.55374054E-01 -2.26746467E-03  3.02242254E+00  2.05200807E+00
 -1.34508639E-02  3.02242254E+00  2.05200807E+00 -1.34508639E-02  3.02242254E+00
  2.05200807E+00 -1.34508639E-02  3.02242254E+00  2.05200807E+00 -1.34508639E-02
 -1.54361497E+00  2.28980222E+00  1.22947649E-02 -1.54361497E+00  2.28980222E+00
  1.22947649E-02 -1.54361497E+00  2.28980222E+00  1.22947649E-02 -1.54361497E+00
  2.28980222E+00  1.22947649E-02  7.99845864E-01  3.48286357E+00  2.67605889E-03
  7.99845864E-01  3.48286357E+00  2.67605889E-03  7.99845864E-01  3.48286357E+00
  2.67605889E-03  7.99845864E-01  3.48286357E+00  2.67605889E-03  5.35296467E+00
 -2.12134651E+00  2.53376547E-02  5.35296467E+00 -2.12134651E+00  2.53376547E-02
  5.35296467E+00 -2.12134651E+00  2.53376547E-02  5.35296467E+00 -2.12134651E+00
  2.53376547E-02 -4.11334811E+00 -1.66161487E+00 -4.53513603E-03 -4.11334811E+00
 -1.66161487E+00 -4.53513603E-03 -4.11334811E+00 -1.66161487E+00 -4.53513603E-03
 -4.11334811E+00 -1.66161487E+00 -4.53513603E-03  4.72232755E-01 -3.83611941E+00
 -3.76847119E-02  4.72232755E-01 -3.83611941E+00 -3.76847119E-02  4.84463075E+00
  3.00851922E+00 -2.87727634E-02  4.84463075E+00  3.00851922E+00 -2.87727634E-02
 -3.30177260E+00  3.35170376E+00  1.98687872E-02 -3.30177260E+00  3.35170376E+00
  1.98687872E-02  5.06953013E+00 -3.98366969E+00 -8.23776768E-01  5.06953013E+00
 -3.98366969E+00 -8.23776768E-01  6.86387640E+00 -1.16524161E+00 -1.01081808E+00
  6.86387640E+00 -1.16524161E+00 -1.01081808E+00  6.00668516E+00 -2.40696545E+00
  1.96823690E+00  6.00668516E+00 -2.40696545E+00  1.96823690E+00  9.10036001E-01
  5.53493795E+00  5.70717961E-03  9.10036001E-01  5.53493795E+00  5.70717961E-03
 -4.01669828E+00 -3.75792776E+00 -2.27275295E-02 -4.01669828E+00 -3.75792776E+00
 -2.27275295E-02
Constraint Structure                       R   N=          51
 -6.16470241E+00 -5.78079713E-01  1.22418526E-02  2.95007600E+00 -5.95254462E-01
 -2.90807888E-02  5.85718576E-01 -1.77785051E+00 -1.89688642E-02 -1.64254807E+00
 -3.55374054E-01 -2.26746467E-03  3.02242254E+00  2.05200807E+00 -1.34508639E-02
 -1.54361497E+00  2.28980222E+00  1.22947649E-02  7.99845864E-01  3.48286357E+00
  2.67605889E-03  5.35296467E+00 -2.12134651E+00  2.53376547E-02 -4.11334811E+00
 -1.66161487E+00 -4.53513603E-03  4.72232755E-01 -3.83611941E+00 -3.76847119E-02
  4.84463075E+00  3.00851922E+00 -2.87727634E-02 -3.30177260E+00  3.35170376E+00
  1.98687872E-02  5.06953013E+00 -3.98366969E+00 -8.23776768E-01  6.86387640E+00
 -1.16524161E+00 -1.01081808E+00  6.00668516E+00 -2.40696545E+00  1.96823690E+00
  9.10036001E-01  5.53493795E+00  5.70717961E-03 -4.01669828E+00 -3.75792776E+00
 -2.27275295E-02
Num ILSW                                   I              100
ILSW                                       I   N=         100
           0           1           0           1           2           0
           0           0           0           0           0          -1
           0           0           0           0           0           0
           0           0           0           0           1           0
           1           0           0           0           0           0
           0           0      100000           0          -1           0
           0           0           0           0           0           0
           0           0           0           1           1           0
           0           0           1           0           0           0
           0           0           4          40           0           0
           0           0           0           0           0           0
           0           0           0           0           0           0
           0           0           0           0           0           0
           0           0           0           0           0           0
           0           0           0           0           0           0
           0           0           0           0           0           0
           0           0           0           0
Num RLSW                                   I               40
RLSW                                       R   N=          40
  1.00000000E+00  1.00000000E+00  1.00000000E+00  1.00000000E+00  1.00000000E+00
  0.00000000E+00  0.00000000E+00  1.00000000E+00  0.00000000E+00  0.00000000E+00
  0.00000000E+00  0.00000000E+00  1.00000000E+00  0.00000000E+00  0.00000000E+00
  0.00000000E+00  0.00000000E+00  1.00000000E+00  0.00000000E+00  0.00000000E+00
  0.00000000E+00  0.00000000E+00  1.00000000E+00  0.00000000E+00  0.00000000E+00
  0.00000000E+00  0.00000000E+00  1.00000000E+00  0.00000000E+00  0.00000000E+00
  0.00000000E+00  0.00000000E+00  0.00000000E+00  0.00000000E+00  0.00000000E+00
  0.00000000E+00  0.00000000E+00  0.00000000E+00  1.00000000E+00  1.00000000E+00
MxBond                                     I                4
NBond                                      I   N=          17
           1           3           3           3           3           3
           3           4           3           1           1           1
           1           1           1           1           1
IBond                                      I   N=          68
           9           0           0           0           3           5
           8           0           2           4          10           0
           3           6           9           0           2           7
          11           0           4           7          12           0
           5           6          16           0           2          13
          14          15           1           4          17           0
           3           0           0           0           5           0
           0           0           6           0           0           0
           8           0           0           0           8           0
           0           0           8           0           0           0
           7           0           0           0           9           0
           0           0
RBond                                      R   N=          68
  2.00000000E+00  0.00000000E+00  0.00000000E+00  0.00000000E+00  1.50000000E+00
  1.50000000E+00  1.00000000E+00  0.00000000E+00  1.50000000E+00  1.50000000E+00
  1.00000000E+00  0.00000000E+00  1.50000000E+00  1.50000000E+00  1.00000000E+00
  0.00000000E+00  1.50000000E+00  1.50000000E+00  1.00000000E+00  0.00000000E+00
  1.50000000E+00  1.50000000E+00  1.00000000E+00  0.00000000E+00  1.50000000E+00
  1.50000000E+00  1.00000000E+00  0.00000000E+00  1.00000000E+00  1.00000000E+00
  1.00000000E+00  1.00000000E+00  2.00000000E+00  1.00000000E+00  1.00000000E+00
  0.00000000E+00  1.00000000E+00  0.00000000E+00  0.00000000E+00  0.00000000E+00
  1.00000000E+00  0.00000000E+00  0.00000000E+00  0.00000000E+00  1.00000000E+00
  0.00000000E+00  0.00000000E+00  0.00000000E+00  1.00000000E+00  0.00000000E+00
  0.00000000E+00  0.00000000E+00  1.00000000E+00  0.00000000E+00  0.00000000E+00
  0.00000000E+00  1.00000000E+00  0.00000000E+00  0.00000000E+00  0.00000000E+00
  1.00000000E+00  0.00000000E+00  0.00000000E+00  0.00000000E+00  1.00000000E+00
  0.00000000E+00  0.00000000E+00  0.00000000E+00
Virial Ratio                               R      2.002359238701991E+00
SCF Energy                                 R     -3.824665562065842E+02
MP2 Energy                                 R     -3.836575833198322E+02
Total Energy                               R     -3.836575833198322E+02
Post-SCF wavefunction norm                 R      1.686376977064892E+00
RMS Force                                  R      2.903531060410807E-07
RMS Density                                R      1.606663623415726E-09
External E-field                           R   N=          35
  0.00000000E+00  0.00000000E+00  0.00000000E+00  0.00000000E+00  0.00000000E+00
  0.00000000E+00  0.00000000E+00  0.00000000E+00  0.00000000E+00  0.00000000E+00
  0.00000000E+00  0.00000000E+00  0.00000000E+00  0.00000000E+00  0.00000000E+00
  0.00000000E+00  0.00000000E+00  0.00000000E+00  0.00000000E+00  0.00000000E+00
  0.00000000E+00  0.00000000E+00  0.00000000E+00  0.00000000E+00  0.00000000E+00
  0.00000000E+00  0.00000000E+00  0.00000000E+00  0.00000000E+00  0.00000000E+00
  0.00000000E+00  0.00000000E+00  0.00000000E+00  0.00000000E+00  0.00000000E+00
IOpCl                                      I                0
IROHF                                      I                0
Alpha Orbital Energies                     R   N=         151
 -2.05600594E+01 -1.13362722E+01 -1.12567321E+01 -1.12550369E+01 -1.12521398E+01
 -1.12497716E+01 -1.12484996E+01 -1.12471168E+01 -1.12364695E+01 -1.37517173E+00
 -1.16789347E+00 -1.06161176E+00 -1.03836976E+00 -9.45170123E-01 -8.87259302E-01
 -8.30099288E-01 -7.67864180E-01 -7.04548445E-01 -6.74241553E-01 -6.45374394E-01
 -6.13636509E-01 -6.04509669E-01 -5.87710724E-01 -5.79561803E-01 -5.50140550E-01
 -5.38877587E-01 -5.15680986E-01 -4.98356795E-01 -4.83161167E-01 -4.22127659E-01
 -3.47213058E-01 -3.33862969E-01  7.93734394E-02  1.32295746E-01  2.11839751E-01
  2.30807946E-01  2.54707322E-01  2.62644879E-01  2.91175275E-01  3.06340288E-01
  3.19802269E-01  3.29913114E-01  3.35682315E-01  3.79597447E-01  3.85040927E-01
  4.36459736E-01  4.59550739E-01  4.86902606E-01  5.04510006E-01  5.27268877E-01
  5.88875102E-01  6.44170476E-01  7.18143031E-01  7.32182786E-01  7.34484990E-01
  7.52372976E-01  7.63133743E-01  7.74886451E-01  7.78254259E-01  7.86110180E-01
  8.15893104E-01  8.25523611E-01  8.51105944E-01  8.60529395E-01  8.71812764E-01
  9.00973768E-01  9.42914245E-01  9.69574139E-01  9.77963524E-01  9.99249504E-01
  1.01917524E+00  1.05323398E+00  1.07543775E+00  1.08668367E+00  1.10402346E+00
  1.10588609E+00  1.13277537E+00  1.14291638E+00  1.16453209E+00  1.18701649E+00
  1.20553990E+00  1.21017112E+00  1.23217994E+00  1.27119809E+00  1.30294348E+00
  1.31118546E+00  1.34523047E+00  1.37282653E+00  1.41309052E+00  1.43183610E+00
  1.49668023E+00  1.50777133E+00  1.56889054E+00  1.58405623E+00  1.60383046E+00
  1.64799840E+00  1.69341302E+00  1.72345019E+00  1.75020096E+00  1.76011952E+00
  1.76620949E+00  1.81921524E+00  1.86087036E+00  2.03539778E+00  2.04959135E+00
  2.05245889E+00  2.09933165E+00  2.12633331E+00  2.15886135E+00  2.17294078E+00
  2.18860896E+00  2.19813521E+00  2.26836960E+00  2.28412407E+00  2.32904877E+00
  2.36166537E+00  2.37773071E+00  2.43011005E+00  2.46578501E+00  2.48513060E+00
  2.51370437E+00  2.57783011E+00  2.59514481E+00  2.60997476E+00  2.63628467E+00
  2.65775854E+00  2.68258088E+00  2.72027632E+00  2.74773664E+00  2.90124544E+00
  2.92239868E+00  2.94632123E+00  2.96210658E+00  3.00929613E+00  3.11409704E+00
  3.12275125E+00  3.16506015E+00  3.24676464E+00  3.28328110E+00  3.34709817E+00
  3.51263610E+00  3.78594243E+00  4.31610636E+00  4.50365673E+00  4.51922847E+00
  4.53550557E+00  4.62793434E+00  4.65253363E+00  4.77560203E+00  4.84870769E+00
  5.14079543E+00
Alpha MO coefficients                      R   N=       22801
  9.94700897E-01  2.09001506E-02  1.34401253E-03 -6.88173698E-04 -1.07865678E-05
  4.59549043E-03 -1.43365369E-05 -1.28993662E-06 -8.38850556E-08 -3.67927017E-03
 -3.82185066E-03 -4.18059058E-03 -1.28409179E-04 -3.23653966E-06  4.02159597E-06
  3.30041431E-06  1.84377599E-05 -2.10320777E-06 -8.58962397E-07 -8.73434052E-09
 -2.75987515E-04  1.83379594E-04 -1.58764256E-05  1.05432744E-07 -1.60080167E-06
  3.69483335E-07  6.15661934E-06  6.17607955E-07  2.99669694E-07 -1.49171971E-07
  1.67625531E-07  6.38881289E-06 -2.08810598E-05  3.66447585E-06  1.66717932E-07
  2.21642059E-04  1.48378481E-04  1.60764259E-04 -5.32178649E-07 -2.43582579E-06
  1.01379015E-05  2.35779821E-06 -1.25452007E-05 -1.76864508E-07 -8.91095709E-08
  6.82051732E-07  9.49434027E-07  2.20508793E-05 -2.67957880E-06 -1.37938041E-07
 -9.60068121E-05 -2.73804042E-05  1.47347752E-04  1.59593877E-06 -5.48598001E-05
  6.27307455E-05 -1.59568835E-05  4.48680081E-05  5.38584063E-07  5.32574253E-07
 -1.23182771E-06 -6.20221870E-06  2.92592481E-06 -7.38865974E-07 -1.43378891E-07
  7.15271618E-05 -8.60621220E-05 -6.36980391E-05  3.04622666E-07 -1.77010953E-06
  5.38063598E-07 -1.82529044E-06  1.54063170E-06  1.12678150E-07  8.08748885E-08
 -2.79448867E-06 -7.30734451E-06 -1.56022147E-06  1.23338216E-07  9.34949100E-08
  1.45988445E-04  5.80132614E-05  1.93225820E-04  8.12439003E-08  4.38037141E-06
 -3.31663336E-05 -2.56983060E-06  1.54639582E-05 -7.09865549E-09 -2.04203444E-07
  2.77391321E-06  1.45332215E-05  5.70592200E-07  2.85901253E-06  9.01021275E-08
 -2.18341967E-04  1.09152339E-04  4.00274657E-05 -7.10953805E-07 -5.70739816E-06
  3.58910129E-06  6.11101539E-06 -2.57441414E-06  6.24741238E-08  4.21153791E-08
  7.39364070E-07  3.29915710E-06 -5.97871462E-07 -7.78443734E-07  7.05985628E-07
 -5.58785830E-05  1.34227704E-05 -2.31483922E-05 -3.12482230E-06  2.67560761E-06
 -1.13602351E-06  1.74299693E-06  3.29795516E-07  7.05154526E-08  5.63858821E-07
 -5.45417240E-06  4.70642127E-04  2.63811091E-05 -2.31891168E-05 -3.36405633E-07
 -2.68247274E-04  5.87937225E-04 -2.71200908E-04 -4.37819505E-06 -6.06415258E-04
 -2.09045384E-04 -4.18489366E-05  3.26288882E-04  5.15524802E-06 -2.86732773E-06
  1.80729598E-05  3.09944450E-05  7.56543845E-06  3.18494276E-05  2.27210136E-05
 -1.41613751E-04  1.00852440E-06 -6.53434603E-06  1.58919278E-06  2.85212186E-07
  8.67109790E-07  4.10270270E-06  4.34019126E-06  3.37098746E-06 -3.68295834E-05
 -1.16071875E-04 -2.55640306E-04  6.71892806E-04  2.30697766E-04 -1.18545266E-04
 -2.12778753E-06 -3.42115395E-03 -1.64003829E-03  8.82111967E-04  1.46175482E-05
  1.88139999E-05  1.47644541E-04  4.55958253E-04  1.63106102E-04  3.43782453E-06
 -3.66138984E-06 -2.86906212E-05 -2.15005015E-04 -9.88509401E-06 -2.36833972E-05
  1.67527212E-07  3.33726107E-03 -2.50079069E-03  2.03600615E-04  3.13906431E-06
  6.72709248E-05 -1.46050742E-05 -6.23363495E-05  3.33904997E-05 -3.65596232E-06
  9.73490823E-07  2.36340287E-06  8.10301128E-05  1.68198523E-04  7.10939578E-05
 -1.84426636E-06 -4.73574017E-03 -9.87404095E-04 -2.66397064E-03  1.40325792E-06
 -8.29884488E-06  3.10843428E-05  3.70887281E-06 -6.51290648E-05  1.09360371E-06
  2.56329732E-06  4.06433181E-03  2.25507138E-04  2.96009657E-06  1.19596570E-04
  1.05956748E-06  3.85541791E-03  1.94427110E-03 -1.82992361E-03 -2.38734346E-05