100_2-Butanone Gaussian SP Calculation on node144.bme.utexas.edu        
Freq      RMP2-FC                                                     6-31G(d)            
Number of atoms                            I               13
Info1-9                                    I   N=           9
          24          23        1002           0           0         100
           6           2           1
Charge                                     I                0
Multiplicity                               I                1
Number of electrons                        I               40
Number of alpha electrons                  I               20
Number of beta electrons                   I               20
Number of basis functions                  I               91
Number of independent functions            I               91
Number of point charges in /Mol/           I                0
Number of translation vectors              I                0
Atomic numbers                             I   N=          13
           8           6           6           6           6           1
           1           1           1           1           1           1
           1
Nuclear charges                            R   N=          13
  8.00000000E+00  6.00000000E+00  6.00000000E+00  6.00000000E+00  6.00000000E+00
  1.00000000E+00  1.00000000E+00  1.00000000E+00  1.00000000E+00  1.00000000E+00
  1.00000000E+00  1.00000000E+00  1.00000000E+00
Current cartesian coordinates              R   N=          39
 -7.49772979E-01  2.61306463E+00 -4.13537471E-07  1.28196329E+00 -1.44666345E+00
 -1.08766362E-06 -9.89757714E-01  3.04244360E-01 -5.15442258E-07  3.78935617E+00
 -3.95390556E-02  6.99164834E-07 -3.56736373E+00 -9.36725271E-01  6.26670784E-07
  1.12404759E+00 -2.69651176E+00  1.64959199E+00  1.12404945E+00 -2.69651012E+00
 -1.64959547E+00  5.37046607E+00 -1.36884794E+00 -3.14023183E-05  3.94563388E+00
  1.17077281E+00  1.66332076E+00  3.94560639E+00  1.17082389E+00 -1.66328460E+00
 -3.78399383E+00 -2.14413128E+00  1.66605925E+00 -5.02882183E+00  5.16127828E-01
 -3.69954810E-06 -3.78399200E+00 -2.14414001E+00 -1.66605185E+00
Force Field                                I                0
Int Atom Types                             I   N=          13
           0           0           0           0           0           0
           0           0           0           0           0           0
           0
MM charges                                 R   N=          13
  0.00000000E+00  0.00000000E+00  0.00000000E+00  0.00000000E+00  0.00000000E+00
  0.00000000E+00  0.00000000E+00  0.00000000E+00  0.00000000E+00  0.00000000E+00
  0.00000000E+00  0.00000000E+00  0.00000000E+00
Integer atomic weights                     I   N=          13
          16          12          12          12          12           1
           1           1           1           1           1           1
           1
Real atomic weights                        R   N=          13
  1.59949146E+01  1.20000000E+01  1.20000000E+01  1.20000000E+01  1.20000000E+01
  1.00782504E+00  1.00782504E+00  1.00782504E+00  1.00782504E+00  1.00782504E+00
  1.00782504E+00  1.00782504E+00  1.00782504E+00
Atom fragment info                         I   N=          13
           0           0           0           0           0           0
           0           0           0           0           0           0
           0
Atom residue num                           I   N=          13
           0           0           0           0           0           0
           0           0           0           0           0           0
           0
Nuclear spins                              I   N=          13
           0           0           0           0           0           1
           1           1           1           1           1           1
           1
Nuclear ZEff                               R   N=          13
 -5.60000000E+00 -3.60000000E+00 -3.60000000E+00 -3.60000000E+00 -3.60000000E+00
 -1.00000000E+00 -1.00000000E+00 -1.00000000E+00 -1.00000000E+00 -1.00000000E+00
 -1.00000000E+00 -1.00000000E+00 -1.00000000E+00
Nuclear QMom                               R   N=          13
  0.00000000E+00  0.00000000E+00  0.00000000E+00  0.00000000E+00  0.00000000E+00
  0.00000000E+00  0.00000000E+00  0.00000000E+00  0.00000000E+00  0.00000000E+00
  0.00000000E+00  0.00000000E+00  0.00000000E+00
Nuclear GFac                               R   N=          13
  0.00000000E+00  0.00000000E+00  0.00000000E+00  0.00000000E+00  0.00000000E+00
  2.79284600E+00  2.79284600E+00  2.79284600E+00  2.79284600E+00  2.79284600E+00
  2.79284600E+00  2.79284600E+00  2.79284600E+00
MicOpt                                     I   N=          13
          -1          -1          -1          -1          -1          -1
          -1          -1          -1          -1          -1          -1
          -1
Number of contracted shells                I               36
Number of primitive shells                 I               87
Pure/Cartesian d shells                    I                1
Pure/Cartesian f shells                    I                0
Highest angular momentum                   I                2
Largest degree of contraction              I                6
Shell types                                I   N=          36
           0          -1          -1           2           0          -1
          -1           2           0          -1          -1           2
           0          -1          -1           2           0          -1
          -1           2           0           0           0           0
           0           0           0           0           0           0
           0           0           0           0           0           0
Number of primitives per shell             I   N=          36
           6           3           1           1           6           3
           1           1           6           3           1           1
           6           3           1           1           6           3
           1           1           3           1           3           1
           3           1           3           1           3           1
           3           1           3           1           3           1
Shell to atom map                          I   N=          36
           1           1           1           1           2           2
           2           2           3           3           3           3
           4           4           4           4           5           5
           5           5           6           6           7           7
           8           8           9           9          10          10
          11          11          12          12          13          13
Primitive exponents                        R   N=          87
  5.48467166E+03  8.25234946E+02  1.88046958E+02  5.29645000E+01  1.68975704E+01
  5.79963534E+00  1.55396162E+01  3.59993359E+00  1.01376175E+00  2.70005823E-01
  8.00000000E-01  3.04752488E+03  4.57369518E+02  1.03948685E+02  2.92101553E+01
  9.28666296E+00  3.16392696E+00  7.86827235E+00  1.88128854E+00  5.44249258E-01
  1.68714478E-01  8.00000000E-01  3.04752488E+03  4.57369518E+02  1.03948685E+02
  2.92101553E+01  9.28666296E+00  3.16392696E+00  7.86827235E+00  1.88128854E+00
  5.44249258E-01  1.68714478E-01  8.00000000E-01  3.04752488E+03  4.57369518E+02
  1.03948685E+02  2.92101553E+01  9.28666296E+00  3.16392696E+00  7.86827235E+00
  1.88128854E+00  5.44249258E-01  1.68714478E-01  8.00000000E-01  3.04752488E+03
  4.57369518E+02  1.03948685E+02  2.92101553E+01  9.28666296E+00  3.16392696E+00
  7.86827235E+00  1.88128854E+00  5.44249258E-01  1.68714478E-01  8.00000000E-01
  1.87311370E+01  2.82539436E+00  6.40121692E-01  1.61277759E-01  1.87311370E+01
  2.82539436E+00  6.40121692E-01  1.61277759E-01  1.87311370E+01  2.82539436E+00
  6.40121692E-01  1.61277759E-01  1.87311370E+01  2.82539436E+00  6.40121692E-01
  1.61277759E-01  1.87311370E+01  2.82539436E+00  6.40121692E-01  1.61277759E-01
  1.87311370E+01  2.82539436E+00  6.40121692E-01  1.61277759E-01  1.87311370E+01
  2.82539436E+00  6.40121692E-01  1.61277759E-01  1.87311370E+01  2.82539436E+00
  6.40121692E-01  1.61277759E-01
Contraction coefficients                   R   N=          87
  1.83107443E-03  1.39501722E-02  6.84450781E-02  2.32714336E-01  4.70192898E-01
  3.58520853E-01 -1.10777550E-01 -1.48026263E-01  1.13076702E+00  1.00000000E+00
  1.00000000E+00  1.83473713E-03  1.40373228E-02  6.88426223E-02  2.32184443E-01
  4.67941348E-01  3.62311985E-01 -1.19332420E-01 -1.60854152E-01  1.14345644E+00
  1.00000000E+00  1.00000000E+00  1.83473713E-03  1.40373228E-02  6.88426223E-02
  2.32184443E-01  4.67941348E-01  3.62311985E-01 -1.19332420E-01 -1.60854152E-01
  1.14345644E+00  1.00000000E+00  1.00000000E+00  1.83473713E-03  1.40373228E-02
  6.88426223E-02  2.32184443E-01  4.67941348E-01  3.62311985E-01 -1.19332420E-01
 -1.60854152E-01  1.14345644E+00  1.00000000E+00  1.00000000E+00  1.83473713E-03
  1.40373228E-02  6.88426223E-02  2.32184443E-01  4.67941348E-01  3.62311985E-01
 -1.19332420E-01 -1.60854152E-01  1.14345644E+00  1.00000000E+00  1.00000000E+00
  3.34946043E-02  2.34726953E-01  8.13757326E-01  1.00000000E+00  3.34946043E-02
  2.34726953E-01  8.13757326E-01  1.00000000E+00  3.34946043E-02  2.34726953E-01
  8.13757326E-01  1.00000000E+00  3.34946043E-02  2.34726953E-01  8.13757326E-01
  1.00000000E+00  3.34946043E-02  2.34726953E-01  8.13757326E-01  1.00000000E+00
  3.34946043E-02  2.34726953E-01  8.13757326E-01  1.00000000E+00  3.34946043E-02
  2.34726953E-01  8.13757326E-01  1.00000000E+00  3.34946043E-02  2.34726953E-01
  8.13757326E-01  1.00000000E+00
P(S=P) Contraction coefficients            R   N=          87
  0.00000000E+00  0.00000000E+00  0.00000000E+00  0.00000000E+00  0.00000000E+00
  0.00000000E+00  7.08742682E-02  3.39752839E-01  7.27158577E-01  1.00000000E+00
  0.00000000E+00  0.00000000E+00  0.00000000E+00  0.00000000E+00  0.00000000E+00
  0.00000000E+00  0.00000000E+00  6.89990666E-02  3.16423961E-01  7.44308291E-01
  1.00000000E+00  0.00000000E+00  0.00000000E+00  0.00000000E+00  0.00000000E+00
  0.00000000E+00  0.00000000E+00  0.00000000E+00  6.89990666E-02  3.16423961E-01
  7.44308291E-01  1.00000000E+00  0.00000000E+00  0.00000000E+00  0.00000000E+00
  0.00000000E+00  0.00000000E+00  0.00000000E+00  0.00000000E+00  6.89990666E-02
  3.16423961E-01  7.44308291E-01  1.00000000E+00  0.00000000E+00  0.00000000E+00
  0.00000000E+00  0.00000000E+00  0.00000000E+00  0.00000000E+00  0.00000000E+00
  6.89990666E-02  3.16423961E-01  7.44308291E-01  1.00000000E+00  0.00000000E+00
  0.00000000E+00  0.00000000E+00  0.00000000E+00  0.00000000E+00  0.00000000E+00
  0.00000000E+00  0.00000000E+00  0.00000000E+00  0.00000000E+00  0.00000000E+00
  0.00000000E+00  0.00000000E+00  0.00000000E+00  0.00000000E+00  0.00000000E+00
  0.00000000E+00  0.00000000E+00  0.00000000E+00  0.00000000E+00  0.00000000E+00
  0.00000000E+00  0.00000000E+00  0.00000000E+00  0.00000000E+00  0.00000000E+00
  0.00000000E+00  0.00000000E+00  0.00000000E+00  0.00000000E+00  0.00000000E+00
  0.00000000E+00  0.00000000E+00
Coordinates of each shell                  R   N=         108
 -7.49772979E-01  2.61306463E+00 -4.13537471E-07 -7.49772979E-01  2.61306463E+00
 -4.13537471E-07 -7.49772979E-01  2.61306463E+00 -4.13537471E-07 -7.49772979E-01
  2.61306463E+00 -4.13537471E-07  1.28196329E+00 -1.44666345E+00 -1.08766362E-06
  1.28196329E+00 -1.44666345E+00 -1.08766362E-06  1.28196329E+00 -1.44666345E+00
 -1.08766362E-06  1.28196329E+00 -1.44666345E+00 -1.08766362E-06 -9.89757714E-01
  3.04244360E-01 -5.15442258E-07 -9.89757714E-01  3.04244360E-01 -5.15442258E-07
 -9.89757714E-01  3.04244360E-01 -5.15442258E-07 -9.89757714E-01  3.04244360E-01
 -5.15442258E-07  3.78935617E+00 -3.95390556E-02  6.99164834E-07  3.78935617E+00
 -3.95390556E-02  6.99164834E-07  3.78935617E+00 -3.95390556E-02  6.99164834E-07
  3.78935617E+00 -3.95390556E-02  6.99164834E-07 -3.56736373E+00 -9.36725271E-01
  6.26670784E-07 -3.56736373E+00 -9.36725271E-01  6.26670784E-07 -3.56736373E+00
 -9.36725271E-01  6.26670784E-07 -3.56736373E+00 -9.36725271E-01  6.26670784E-07
  1.12404759E+00 -2.69651176E+00  1.64959199E+00  1.12404759E+00 -2.69651176E+00
  1.64959199E+00  1.12404945E+00 -2.69651012E+00 -1.64959547E+00  1.12404945E+00
 -2.69651012E+00 -1.64959547E+00  5.37046607E+00 -1.36884794E+00 -3.14023183E-05
  5.37046607E+00 -1.36884794E+00 -3.14023183E-05  3.94563388E+00  1.17077281E+00
  1.66332076E+00  3.94563388E+00  1.17077281E+00  1.66332076E+00  3.94560639E+00
  1.17082389E+00 -1.66328460E+00  3.94560639E+00  1.17082389E+00 -1.66328460E+00
 -3.78399383E+00 -2.14413128E+00  1.66605925E+00 -3.78399383E+00 -2.14413128E+00
  1.66605925E+00 -5.02882183E+00  5.16127828E-01 -3.69954810E-06 -5.02882183E+00
  5.16127828E-01 -3.69954810E-06 -3.78399200E+00 -2.14414001E+00 -1.66605185E+00
 -3.78399200E+00 -2.14414001E+00 -1.66605185E+00
Constraint Structure                       R   N=          39
 -7.49772979E-01  2.61306463E+00 -4.13537471E-07  1.28196329E+00 -1.44666345E+00
 -1.08766362E-06 -9.89757714E-01  3.04244360E-01 -5.15442258E-07  3.78935617E+00
 -3.95390556E-02  6.99164834E-07 -3.56736373E+00 -9.36725271E-01  6.26670784E-07
  1.12404759E+00 -2.69651176E+00  1.64959199E+00  1.12404945E+00 -2.69651012E+00
 -1.64959547E+00  5.37046607E+00 -1.36884794E+00 -3.14023183E-05  3.94563388E+00
  1.17077281E+00  1.66332076E+00  3.94560639E+00  1.17082389E+00 -1.66328460E+00
 -3.78399383E+00 -2.14413128E+00  1.66605925E+00 -5.02882183E+00  5.16127828E-01
 -3.69954810E-06 -3.78399200E+00 -2.14414001E+00 -1.66605185E+00
Num ILSW                                   I              100
ILSW                                       I   N=         100
           0           1           0           0           2           0
           0           0           0           0           0          -1
           0           0           0           0           0           0
           0           0           0           0           1           0
           1           0           0           0           0           0
           0           0      100000           0          -1           0
           0           0           0           0           0           0
           0           0           0           1           1           0
           0           0           1           0           0           0
           0           0           4          40           0           0
           0           0           0           0           0           0
           0           0           0           0           0           0
           0           0           0           0           0           0
           0           0           0           0           0           0
           0           0           0           0           0           0
           0           0           0           0           0           0
           0           0           0           0
Num RLSW                                   I               40
RLSW                                       R   N=          40
  1.00000000E+00  1.00000000E+00  1.00000000E+00  1.00000000E+00  1.00000000E+00
  0.00000000E+00  0.00000000E+00  1.00000000E+00  0.00000000E+00  0.00000000E+00
  0.00000000E+00  0.00000000E+00  1.00000000E+00  0.00000000E+00  0.00000000E+00
  0.00000000E+00  0.00000000E+00  1.00000000E+00  0.00000000E+00  0.00000000E+00
  0.00000000E+00  0.00000000E+00  1.00000000E+00  0.00000000E+00  0.00000000E+00
  0.00000000E+00  0.00000000E+00  1.00000000E+00  0.00000000E+00  0.00000000E+00
  0.00000000E+00  0.00000000E+00  0.00000000E+00  0.00000000E+00  0.00000000E+00
  0.00000000E+00  0.00000000E+00  0.00000000E+00  1.00000000E+00  1.00000000E+00
MxBond                                     I                4
NBond                                      I   N=          13
           1           4           3           4           4           1
           1           1           1           1           1           1
           1
IBond                                      I   N=          52
           3           0           0           0           3           4
           6           7           1           2           5           0
           2           8           9          10           3          11
          12          13           2           0           0           0
           2           0           0           0           4           0
           0           0           4           0           0           0
           4           0           0           0           5           0
           0           0           5           0           0           0
           5           0           0           0
RBond                                      R   N=          52
  2.00000000E+00  0.00000000E+00  0.00000000E+00  0.00000000E+00  1.00000000E+00
  1.00000000E+00  1.00000000E+00  1.00000000E+00  2.00000000E+00  1.00000000E+00
  1.00000000E+00  0.00000000E+00  1.00000000E+00  1.00000000E+00  1.00000000E+00
  1.00000000E+00  1.00000000E+00  1.00000000E+00  1.00000000E+00  1.00000000E+00
  1.00000000E+00  0.00000000E+00  0.00000000E+00  0.00000000E+00  1.00000000E+00
  0.00000000E+00  0.00000000E+00  0.00000000E+00  1.00000000E+00  0.00000000E+00
  0.00000000E+00  0.00000000E+00  1.00000000E+00  0.00000000E+00  0.00000000E+00
  0.00000000E+00  1.00000000E+00  0.00000000E+00  0.00000000E+00  0.00000000E+00
  1.00000000E+00  0.00000000E+00  0.00000000E+00  0.00000000E+00  1.00000000E+00
  0.00000000E+00  0.00000000E+00  0.00000000E+00  1.00000000E+00  0.00000000E+00
  0.00000000E+00  0.00000000E+00
Virial Ratio                               R      2.002214702779310E+00
SCF Energy                                 R     -2.309953721137271E+02
MP2 Energy                                 R     -2.316907956906852E+02
Total Energy                               R     -2.316907956906852E+02
Post-SCF wavefunction norm                 R      1.565780674610886E+00
RMS Force                                  R      2.316406565943180E-07
RMS Density                                R      1.783378957638838E-09
External E-field                           R   N=          35
  0.00000000E+00  0.00000000E+00  0.00000000E+00  0.00000000E+00  0.00000000E+00
  0.00000000E+00  0.00000000E+00  0.00000000E+00  0.00000000E+00  0.00000000E+00
  0.00000000E+00  0.00000000E+00  0.00000000E+00  0.00000000E+00  0.00000000E+00
  0.00000000E+00  0.00000000E+00  0.00000000E+00  0.00000000E+00  0.00000000E+00
  0.00000000E+00  0.00000000E+00  0.00000000E+00  0.00000000E+00  0.00000000E+00
  0.00000000E+00  0.00000000E+00  0.00000000E+00  0.00000000E+00  0.00000000E+00
  0.00000000E+00  0.00000000E+00  0.00000000E+00  0.00000000E+00  0.00000000E+00
IOpCl                                      I                0
IROHF                                      I                0
Alpha Orbital Energies                     R   N=          91
 -2.05520714E+01 -1.13329774E+01 -1.12403099E+01 -1.12357458E+01 -1.12172164E+01
 -1.37297627E+00 -1.06255386E+00 -1.00042884E+00 -8.75879652E-01 -7.29785988E-01
 -6.52775349E-01 -6.37756476E-01 -6.16852119E-01 -5.81659457E-01 -5.67372141E-01
 -5.16605403E-01 -5.12245892E-01 -5.03559052E-01 -4.76146810E-01 -4.08031115E-01
  1.58250027E-01  2.20090302E-01  2.62363000E-01  2.97681690E-01  3.02020743E-01
  3.09332546E-01  3.24296406E-01  3.24985692E-01  3.48214762E-01  3.90837636E-01
  4.09457340E-01  4.74904602E-01  5.06322833E-01  6.88862214E-01  7.38289273E-01
  7.61854119E-01  7.62817733E-01  8.16056509E-01  8.29885283E-01  8.50814121E-01
  9.02197472E-01  9.55707309E-01  1.00969103E+00  1.02377161E+00  1.03658047E+00
  1.10603560E+00  1.11141490E+00  1.12159957E+00  1.15592972E+00  1.17694911E+00
  1.18020251E+00  1.19825241E+00  1.20836492E+00  1.22170808E+00  1.24787718E+00
  1.31975208E+00  1.34221552E+00  1.41176012E+00  1.64756607E+00  1.66179972E+00
  1.69092119E+00  1.77583310E+00  1.85106577E+00  1.95745152E+00  2.07143041E+00
  2.07484228E+00  2.09685853E+00  2.16601442E+00  2.19298829E+00  2.21848287E+00
  2.28198352E+00  2.28287358E+00  2.40713163E+00  2.41461929E+00  2.50551473E+00
  2.57474002E+00  2.62696958E+00  2.65639262E+00  2.66182325E+00  2.74799007E+00
  2.83727470E+00  2.90106291E+00  2.93745605E+00  3.13076568E+00  3.33332117E+00
  3.36485797E+00  4.36744339E+00  4.52090252E+00  4.66397201E+00  4.78789059E+00
  4.91884221E+00
Alpha MO coefficients                      R   N=        8281
  9.94698109E-01  2.09208638E-02 -1.52507088E-04 -1.48010317E-03 -6.06877841E-11
  4.54770207E-03  8.24761011E-06  2.70401390E-05  4.14515706E-11 -3.87572875E-03
 -3.63210108E-03 -4.18146405E-03  2.95760708E-05 -3.59438928E-10 -7.74158564E-12
 -3.40635055E-06 -4.08011468E-07  8.40303462E-06 -2.72345166E-05 -1.11493399E-10
 -5.40150498E-05  1.82106766E-04  1.44054992E-05  1.77151010E-09  2.15387087E-05
 -5.30158009E-05 -2.53984790E-05  2.46395952E-05  1.46260645E-10 -3.97411375E-11
 -6.37373673E-06  4.52542917E-04 -1.09660649E-05 -2.60928968E-05  9.21292576E-11
 -1.39315495E-04 -4.12528248E-05 -6.46739175E-04 -7.72208642E-10 -6.22317338E-05
 -7.27585423E-04 -4.48695938E-05 -8.46459093E-05 -2.59770029E-11  4.36419002E-12
  2.76821382E-06  2.14401027E-05 -9.10454283E-06  1.58721175E-05  7.02037619E-10
 -7.07793731E-05  1.07898036E-04 -4.23160565E-06 -4.25837150E-09 -2.95989350E-06
 -9.47969385E-06  1.32332735E-06 -8.68238512E-06 -1.14680742E-10  4.15629208E-11
 -1.77716682E-06  9.24276599E-06 -9.08958372E-06 -2.29658375E-05 -3.45613546E-11
 -9.36369968E-05 -1.32727923E-04  1.34240814E-05  4.60717548E-10  1.01426679E-05
 -4.44999524E-05 -2.17357699E-05 -3.18666333E-05  2.36131778E-11  9.28995973E-12
  7.89026596E-06 -2.08534093E-05  7.89073515E-06 -2.08526485E-05 -3.42021483E-06
 -4.97239729E-05  2.52389196E-05 -3.53652177E-05  2.52395947E-05 -3.53722697E-05
  9.92151552E-06 -2.53451033E-05  4.90684826E-06 -6.47109889E-05  9.92153559E-06
 -2.53446023E-05 -2.49257799E-04  6.98207979E-04 -2.80276149E-05 -2.58087582E-04
 -6.97470793E-11 -3.42569126E-03  1.84369418E-04  1.84800965E-03  2.58881825E-10
  2.27825528E-04 -8.13942740E-05  5.02970204E-04 -3.75536432E-05  2.09339904E-10
 -2.09261550E-11  3.27195210E-03  2.79898985E-04  5.02966109E-05 -1.14725498E-04
 -4.73679848E-11  2.83518854E-03 -2.07926002E-03  5.98375397E-04 -1.02224650E-09
 -3.28343879E-04 -3.81471533E-04 -4.32813813E-05  2.10720756E-04 -1.50490384E-10
 -2.77519083E-11  9.95852451E-01  2.65792799E-02 -6.69497021E-06  5.56549000E-04
  2.56292244E-10 -9.17534249E-03  5.20192752E-04  4.37009673E-03  9.27389223E-10
 -1.62196120E-03 -6.64494621E-04 -2.24928694E-03  1.24882651E-04 -4.19638806E-10
 -3.23125676E-11 -4.29722592E-05 -1.07033973E-04  3.85934313E-05 -3.37907978E-06
 -9.34199611E-10  4.20966657E-04 -2.02599909E-04 -3.32833074E-04  5.11921490E-09
  2.07766266E-05  4.34178004E-05 -4.52679751E-05  1.68128816E-05 -1.90053049E-10
  5.67346007E-10  3.13034724E-03  2.30145667E-04 -4.89579649E-05 -1.06026163E-04
  5.31841283E-10  3.27886497E-03  1.78534885E-03  2.63235528E-04 -4.12607110E-09
 -4.12442024E-04 -3.14596546E-04 -4.73820965E-05 -2.50032277E-04  5.73977039E-11
  4.51174883E-10 -1.23646253E-04  1.91095741E-04 -1.23647189E-04  1.91096940E-04
 -3.29415349E-05  5.41282096E-05 -3.41607189E-05  9.20672158E-05 -3.41614437E-05
  9.20775715E-05 -1.47310975E-04  1.64962594E-04 -6.61650219E-05  1.54125393E-04
 -1.47310995E-04  1.64956935E-04  4.47107211E-06 -5.28604337E-05  6.25564107E-06
  2.48603846E-05 -1.76356253E-11 -2.86968035E-04 -4.95709701E-04  3.73685685E-05
  5.21326945E-10  5.46520605E-05  7.38627982E-05 -9.92480736E-05  7.95088262E-05
 -4.33946313E-11 -7.99155944E-11  9.95748127E-01  2.88134688E-02 -1.75740681E-04
  3.67312572E-06 -2.10293774E-10 -1.82496660E-02  4.29941147E-04 -1.25490954E-03
  2.66009945E-09 -1.62399615E-03 -1.70873757E-03 -1.59991145E-03  2.36690727E-05
  1.53411807E-10  1.41661093E-10 -3.55443686E-03  1.22614278E-06 -8.59466282E-07
 -6.96156992E-05  1.14174570E-10  4.17136359E-03  3.05880348E-03 -9.92776430E-04
 -2.63897581E-09 -3.60368584E-04 -3.34310301E-04 -1.45408090E-04  2.15471974E-04
  4.44084471E-11  5.97651062E-11  1.30160217E-02  4.24618680E-04 -1.02042277E-04
 -2.32328579E-06  1.29584219E-09  3.98834474E-03 -1.60117474E-03 -9.79683798E-04
 -9.50871227E-09 -3.89977766E-04 -2.54845324E-04 -1.00711179E-04 -1.77948945E-04
 -2.10316966E-10 -4.28779177E-10 -2.88004799E-03 -3.76352931E-04 -7.99839284E-05
  6.79789181E-05 -3.60765695E-10  1.62863753E-03  5.18393987E-04  4.96910253E-05
  2.53146232E-09 -4.62263809E-05 -1.17730005E-05 -1.12385034E-04  2.40210044E-05
 -5.18927809E-11  3.72177555E-11  2.51616421E-04  2.70510743E-03  2.51616815E-04
  2.70511004E-03 -1.38411580E-04 -1.62166801E-04 -1.55403161E-04  8.00757896E-05
 -1.55403137E-04  8.00660830E-05 -5.87008251E-05 -2.92621838E-04 -4.48576156E-05
  1.73264234E-04 -5.87010463E-05 -2.92618564E-04 -1.11144051E-05 -1.22610090E-04
  2.67632230E-05  2.59203880E-05 -4.48542580E-11  1.73727336E-04  3.30190300E-04
 -1.94508513E-04 -3.01309297E-11 -2.40562438E-05  6.72935032E-05 -1.39058860E-04
 -3.81251436E-05 -1.82334868E-10  8.24791736E-13  2.77209283E-03 -1.82756139E-04
  1.23383326E-04  6.63211539E-05  2.99179939E-10  9.88516367E-04 -9.76634971E-04
 -1.90205520E-04 -2.92227123E-09 -6.55897101E-05 -3.38379106E-05 -9.27650849E-05
 -5.90008894E-05 -3.02622027E-10 -9.89344583E-11 -3.43740545E-03  3.94056870E-05
  2.89938540E-05 -7.91634784E-05  1.43765326E-10  3.41017896E-03 -2.71303494E-03
 -5.39975152E-04  1.52047481E-09 -4.43354356E-04 -2.70503273E-04 -1.27966500E-04
 -1.49424257E-04  1.67276471E-10 -4.27894406E-11  2.64845742E-05 -1.40229547E-04
  1.06892884E-05 -6.75501883E-06 -2.95058358E-10  8.62949090E-04 -4.66952794E-04
 -7.57650121E-05  2.97347257E-09  7.96133751E-06 -3.67691640E-05 -5.24810600E-05
  1.25860552E-05  1.97507284E-10 -1.13589044E-10  9.95712806E-01  2.87895071E-02
  2.22359212E-04 -1.21374645E-04  6.71024070E-10 -1.59094884E-02 -1.16031488E-03
 -3.06811596E-04 -1.70413871E-09 -1.88707197E-03 -1.88328882E-03 -1.86654124E-03
 -4.66919693E-05  5.52641219E-11  1.45173652E-11 -9.22426194E-05 -2.73544911E-04
 -9.22422937E-05 -2.73549040E-04 -2.65031760E-05  1.08027436E-04 -3.88438017E-05
 -2.99376751E-05 -3.88436222E-05 -2.99351026E-05  1.61747158E-04  2.63610364E-03
  1.67297366E-04  2.39986992E-03  1.61747023E-04  2.63610210E-03 -5.90746698E-05
 -2.56380203E-04 -6.32671749E-05  5.60034173E-05 -1.26779052E-09  1.14290683E-03
  6.61530512E-05 -4.15256893E-04  4.37839718E-09 -1.57949678E-04 -1.21343695E-04
 -2.54069214E-04 -1.49101474E-05  1.18621433E-09 -4.58718689E-10 -1.33130775E-02
 -2.89230572E-04 -1.29711267E-05 -1.48892788E-06  1.63700716E-10  4.03605482E-03
  1.72991891E-03  9.25068236E-04  2.53396928E-09 -4.16040240E-04 -1.97591845E-04
 -7.20296453E-05 -1.81363258E-04  1.66776944E-10 -8.67336091E-11  6.76176776E-05
 -1.09593636E-04 -1.26177691E-04 -7.71026606E-05 -6.45746165E-10 -1.13833586E-03
  5.78504778E-04 -9.98423849E-05  4.06229523E-11  1.49172905E-05 -8.53193545E-06
 -3.84815884E-05 -3.27073338E-05  3.13148386E-10 -4.53476466E-10  9.95666525E-01
  2.84783321E-02 -1.96679386E-04 -1.01336883E-04  2.47352550E-09 -1.53743272E-02
  9.99555286E-04  2.37454259E-04 -7.64555986E-09 -1.83741625E-03 -1.79999282E-03
 -1.80250089E-03 -4.00554826E-05 -3.88245896E-10  2.63646532E-10 -4.85208634E-05
 -1.45374072E-04  9.11628514E-06  2.88666941E-05  2.41733888E-10  1.02031442E-03
  4.66089975E-04  1.22804865E-04 -1.07781458E-09 -1.49091130E-06 -3.40949543E-05
 -4.12425416E-05  2.85634759E-05 -9.44560943E-11  1.41783690E-10 -1.47739198E-04
  1.07354267E-05 -1.47739032E-04  1.07357244E-05  1.11719521E-04  2.38275192E-03
  1.91495930E-04  2.58635235E-03  1.91497944E-04  2.58634490E-03 -4.97938177E-05
 -4.29651755E-05 -3.05878162E-05  4.19469331E-05 -4.97942828E-05 -4.29654660E-05
 -1.94003533E-01  4.26448377E-01 -1.32514497E-02 -1.31318754E-01 -4.38845881E-09
  4.06333792E-01 -5.61341245E-03 -5.65654861E-02 -1.04037168E-08 -3.39171703E-03
  1.75391892E-02 -3.05686029E-03  2.43661966E-03 -1.76778283E-09  1.01015135E-09
 -1.88297787E-02  3.50407484E-02 -1.69622452E-02  2.10707416E-02  8.17210104E-09
  1.05764966E-02  1.14755077E-02  5.90930837E-03 -2.08358683E-08  3.11469915E-03
  4.02071614E-03 -6.00469235E-04 -4.71842472E-03 -1.93016646E-09  1.98447850E-09
 -1.13647899E-01  2.15596004E-01  1.76741387E-02  1.63915452E-01  6.90671380E-09
  7.64057228E-02 -3.83809211E-03 -3.73834934E-02  3.53460301E-09 -1.46814968E-02
  2.95602738E-02 -1.64808226E-02  5.33294938E-03  1.40374424E-09  1.87347138E-09
 -6.05076202E-03  1.18209836E-02 -7.72833352E-03 -3.93919559E-05 -1.83747620E-08
 -3.15347934E-03 -5.54204181E-04  3.69742334E-03  4.01393222E-08  1.84597852E-03
  3.30830792E-04  2.02441142E-04  3.05957449E-05  6.96637811E-09 -6.40688488E-09
 -1.79214147E-02  3.41060171E-02  2.10996130E-02  1.64918039E-02 -8.30992523E-09
  5.53978365E-03 -6.21375070E-03  7.79019139E-03  5.41430407E-09  4.89294504E-03
  2.59276171E-03 -4.74530876E-04  4.53784194E-03 -1.09380374E-09 -5.51616552E-09
  6.25870507E-03  3.73880325E-04  6.25870141E-03  3.73862024E-04  1.77303237E-03
  1.66847531E-03  3.35984676E-03  1.86219110E-03  3.35995205E-03  1.86225707E-03
  5.99331217E-03  1.26664886E-03  8.47529690E-03 -1.33857710E-03  5.99330812E-03
  1.26665745E-03  5.73323961E-02 -1.30399322E-01  1.24238601E-02 -9.32109105E-03
  1.20607046E-09 -1.34979665E-01  4.84803003E-03 -6.23989702E-03 -8.70506054E-09
 -1.54980968E-03 -7.17249083E-04  7.78319219E-05 -1.21908797E-03 -5.12319989E-11
  5.18609721E-10 -1.45093386E-01  2.69536826E-01 -4.18123607E-03  2.52050444E-02
  3.59561898E-08  2.40150544E-01 -3.29757410E-03  2.65747971E-03  6.36922322E-08
  8.96415723E-03  4.64516469E-03  4.41235966E-03  1.46102639E-03 -3.68543287E-09
  2.62361418E-09 -6.65165449E-02  1.36906227E-01  2.67804979E-02 -1.43926138E-01