23341627                                                                
Freq      RMP2-FC                                                     6-31G(d)            
Number of atoms                            I               19
Info1-9                                    I   N=           9
          31          29        1002           0           0         100
           6           2           1
Charge                                     I                0
Multiplicity                               I                1
Number of electrons                        I               74
Number of alpha electrons                  I               37
Number of beta electrons                   I               37
Number of basis functions                  I              168
Number of independent functions            I              168
Number of point charges in /Mol/           I                0
Number of translation vectors              I                0
Atomic numbers                             I   N=          19
           8           8           7           6           6           6
           6           6           6           6           1           1
           1           1           1           1           1           1
           1
Nuclear charges                            R   N=          19
  8.00000000E+00  8.00000000E+00  7.00000000E+00  6.00000000E+00  6.00000000E+00
  6.00000000E+00  6.00000000E+00  6.00000000E+00  6.00000000E+00  6.00000000E+00
  1.00000000E+00  1.00000000E+00  1.00000000E+00  1.00000000E+00  1.00000000E+00
  1.00000000E+00  1.00000000E+00  1.00000000E+00  1.00000000E+00
Current cartesian coordinates              R   N=          57
 -2.89434024E+00  1.95050827E+00  1.79147953E-01  2.74772538E+00 -3.27021582E+00
  9.08278228E-02  1.31973915E+00  8.00262533E-01 -1.45238362E-01 -1.20699849E+00
  7.10907795E-03 -9.14867167E-02  1.76466149E+00  3.52796676E+00 -1.96453477E-01
  3.22160588E+00 -9.90286003E-01  4.03058851E-02 -2.44364701E+00 -2.26906704E+00
 -2.29836195E-01 -5.07125532E+00 -1.67727279E+00 -3.45454649E-02  5.91805953E+00
 -3.18633494E-02  1.56994253E-01 -5.26174085E+00  8.79580369E-01  2.04701298E-01
  5.74576705E-01  4.38496641E+00 -1.64437340E+00  3.73099372E+00  3.89237668E+00
 -6.59724983E-01  1.31414620E+00  4.39496843E+00  1.62530548E+00 -1.57168672E+00
 -4.09478791E+00 -4.35636036E-01 -6.62734155E+00 -3.00216506E+00 -7.23354195E-02
  6.21261947E+00  1.28441662E+00  1.72175324E+00  6.47187918E+00  9.10493316E-01
 -1.59771402E+00  7.11468907E+00 -1.68542954E+00  4.26775770E-01 -6.80924276E+00
  2.19398154E+00  3.94734206E-01
Force Field                                I                0
Int Atom Types                             I   N=          19
           0           0           0           0           0           0
           0           0           0           0           0           0
           0           0           0           0           0           0
           0
MM charges                                 R   N=          19
  0.00000000E+00  0.00000000E+00  0.00000000E+00  0.00000000E+00  0.00000000E+00
  0.00000000E+00  0.00000000E+00  0.00000000E+00  0.00000000E+00  0.00000000E+00
  0.00000000E+00  0.00000000E+00  0.00000000E+00  0.00000000E+00  0.00000000E+00
  0.00000000E+00  0.00000000E+00  0.00000000E+00  0.00000000E+00
Integer atomic weights                     I   N=          19
          16          16          14          12          12          12
          12          12          12          12           1           1
           1           1           1           1           1           1
           1
Real atomic weights                        R   N=          19
  1.59949146E+01  1.59949146E+01  1.40030740E+01  1.20000000E+01  1.20000000E+01
  1.20000000E+01  1.20000000E+01  1.20000000E+01  1.20000000E+01  1.20000000E+01
  1.00782504E+00  1.00782504E+00  1.00782504E+00  1.00782504E+00  1.00782504E+00
  1.00782504E+00  1.00782504E+00  1.00782504E+00  1.00782504E+00
Atom fragment info                         I   N=          19
           0           0           0           0           0           0
           0           0           0           0           0           0
           0           0           0           0           0           0
           0
Atom residue num                           I   N=          19
           0           0           0           0           0           0
           0           0           0           0           0           0
           0           0           0           0           0           0
           0
Nuclear spins                              I   N=          19
           0           0           2           0           0           0
           0           0           0           0           1           1
           1           1           1           1           1           1
           1
Nuclear ZEff                               R   N=          19
 -5.60000000E+00 -5.60000000E+00 -4.55000000E+00 -3.60000000E+00 -3.60000000E+00
 -3.60000000E+00 -3.60000000E+00 -3.60000000E+00 -3.60000000E+00 -3.60000000E+00
 -1.00000000E+00 -1.00000000E+00 -1.00000000E+00 -1.00000000E+00 -1.00000000E+00
 -1.00000000E+00 -1.00000000E+00 -1.00000000E+00 -1.00000000E+00
Nuclear QMom                               R   N=          19
  0.00000000E+00  0.00000000E+00  2.04400000E+00  0.00000000E+00  0.00000000E+00
  0.00000000E+00  0.00000000E+00  0.00000000E+00  0.00000000E+00  0.00000000E+00
  0.00000000E+00  0.00000000E+00  0.00000000E+00  0.00000000E+00  0.00000000E+00
  0.00000000E+00  0.00000000E+00  0.00000000E+00  0.00000000E+00
Nuclear GFac                               R   N=          19
  0.00000000E+00  0.00000000E+00  4.03761000E-01  0.00000000E+00  0.00000000E+00
  0.00000000E+00  0.00000000E+00  0.00000000E+00  0.00000000E+00  0.00000000E+00
  2.79284600E+00  2.79284600E+00  2.79284600E+00  2.79284600E+00  2.79284600E+00
  2.79284600E+00  2.79284600E+00  2.79284600E+00  2.79284600E+00
MicOpt                                     I   N=          19
          -1          -1          -1          -1          -1          -1
          -1          -1          -1          -1          -1          -1
          -1          -1          -1          -1          -1          -1
          -1
Number of contracted shells                I               58
Number of primitive shells                 I              146
Pure/Cartesian d shells                    I                1
Pure/Cartesian f shells                    I                0
Highest angular momentum                   I                2
Largest degree of contraction              I                6
Shell types                                I   N=          58
           0          -1          -1           2           0          -1
          -1           2           0          -1          -1           2
           0          -1          -1           2           0          -1
          -1           2           0          -1          -1           2
           0          -1          -1           2           0          -1
          -1           2           0          -1          -1           2
           0          -1          -1           2           0           0
           0           0           0           0           0           0
           0           0           0           0           0           0
           0           0           0           0
Number of primitives per shell             I   N=          58
           6           3           1           1           6           3
           1           1           6           3           1           1
           6           3           1           1           6           3
           1           1           6           3           1           1
           6           3           1           1           6           3
           1           1           6           3           1           1
           6           3           1           1           3           1
           3           1           3           1           3           1
           3           1           3           1           3           1
           3           1           3           1
Shell to atom map                          I   N=          58
           1           1           1           1           2           2
           2           2           3           3           3           3
           4           4           4           4           5           5
           5           5           6           6           6           6
           7           7           7           7           8           8
           8           8           9           9           9           9
          10          10          10          10          11          11
          12          12          13          13          14          14
          15          15          16          16          17          17
          18          18          19          19
Primitive exponents                        R   N=         146
  5.48467166E+03  8.25234946E+02  1.88046958E+02  5.29645000E+01  1.68975704E+01
  5.79963534E+00  1.55396162E+01  3.59993359E+00  1.01376175E+00  2.70005823E-01
  8.00000000E-01  5.48467166E+03  8.25234946E+02  1.88046958E+02  5.29645000E+01
  1.68975704E+01  5.79963534E+00  1.55396162E+01  3.59993359E+00  1.01376175E+00
  2.70005823E-01  8.00000000E-01  4.17351146E+03  6.27457911E+02  1.42902093E+02
  4.02343293E+01  1.28202129E+01  4.39043701E+00  1.16263619E+01  2.71627981E+00
  7.72218397E-01  2.12031498E-01  8.00000000E-01  3.04752488E+03  4.57369518E+02
  1.03948685E+02  2.92101553E+01  9.28666296E+00  3.16392696E+00  7.86827235E+00
  1.88128854E+00  5.44249258E-01  1.68714478E-01  8.00000000E-01  3.04752488E+03
  4.57369518E+02  1.03948685E+02  2.92101553E+01  9.28666296E+00  3.16392696E+00
  7.86827235E+00  1.88128854E+00  5.44249258E-01  1.68714478E-01  8.00000000E-01
  3.04752488E+03  4.57369518E+02  1.03948685E+02  2.92101553E+01  9.28666296E+00
  3.16392696E+00  7.86827235E+00  1.88128854E+00  5.44249258E-01  1.68714478E-01
  8.00000000E-01  3.04752488E+03  4.57369518E+02  1.03948685E+02  2.92101553E+01
  9.28666296E+00  3.16392696E+00  7.86827235E+00  1.88128854E+00  5.44249258E-01
  1.68714478E-01  8.00000000E-01  3.04752488E+03  4.57369518E+02  1.03948685E+02
  2.92101553E+01  9.28666296E+00  3.16392696E+00  7.86827235E+00  1.88128854E+00
  5.44249258E-01  1.68714478E-01  8.00000000E-01  3.04752488E+03  4.57369518E+02
  1.03948685E+02  2.92101553E+01  9.28666296E+00  3.16392696E+00  7.86827235E+00
  1.88128854E+00  5.44249258E-01  1.68714478E-01  8.00000000E-01  3.04752488E+03
  4.57369518E+02  1.03948685E+02  2.92101553E+01  9.28666296E+00  3.16392696E+00
  7.86827235E+00  1.88128854E+00  5.44249258E-01  1.68714478E-01  8.00000000E-01
  1.87311370E+01  2.82539436E+00  6.40121692E-01  1.61277759E-01  1.87311370E+01
  2.82539436E+00  6.40121692E-01  1.61277759E-01  1.87311370E+01  2.82539436E+00
  6.40121692E-01  1.61277759E-01  1.87311370E+01  2.82539436E+00  6.40121692E-01
  1.61277759E-01  1.87311370E+01  2.82539436E+00  6.40121692E-01  1.61277759E-01
  1.87311370E+01  2.82539436E+00  6.40121692E-01  1.61277759E-01  1.87311370E+01
  2.82539436E+00  6.40121692E-01  1.61277759E-01  1.87311370E+01  2.82539436E+00
  6.40121692E-01  1.61277759E-01  1.87311370E+01  2.82539436E+00  6.40121692E-01
  1.61277759E-01
Contraction coefficients                   R   N=         146
  1.83107443E-03  1.39501722E-02  6.84450781E-02  2.32714336E-01  4.70192898E-01
  3.58520853E-01 -1.10777550E-01 -1.48026263E-01  1.13076702E+00  1.00000000E+00
  1.00000000E+00  1.83107443E-03  1.39501722E-02  6.84450781E-02  2.32714336E-01
  4.70192898E-01  3.58520853E-01 -1.10777550E-01 -1.48026263E-01  1.13076702E+00
  1.00000000E+00  1.00000000E+00  1.83477216E-03  1.39946270E-02  6.85865518E-02
  2.32240873E-01  4.69069948E-01  3.60455199E-01 -1.14961182E-01 -1.69117479E-01
  1.14585195E+00  1.00000000E+00  1.00000000E+00  1.83473713E-03  1.40373228E-02
  6.88426223E-02  2.32184443E-01  4.67941348E-01  3.62311985E-01 -1.19332420E-01
 -1.60854152E-01  1.14345644E+00  1.00000000E+00  1.00000000E+00  1.83473713E-03
  1.40373228E-02  6.88426223E-02  2.32184443E-01  4.67941348E-01  3.62311985E-01
 -1.19332420E-01 -1.60854152E-01  1.14345644E+00  1.00000000E+00  1.00000000E+00
  1.83473713E-03  1.40373228E-02  6.88426223E-02  2.32184443E-01  4.67941348E-01
  3.62311985E-01 -1.19332420E-01 -1.60854152E-01  1.14345644E+00  1.00000000E+00
  1.00000000E+00  1.83473713E-03  1.40373228E-02  6.88426223E-02  2.32184443E-01
  4.67941348E-01  3.62311985E-01 -1.19332420E-01 -1.60854152E-01  1.14345644E+00
  1.00000000E+00  1.00000000E+00  1.83473713E-03  1.40373228E-02  6.88426223E-02
  2.32184443E-01  4.67941348E-01  3.62311985E-01 -1.19332420E-01 -1.60854152E-01
  1.14345644E+00  1.00000000E+00  1.00000000E+00  1.83473713E-03  1.40373228E-02
  6.88426223E-02  2.32184443E-01  4.67941348E-01  3.62311985E-01 -1.19332420E-01
 -1.60854152E-01  1.14345644E+00  1.00000000E+00  1.00000000E+00  1.83473713E-03
  1.40373228E-02  6.88426223E-02  2.32184443E-01  4.67941348E-01  3.62311985E-01
 -1.19332420E-01 -1.60854152E-01  1.14345644E+00  1.00000000E+00  1.00000000E+00
  3.34946043E-02  2.34726953E-01  8.13757326E-01  1.00000000E+00  3.34946043E-02
  2.34726953E-01  8.13757326E-01  1.00000000E+00  3.34946043E-02  2.34726953E-01
  8.13757326E-01  1.00000000E+00  3.34946043E-02  2.34726953E-01  8.13757326E-01
  1.00000000E+00  3.34946043E-02  2.34726953E-01  8.13757326E-01  1.00000000E+00
  3.34946043E-02  2.34726953E-01  8.13757326E-01  1.00000000E+00  3.34946043E-02
  2.34726953E-01  8.13757326E-01  1.00000000E+00  3.34946043E-02  2.34726953E-01
  8.13757326E-01  1.00000000E+00  3.34946043E-02  2.34726953E-01  8.13757326E-01
  1.00000000E+00
P(S=P) Contraction coefficients            R   N=         146
  0.00000000E+00  0.00000000E+00  0.00000000E+00  0.00000000E+00  0.00000000E+00
  0.00000000E+00  7.08742682E-02  3.39752839E-01  7.27158577E-01  1.00000000E+00
  0.00000000E+00  0.00000000E+00  0.00000000E+00  0.00000000E+00  0.00000000E+00
  0.00000000E+00  0.00000000E+00  7.08742682E-02  3.39752839E-01  7.27158577E-01
  1.00000000E+00  0.00000000E+00  0.00000000E+00  0.00000000E+00  0.00000000E+00
  0.00000000E+00  0.00000000E+00  0.00000000E+00  6.75797439E-02  3.23907296E-01
  7.40895140E-01  1.00000000E+00  0.00000000E+00  0.00000000E+00  0.00000000E+00
  0.00000000E+00  0.00000000E+00  0.00000000E+00  0.00000000E+00  6.89990666E-02
  3.16423961E-01  7.44308291E-01  1.00000000E+00  0.00000000E+00  0.00000000E+00
  0.00000000E+00  0.00000000E+00  0.00000000E+00  0.00000000E+00  0.00000000E+00
  6.89990666E-02  3.16423961E-01  7.44308291E-01  1.00000000E+00  0.00000000E+00
  0.00000000E+00  0.00000000E+00  0.00000000E+00  0.00000000E+00  0.00000000E+00
  0.00000000E+00  6.89990666E-02  3.16423961E-01  7.44308291E-01  1.00000000E+00
  0.00000000E+00  0.00000000E+00  0.00000000E+00  0.00000000E+00  0.00000000E+00
  0.00000000E+00  0.00000000E+00  6.89990666E-02  3.16423961E-01  7.44308291E-01
  1.00000000E+00  0.00000000E+00  0.00000000E+00  0.00000000E+00  0.00000000E+00
  0.00000000E+00  0.00000000E+00  0.00000000E+00  6.89990666E-02  3.16423961E-01
  7.44308291E-01  1.00000000E+00  0.00000000E+00  0.00000000E+00  0.00000000E+00
  0.00000000E+00  0.00000000E+00  0.00000000E+00  0.00000000E+00  6.89990666E-02
  3.16423961E-01  7.44308291E-01  1.00000000E+00  0.00000000E+00  0.00000000E+00
  0.00000000E+00  0.00000000E+00  0.00000000E+00  0.00000000E+00  0.00000000E+00
  6.89990666E-02  3.16423961E-01  7.44308291E-01  1.00000000E+00  0.00000000E+00
  0.00000000E+00  0.00000000E+00  0.00000000E+00  0.00000000E+00  0.00000000E+00
  0.00000000E+00  0.00000000E+00  0.00000000E+00  0.00000000E+00  0.00000000E+00
  0.00000000E+00  0.00000000E+00  0.00000000E+00  0.00000000E+00  0.00000000E+00
  0.00000000E+00  0.00000000E+00  0.00000000E+00  0.00000000E+00  0.00000000E+00
  0.00000000E+00  0.00000000E+00  0.00000000E+00  0.00000000E+00  0.00000000E+00
  0.00000000E+00  0.00000000E+00  0.00000000E+00  0.00000000E+00  0.00000000E+00
  0.00000000E+00  0.00000000E+00  0.00000000E+00  0.00000000E+00  0.00000000E+00
  0.00000000E+00
Coordinates of each shell                  R   N=         174
 -2.89434024E+00  1.95050827E+00  1.79147953E-01 -2.89434024E+00  1.95050827E+00
  1.79147953E-01 -2.89434024E+00  1.95050827E+00  1.79147953E-01 -2.89434024E+00
  1.95050827E+00  1.79147953E-01  2.74772538E+00 -3.27021582E+00  9.08278228E-02
  2.74772538E+00 -3.27021582E+00  9.08278228E-02  2.74772538E+00 -3.27021582E+00
  9.08278228E-02  2.74772538E+00 -3.27021582E+00  9.08278228E-02  1.31973915E+00
  8.00262533E-01 -1.45238362E-01  1.31973915E+00  8.00262533E-01 -1.45238362E-01
  1.31973915E+00  8.00262533E-01 -1.45238362E-01  1.31973915E+00  8.00262533E-01
 -1.45238362E-01 -1.20699849E+00  7.10907795E-03 -9.14867167E-02 -1.20699849E+00
  7.10907795E-03 -9.14867167E-02 -1.20699849E+00  7.10907795E-03 -9.14867167E-02
 -1.20699849E+00  7.10907795E-03 -9.14867167E-02  1.76466149E+00  3.52796676E+00
 -1.96453477E-01  1.76466149E+00  3.52796676E+00 -1.96453477E-01  1.76466149E+00
  3.52796676E+00 -1.96453477E-01  1.76466149E+00  3.52796676E+00 -1.96453477E-01
  3.22160588E+00 -9.90286003E-01  4.03058851E-02  3.22160588E+00 -9.90286003E-01
  4.03058851E-02  3.22160588E+00 -9.90286003E-01  4.03058851E-02  3.22160588E+00
 -9.90286003E-01  4.03058851E-02 -2.44364701E+00 -2.26906704E+00 -2.29836195E-01
 -2.44364701E+00 -2.26906704E+00 -2.29836195E-01 -2.44364701E+00 -2.26906704E+00
 -2.29836195E-01 -2.44364701E+00 -2.26906704E+00 -2.29836195E-01 -5.07125532E+00
 -1.67727279E+00 -3.45454649E-02 -5.07125532E+00 -1.67727279E+00 -3.45454649E-02
 -5.07125532E+00 -1.67727279E+00 -3.45454649E-02 -5.07125532E+00 -1.67727279E+00
 -3.45454649E-02  5.91805953E+00 -3.18633494E-02  1.56994253E-01  5.91805953E+00
 -3.18633494E-02  1.56994253E-01  5.91805953E+00 -3.18633494E-02  1.56994253E-01
  5.91805953E+00 -3.18633494E-02  1.56994253E-01 -5.26174085E+00  8.79580369E-01
  2.04701298E-01 -5.26174085E+00  8.79580369E-01  2.04701298E-01 -5.26174085E+00
  8.79580369E-01  2.04701298E-01 -5.26174085E+00  8.79580369E-01  2.04701298E-01
  5.74576705E-01  4.38496641E+00 -1.64437340E+00  5.74576705E-01  4.38496641E+00
 -1.64437340E+00  3.73099372E+00  3.89237668E+00 -6.59724983E-01  3.73099372E+00
  3.89237668E+00 -6.59724983E-01  1.31414620E+00  4.39496843E+00  1.62530548E+00
  1.31414620E+00  4.39496843E+00  1.62530548E+00 -1.57168672E+00 -4.09478791E+00
 -4.35636036E-01 -1.57168672E+00 -4.09478791E+00 -4.35636036E-01 -6.62734155E+00
 -3.00216506E+00 -7.23354195E-02 -6.62734155E+00 -3.00216506E+00 -7.23354195E-02
  6.21261947E+00  1.28441662E+00  1.72175324E+00  6.21261947E+00  1.28441662E+00
  1.72175324E+00  6.47187918E+00  9.10493316E-01 -1.59771402E+00  6.47187918E+00
  9.10493316E-01 -1.59771402E+00  7.11468907E+00 -1.68542954E+00  4.26775770E-01
  7.11468907E+00 -1.68542954E+00  4.26775770E-01 -6.80924276E+00  2.19398154E+00
  3.94734206E-01 -6.80924276E+00  2.19398154E+00  3.94734206E-01
Constraint Structure                       R   N=          57
 -2.89434024E+00  1.95050827E+00  1.79147953E-01  2.74772538E+00 -3.27021582E+00
  9.08278228E-02  1.31973915E+00  8.00262533E-01 -1.45238362E-01 -1.20699849E+00
  7.10907795E-03 -9.14867167E-02  1.76466149E+00  3.52796676E+00 -1.96453477E-01
  3.22160588E+00 -9.90286003E-01  4.03058851E-02 -2.44364701E+00 -2.26906704E+00
 -2.29836195E-01 -5.07125532E+00 -1.67727279E+00 -3.45454649E-02  5.91805953E+00
 -3.18633494E-02  1.56994253E-01 -5.26174085E+00  8.79580369E-01  2.04701298E-01
  5.74576705E-01  4.38496641E+00 -1.64437340E+00  3.73099372E+00  3.89237668E+00
 -6.59724983E-01  1.31414620E+00  4.39496843E+00  1.62530548E+00 -1.57168672E+00
 -4.09478791E+00 -4.35636036E-01 -6.62734155E+00 -3.00216506E+00 -7.23354195E-02
  6.21261947E+00  1.28441662E+00  1.72175324E+00  6.47187918E+00  9.10493316E-01
 -1.59771402E+00  7.11468907E+00 -1.68542954E+00  4.26775770E-01 -6.80924276E+00
  2.19398154E+00  3.94734206E-01
Num ILSW                                   I              100
ILSW                                       I   N=         100
           0           1           0           1           2           0
           0           0           0           0           0          -1
           0           0           0           0           0           0
           0           0           0           0           1           0
           1           0           0           0           0           0
           0           0      100000           0          -1           0
           0           0           0           0           0           0
           0           0           0           1           1           0
           0           0           1           0           0           0
           0           0           4          40           0           0
           0           0           0           0           0           0
           0           0           0           0           0           0
           0           0           0           0           0           0
           0           0           0           0           0           0
           0           0           0           0           0           0
           0           0           0           0           0           0
           0           0           0           0
Num RLSW                                   I               40
RLSW                                       R   N=          40
  1.00000000E+00  1.00000000E+00  1.00000000E+00  1.00000000E+00  1.00000000E+00
  0.00000000E+00  0.00000000E+00  1.00000000E+00  0.00000000E+00  0.00000000E+00
  0.00000000E+00  0.00000000E+00  1.00000000E+00  0.00000000E+00  0.00000000E+00
  0.00000000E+00  0.00000000E+00  1.00000000E+00  0.00000000E+00  0.00000000E+00
  0.00000000E+00  0.00000000E+00  1.00000000E+00  0.00000000E+00  0.00000000E+00
  0.00000000E+00  0.00000000E+00  1.00000000E+00  0.00000000E+00  0.00000000E+00
  0.00000000E+00  0.00000000E+00  0.00000000E+00  0.00000000E+00  0.00000000E+00
  0.00000000E+00  0.00000000E+00  0.00000000E+00  1.00000000E+00  1.00000000E+00
MxBond                                     I                4
NBond                                      I   N=          19
           2           1           3           3           4           3
           3           3           4           3           1           1
           1           1           1           1           1           1
           1
IBond                                      I   N=          76
           4          10           0           0           6           0
           0           0           4           5           6           0
           1           3           7           0           3          11
          12          13           2           3           9           0
           4           8          14           0           7          10
          15           0           6          16          17          18
           1           8          19           0           5           0
           0           0           5           0           0           0
           5           0           0           0           7           0
           0           0           8           0           0           0
           9           0           0           0           9           0
           0           0           9           0           0           0
          10           0           0           0
RBond                                      R   N=          76
  1.50000000E+00  1.50000000E+00  0.00000000E+00  0.00000000E+00  2.00000000E+00
  0.00000000E+00  0.00000000E+00  0.00000000E+00  1.00000000E+00  1.00000000E+00
  1.00000000E+00  0.00000000E+00  1.50000000E+00  1.00000000E+00  1.50000000E+00
  0.00000000E+00  1.00000000E+00  1.00000000E+00  1.00000000E+00  1.00000000E+00
  2.00000000E+00  1.00000000E+00  1.00000000E+00  0.00000000E+00  1.50000000E+00
  1.50000000E+00  1.00000000E+00  0.00000000E+00  1.50000000E+00  1.50000000E+00
  1.00000000E+00  0.00000000E+00  1.00000000E+00  1.00000000E+00  1.00000000E+00
  1.00000000E+00  1.50000000E+00  1.50000000E+00  1.00000000E+00  0.00000000E+00
  1.00000000E+00  0.00000000E+00  0.00000000E+00  0.00000000E+00  1.00000000E+00
  0.00000000E+00  0.00000000E+00  0.00000000E+00  1.00000000E+00  0.00000000E+00
  0.00000000E+00  0.00000000E+00  1.00000000E+00  0.00000000E+00  0.00000000E+00
  0.00000000E+00  1.00000000E+00  0.00000000E+00  0.00000000E+00  0.00000000E+00
  1.00000000E+00  0.00000000E+00  0.00000000E+00  0.00000000E+00  1.00000000E+00
  0.00000000E+00  0.00000000E+00  0.00000000E+00  1.00000000E+00  0.00000000E+00
  0.00000000E+00  0.00000000E+00  1.00000000E+00  0.00000000E+00  0.00000000E+00
  0.00000000E+00
Virial Ratio                               R      2.002680518214515E+00
SCF Energy                                 R     -4.744614521379998E+02
MP2 Energy                                 R     -4.758778563217047E+02
Total Energy                               R     -4.758778563217047E+02
Post-SCF wavefunction norm                 R      1.711129674253696E+00
RMS Force                                  R      1.191316022210012E-07
RMS Density                                R      3.047985307983040E-09
External E-field                           R   N=          35
  0.00000000E+00  0.00000000E+00  0.00000000E+00  0.00000000E+00  0.00000000E+00
  0.00000000E+00  0.00000000E+00  0.00000000E+00  0.00000000E+00  0.00000000E+00
  0.00000000E+00  0.00000000E+00  0.00000000E+00  0.00000000E+00  0.00000000E+00
  0.00000000E+00  0.00000000E+00  0.00000000E+00  0.00000000E+00  0.00000000E+00
  0.00000000E+00  0.00000000E+00  0.00000000E+00  0.00000000E+00  0.00000000E+00
  0.00000000E+00  0.00000000E+00  0.00000000E+00  0.00000000E+00  0.00000000E+00
  0.00000000E+00  0.00000000E+00  0.00000000E+00  0.00000000E+00  0.00000000E+00
IOpCl                                      I                0
IROHF                                      I                0
Alpha Orbital Energies                     R   N=         168
 -2.06282345E+01 -2.05342931E+01 -1.56186380E+01 -1.13667274E+01 -1.13288265E+01
 -1.12783226E+01 -1.12781483E+01 -1.12458511E+01 -1.12265677E+01 -1.12126148E+01
 -1.45750968E+00 -1.38153380E+00 -1.25895395E+00 -1.07458804E+00 -1.02991241E+00
 -9.87931509E-01 -9.52162199E-01 -8.32267366E-01 -7.90403583E-01 -7.44988357E-01
 -6.98632460E-01 -6.76379650E-01 -6.67674935E-01 -6.45168838E-01 -6.17559686E-01
 -5.90787005E-01 -5.86447456E-01 -5.84240254E-01 -5.64260269E-01 -5.57917701E-01
 -5.46573697E-01 -5.34664312E-01 -5.22779871E-01 -4.27981431E-01 -4.24733037E-01
 -3.84498564E-01 -2.80925007E-01  1.55720320E-01  2.04753022E-01  2.25314330E-01
  2.57829320E-01  2.71858872E-01  2.77292755E-01  2.88112175E-01  2.96895163E-01
  3.10225140E-01  3.26248683E-01  3.32552747E-01  3.37889212E-01  3.49274052E-01
  3.65680491E-01  4.04883852E-01  4.22783275E-01  4.57113280E-01  4.96227582E-01
  5.37265647E-01  5.64443409E-01  6.00099029E-01  6.60048126E-01  6.99289595E-01
  7.17947153E-01  7.35381986E-01  7.62830977E-01  7.76968631E-01  7.96090277E-01
  8.04964481E-01  8.09292943E-01  8.17447824E-01  8.40642370E-01  8.61877971E-01
  8.68602522E-01  8.87168790E-01  8.99519170E-01  9.24358660E-01  9.45056755E-01
  9.50071085E-01  9.89390446E-01  9.94939140E-01  1.07986819E+00  1.09524490E+00
  1.10159848E+00  1.11437291E+00  1.12374211E+00  1.12503227E+00  1.13793205E+00
  1.15161324E+00  1.16782961E+00  1.18125771E+00  1.19887693E+00  1.22032601E+00
  1.23627162E+00  1.25194904E+00  1.28303689E+00  1.30237104E+00  1.31833285E+00
  1.34397297E+00  1.35802818E+00  1.36829688E+00  1.49241179E+00  1.54191328E+00
  1.55765423E+00  1.57106536E+00  1.59489254E+00  1.62437784E+00  1.65234113E+00
  1.65778716E+00  1.70430452E+00  1.71755030E+00  1.75496178E+00  1.77309609E+00
  1.81654365E+00  1.85052768E+00  1.89975101E+00  1.91968555E+00  1.94449715E+00
  2.01894849E+00  2.06463553E+00  2.10417957E+00  2.11568251E+00  2.14958311E+00
  2.15206056E+00  2.20046235E+00  2.22255547E+00  2.27620304E+00  2.28312983E+00
  2.30485501E+00  2.32981933E+00  2.35489528E+00  2.39665312E+00  2.42593028E+00
  2.48733020E+00  2.49647997E+00  2.52817424E+00  2.55904737E+00  2.57779497E+00
  2.59180768E+00  2.60113712E+00  2.60688518E+00  2.61815110E+00  2.67931523E+00
  2.70265133E+00  2.78149224E+00  2.82340626E+00  2.83747994E+00  2.89576969E+00
  2.90978270E+00  2.93441897E+00  3.02608800E+00  3.04180246E+00  3.04494334E+00
  3.16561109E+00  3.17898322E+00  3.22225158E+00  3.32108251E+00  3.35050487E+00
  3.40261789E+00  3.54092678E+00  3.73329767E+00  4.43024001E+00  4.44640535E+00
  4.49501348E+00  4.61545323E+00  4.62931435E+00  4.70675460E+00  4.77933098E+00
  4.82845724E+00  4.91684040E+00  5.07665109E+00
Alpha MO coefficients                      R   N=       28224
  9.94653710E-01  2.12031188E-02 -2.46189443E-04 -1.26519570E-03 -1.12602378E-04
  3.82898119E-03  2.95447419E-04  8.85357606E-04  6.37045929E-05 -4.14852575E-03
 -4.07090351E-03 -3.94348358E-03  9.55937863E-06  1.40357607E-05 -1.88166416E-05
  4.69102984E-06  1.27697238E-05 -2.94873104E-06 -3.10421143E-06 -2.02452770E-07
 -9.59778578E-05  6.18066038E-06 -3.47676039E-05  3.33763551E-06  8.08265210E-06
 -1.85555046E-06  7.84110114E-06 -5.36972104E-06 -5.93204576E-08 -1.93587207E-07
 -2.60045341E-05 -6.75756647E-05  4.29798836E-05 -1.08931166E-05 -7.07078666E-06
  8.15111803E-04 -3.38804405E-04  1.89949197E-04  3.38616527E-05 -1.21384090E-04
 -3.41249621E-05 -6.59959813E-05  3.92165716E-05  6.49241335E-06  4.04506175E-06
 -4.94099258E-06  3.49936975E-04 -2.43901166E-04  2.63197689E-04  4.10720318E-05
 -2.98331485E-04 -4.74907542E-04 -3.59403588E-04 -2.85733798E-05 -1.96514042E-05
 -3.23068584E-05 -5.89108515E-05  8.54719320E-06 -3.56408506E-06  1.20657870E-06