
    -----------------------------------------------------------------------
          Psi4: An Open-Source Ab Initio Electronic Structure Package
                               Psi4 1.3.2 release

                         Git: Rev {HEAD} ecbda83 


    R. M. Parrish, L. A. Burns, D. G. A. Smith, A. C. Simmonett,
    A. E. DePrince III, E. G. Hohenstein, U. Bozkaya, A. Yu. Sokolov,
    R. Di Remigio, R. M. Richard, J. F. Gonthier, A. M. James,
    H. R. McAlexander, A. Kumar, M. Saitow, X. Wang, B. P. Pritchard,
    P. Verma, H. F. Schaefer III, K. Patkowski, R. A. King, E. F. Valeev,
    F. A. Evangelista, J. M. Turney, T. D. Crawford, and C. D. Sherrill,
    J. Chem. Theory Comput. 13(7) pp 3185--3197 (2017).
    (doi: 10.1021/acs.jctc.7b00174)


                         Additional Contributions by
    P. Kraus, H. Kruse, M. H. Lechner, M. C. Schieber, R. A. Shaw,
    A. Alenaizan, R. Galvelis, Z. L. Glick, S. Lehtola, and J. P. Misiewicz

    -----------------------------------------------------------------------


    Psi4 started on: Friday, 06 November 2020 07:17PM

    Process ID: 60143
    Host:       node35.bme.utexas.edu
    PSIDATADIR: /home/xy3866/psi4conda/share/psi4
    Memory:     500.0 MiB
    Threads:    8
    
  ==> Input File <==

--------------------------------------------------------------------------
#psi4
#
memory 32 gb

molecule  {
0 1
  P        0.0877380    -0.0630770    -0.3573080
  O        1.2694368     0.7264330     0.3896831
  O       -0.5430750    -0.9215631     0.8613837
  O       -0.9626110     1.1157580    -0.6302230
  O        0.4465310    -0.8472510    -1.5565760
  C        2.4637000    -0.0342890     0.6951100
  C       -1.5478570    -1.8846230     0.5157310
  C       -1.3164940     2.0084280     0.4478740
  H        2.9076370    -0.4029020    -0.2303870
  H        2.2294240    -0.8677130     1.3606750
  H        3.1371140     0.6611440     1.1918470
  H       -2.3893800    -1.3915170     0.0214860
  H       -1.8772340    -2.3283310     1.4531950
  H       -1.1270350    -2.6465320    -0.1425260
  H       -1.6199920     1.4414800     1.3301320
  H       -2.1494040     2.6019710     0.0764460
  H       -0.4694080     2.6502780     0.6903180
units angstrom
no_reorient  #important for SAPT in psi4, default
symmetry c1  #important for SAPT in psi4, default
}

set PROPERTIES_ORIGIN ["COM"]
properties('MP2/aug-cc-pvtz', properties = ['dipole'])
--------------------------------------------------------------------------

  Memory set to  29.802 GiB by Python driver.
    SCF Algorithm Type (re)set to DF.

*** tstart() called on node35.bme.utexas.edu
*** at Fri Nov  6 19:17:02 2020

   => Loading Basis Set <=

    Name: AUG-CC-PVTZ
    Role: ORBITAL
    Keyword: BASIS
    atoms 1    entry P          line   820 file /home/xy3866/psi4conda/share/psi4/basis/aug-cc-pvtz.gbs 
    atoms 2-5  entry O          line   327 file /home/xy3866/psi4conda/share/psi4/basis/aug-cc-pvtz.gbs 
    atoms 6-8  entry C          line   235 file /home/xy3866/psi4conda/share/psi4/basis/aug-cc-pvtz.gbs 
    atoms 9-17 entry H          line    36 file /home/xy3866/psi4conda/share/psi4/basis/aug-cc-pvtz.gbs 


         ---------------------------------------------------------
                                   SCF
               by Justin Turney, Rob Parrish, Andy Simmonett
                          and Daniel G. A. Smith
                              RHF Reference
                        8 Threads,  30517 MiB Core
         ---------------------------------------------------------

  ==> Geometry <==

    Molecular point group: c1
    Full point group: C1

    Geometry (in Angstrom), charge = 0, multiplicity = 1:

       Center              X                  Y                   Z               Mass       
    ------------   -----------------  -----------------  -----------------  -----------------
         P            0.088421477884    -0.063146899889    -0.354927259918    30.973761998420
         O            1.270120277884     0.726363100111     0.392063840082    15.994914619570
         O           -0.542391522116    -0.921632999889     0.863764440082    15.994914619570
         O           -0.961927522116     1.115688100111    -0.627842259918    15.994914619570
         O            0.447214477884    -0.847320899889    -1.554195259918    15.994914619570
         C            2.464383477884    -0.034358899889     0.697490740082    12.000000000000
         C           -1.547173522116    -1.884692899889     0.518111740082    12.000000000000
         C           -1.315810522116     2.008358100111     0.450254740082    12.000000000000
         H            2.908320477884    -0.402971899889    -0.228006259918     1.007825032230
         H            2.230107477884    -0.867782899889     1.363055740082     1.007825032230
         H            3.137797477884     0.661074100111     1.194227740082     1.007825032230
         H           -2.388696522116    -1.391586899889     0.023866740082     1.007825032230
         H           -1.876550522116    -2.328400899889     1.455575740082     1.007825032230
         H           -1.126351522116    -2.646601899889    -0.140145259918     1.007825032230
         H           -1.619308522116     1.441410100111     1.332512740082     1.007825032230
         H           -2.148720522116     2.601901100111     0.078826740082     1.007825032230
         H           -0.468724522116     2.650208100111     0.692698740082     1.007825032230

  Running in c1 symmetry.

  Rotational constants: A =      0.06515  B =      0.05709  C =      0.04331 [cm^-1]
  Rotational constants: A =   1953.10972  B =   1711.41176  C =   1298.52560 [MHz]
  Nuclear repulsion =  549.102465106419345

  Charge       = 0
  Multiplicity = 1
  Electrons    = 74
  Nalpha       = 37
  Nbeta        = 37

  ==> Algorithm <==

  SCF Algorithm Type is DF.
  DIIS enabled.
  MOM disabled.
  Fractional occupation disabled.
  Guess Type is SAD.
  Energy threshold   = 1.00e-10
  Density threshold  = 1.00e-10
  Integral threshold = 0.00e+00

  ==> Primary Basis <==

  Basis Set: AUG-CC-PVTZ
    Blend: AUG-CC-PVTZ
    Number of shells: 195
    Number of basis function: 579
    Number of Cartesian functions: 669
    Spherical Harmonics?: true
    Max angular momentum: 3

   => Loading Basis Set <=

    Name: (AUG-CC-PVTZ AUX)
    Role: JKFIT
    Keyword: DF_BASIS_SCF
    atoms 1    entry P          line   644 file /home/xy3866/psi4conda/share/psi4/basis/aug-cc-pvtz-jkfit.gbs 
    atoms 2-5  entry O          line   286 file /home/xy3866/psi4conda/share/psi4/basis/aug-cc-pvtz-jkfit.gbs 
    atoms 6-8  entry C          line   162 file /home/xy3866/psi4conda/share/psi4/basis/aug-cc-pvtz-jkfit.gbs 
    atoms 9-17 entry H          line    70 file /home/xy3866/psi4conda/share/psi4/basis/aug-cc-pvtz-jkfit.gbs 

  ==> Pre-Iterations <==

   -------------------------------------------------------
    Irrep   Nso     Nmo     Nalpha   Nbeta   Ndocc  Nsocc
   -------------------------------------------------------
     A        579     579       0       0       0       0
   -------------------------------------------------------
    Total     579     579      37      37      37       0
   -------------------------------------------------------

  ==> Integral Setup <==

  DFHelper Memory: AOs need 3.172 GiB; user supplied 22.352 GiB. Using in-core AOs.

  ==> MemDFJK: Density-Fitted J/K Matrices <==

    J tasked:                   Yes
    K tasked:                   Yes
    wK tasked:                   No
    OpenMP threads:               8
    Memory [MiB]:             22888
    Algorithm:                 Disk
    Schwarz Cutoff:           1E-12
    Mask sparsity (%):       4.4953
    Fitting Condition:        1E-10

   => Auxiliary Basis Set <=

  Basis Set: (AUG-CC-PVTZ AUX)
    Blend: AUG-CC-PVTZ-JKFIT
    Number of shells: 378
    Number of basis function: 1288
    Number of Cartesian functions: 1592
    Spherical Harmonics?: true
    Max angular momentum: 4

  Minimum eigenvalue in the overlap matrix is 1.8586756711E-05.
  Using Symmetric Orthogonalization.

  SCF Guess: Superposition of Atomic Densities via on-the-fly atomic UHF.

  ==> Iterations <==

                           Total Energy        Delta E     RMS |[F,P]|

   @DF-RHF iter SAD:  -758.20399559882139   -7.58204e+02   0.00000e+00 
   @DF-RHF iter   1:  -759.06396205811427   -8.59966e-01   1.30551e-03 DIIS
   @DF-RHF iter   2:  -759.24392738823394   -1.79965e-01   7.88495e-04 DIIS
   @DF-RHF iter   3:  -759.31284864541851   -6.89213e-02   1.34124e-04 DIIS
   @DF-RHF iter   4:  -759.31604609222677   -3.19745e-03   4.69862e-05 DIIS
   @DF-RHF iter   5:  -759.31641133447908   -3.65242e-04   1.25357e-05 DIIS
   @DF-RHF iter   6:  -759.31643876996486   -2.74355e-05   2.94281e-06 DIIS
   @DF-RHF iter   7:  -759.31644104460520   -2.27464e-06   8.00137e-07 DIIS
   @DF-RHF iter   8:  -759.31644121783984   -1.73235e-07   2.03713e-07 DIIS
   @DF-RHF iter   9:  -759.31644123271212   -1.48723e-08   7.75788e-08 DIIS
   @DF-RHF iter  10:  -759.31644123467925   -1.96712e-09   2.63236e-08 DIIS
   @DF-RHF iter  11:  -759.31644123488184   -2.02590e-10   9.06245e-09 DIIS
   @DF-RHF iter  12:  -759.31644123490037   -1.85310e-11   2.61229e-09 DIIS
   @DF-RHF iter  13:  -759.31644123490275   -2.38742e-12   6.58059e-10 DIIS
   @DF-RHF iter  14:  -759.31644123489718    5.57066e-12   2.01239e-10 DIIS
   @DF-RHF iter  15:  -759.31644123490059   -3.41061e-12   9.08236e-11 DIIS
  Energy and wave function converged.


  ==> Post-Iterations <==

    Orbital Energies [Eh]
    ---------------------

    Doubly Occupied:                                                      

       1A    -80.099737     2A    -20.594462     3A    -20.593220  
       4A    -20.592410     5A    -20.507768     6A    -11.295682  
       7A    -11.295595     8A    -11.293999     9A     -7.615813  
      10A     -5.514280    11A     -5.513948    12A     -5.512723  
      13A     -1.448002    14A     -1.381274    15A     -1.378378  
      16A     -1.289891    17A     -0.979497    18A     -0.954363  
      19A     -0.947786    20A     -0.786318    21A     -0.714997  
      22A     -0.712596    23A     -0.673827    24A     -0.664502  
      25A     -0.649361    26A     -0.631078    27A     -0.620908  
      28A     -0.614275    29A     -0.582562    30A     -0.539919  
      31A     -0.529627    32A     -0.515970    33A     -0.498187  
      34A     -0.491458    35A     -0.484124    36A     -0.463578  
      37A     -0.457349  

    Virtual:                                                              

      38A      0.025871    39A      0.033307    40A      0.035506  
      41A      0.043700    42A      0.051342    43A      0.053172  
      44A      0.059658    45A      0.061838    46A      0.072154  
      47A      0.078318    48A      0.105720    49A      0.109161  
      50A      0.112461    51A      0.115141    52A      0.119136  
      53A      0.127063    54A      0.128551    55A      0.131495  
      56A      0.140486    57A      0.141438    58A      0.145499  
      59A      0.156618    60A      0.161952    61A      0.172958  
      62A      0.184072    63A      0.187645    64A      0.203952  
      65A      0.210743    66A      0.215107    67A      0.217245  
      68A      0.226424    69A      0.234350    70A      0.241725  
      71A      0.247487    72A      0.252412    73A      0.256214  
      74A      0.258904    75A      0.268925    76A      0.278721  
      77A      0.281579    78A      0.286216    79A      0.301413  
      80A      0.302415    81A      0.309864    82A      0.317439  
      83A      0.322511    84A      0.329219    85A      0.330030  
      86A      0.333749    87A      0.336516    88A      0.343233  
      89A      0.348733    90A      0.352434    91A      0.353885  
      92A      0.355561    93A      0.359329    94A      0.361183  
      95A      0.368147    96A      0.375469    97A      0.377441  
      98A      0.386222    99A      0.395690   100A      0.401988  
     101A      0.408149   102A      0.409483   103A      0.416513  
     104A      0.418862   105A      0.430865   106A      0.432183  
     107A      0.436293   108A      0.441788   109A      0.446144  
     110A      0.447812   111A      0.451148   112A      0.459980  
     113A      0.465997   114A      0.471990   115A      0.472428  
     116A      0.477003   117A      0.484458   118A      0.491173  
     119A      0.495037   120A      0.497967   121A      0.507006  
     122A      0.508381   123A      0.518131   124A      0.526306  
     125A      0.528171   126A      0.532960   127A      0.540064  
     128A      0.549346   129A      0.554379   130A      0.560559  
     131A      0.565880   132A      0.573862   133A      0.577625  
     134A      0.582566   135A      0.589638   136A      0.596367  
     137A      0.597703   138A      0.615606   139A      0.617925  
     140A      0.622637   141A      0.637187   142A      0.663733  
     143A      0.680418   144A      0.686178   145A      0.710755  
     146A      0.722909   147A      0.733001   148A      0.742395  
     149A      0.765174   150A      0.771126   151A      0.783632  
     152A      0.787210   153A      0.791121   154A      0.796680  
     155A      0.804860   156A      0.805894   157A      0.811226  
     158A      0.816487   159A      0.831099   160A      0.841607  
     161A      0.850007   162A      0.863445   163A      0.871093  
     164A      0.874970   165A      0.877418   166A      0.884589  
     167A      0.895051   168A      0.899962   169A      0.906323  
     170A      0.916539   171A      0.919209   172A      0.920017  
     173A      0.928337   174A      0.939773   175A      0.943743  
     176A      0.946088   177A      0.952379   178A      0.957402  
     179A      0.963236   180A      0.972342   181A      0.980723  
     182A      0.987204   183A      0.993903   184A      1.000742  
     185A      1.008399   186A      1.009684   187A      1.017807  
     188A      1.028607   189A      1.034418   190A      1.040862  
     191A      1.042556   192A      1.058097   193A      1.060109  
     194A      1.065368   195A      1.075120   196A      1.079377  
     197A      1.087667   198A      1.097781   199A      1.106891  
     200A      1.108353   201A      1.114825   202A      1.118520  
     203A      1.122336   204A      1.132692   205A      1.138032  
     206A      1.147139   207A      1.151281   208A      1.158341  
     209A      1.172267   210A      1.176061   211A      1.183603  
     212A      1.189434   213A      1.197615   214A      1.207429  
     215A      1.210689   216A      1.216045   217A      1.222022  
     218A      1.234636   219A      1.238774   220A      1.252195  
     221A      1.256549   222A      1.258934   223A      1.264154  
     224A      1.272766   225A      1.278767   226A      1.294466  
     227A      1.304653   228A      1.316911   229A      1.331084  
     230A      1.336002   231A      1.338425   232A      1.350830  
     233A      1.368065   234A      1.384455   235A      1.401010  
     236A      1.412920   237A      1.421463   238A      1.435004  
     239A      1.440136   240A      1.448078   241A      1.461404  
     242A      1.468088   243A      1.478569   244A      1.487691  
     245A      1.506132   246A      1.527269   247A      1.547334  
     248A      1.551546   249A      1.564814   250A      1.572868  
     251A      1.589719   252A      1.596627   253A      1.598900  
     254A      1.614096   255A      1.617617   256A      1.623415  
     257A      1.630010   258A      1.644128   259A      1.650856  
     260A      1.659399   261A      1.662780   262A      1.671765  
     263A      1.676549   264A      1.678967   265A      1.686215  
     266A      1.696810   267A      1.705156   268A      1.708026  
     269A      1.719618   270A      1.733010   271A      1.742467  
     272A      1.745857   273A      1.755004   274A      1.758251  
     275A      1.770896   276A      1.787582   277A      1.788591  
     278A      1.800853   279A      1.814246   280A      1.824925  
     281A      1.834751   282A      1.844224   283A      1.855234  
     284A      1.864655   285A      1.891039   286A      1.899448  
     287A      1.912401   288A      1.926089   289A      1.935090  
     290A      1.960995   291A      1.965082   292A      1.974902  
     293A      1.990349   294A      1.994202   295A      2.014643  
     296A      2.028232   297A      2.042783   298A      2.045560  
     299A      2.050885   300A      2.068171   301A      2.072583  
     302A      2.082318   303A      2.093191   304A      2.102292  
     305A      2.115467   306A      2.120449   307A      2.137377  
     308A      2.150949   309A      2.169995   310A      2.176869  
     311A      2.188576   312A      2.197345   313A      2.204429  
     314A      2.216409   315A      2.228479   316A      2.245076  
     317A      2.256083   318A      2.263262   319A      2.267036  
     320A      2.275405   321A      2.295878   322A      2.324521  
     323A      2.338680   324A      2.369670   325A      2.404074  
     326A      2.430833   327A      2.440663   328A      2.447267  
     329A      2.471930   330A      2.481409   331A      2.512968  
     332A      2.532409   333A      2.548125   334A      2.559584  
     335A      2.573066   336A      2.590251   337A      2.607080  
     338A      2.618130   339A      2.640920   340A      2.655964  
     341A      2.665920   342A      2.674724   343A      2.704451  
     344A      2.718343   345A      2.730652   346A      2.742421  
     347A      2.748239   348A      2.780099   349A      2.791828  
     350A      2.806685   351A      2.826075   352A      2.851091  
     353A      2.855798   354A      2.868037   355A      2.888956  
     356A      2.905726   357A      2.919761   358A      2.928604  
     359A      2.943606   360A      2.960273   361A      2.975536  
     362A      2.986328   363A      3.035242   364A      3.082834  
     365A      3.098845   366A      3.109536   367A      3.161121  
     368A      3.176853   369A      3.192116   370A      3.225760  
     371A      3.234015   372A      3.261837   373A      3.289816  
     374A      3.302986   375A      3.335127   376A      3.357958  
     377A      3.358997   378A      3.384885   379A      3.403838  
     380A      3.418608   381A      3.441507   382A      3.448385  
     383A      3.471569   384A      3.484707   385A      3.512757  
     386A      3.531980   387A      3.553308   388A      3.588477  
     389A      3.599686   390A      3.619781   391A      3.628417  
     392A      3.644397   393A      3.649370   394A      3.667752  
     395A      3.691218   396A      3.697077   397A      3.711959  
     398A      3.723181   399A      3.727591   400A      3.754210  
     401A      3.763788   402A      3.779681   403A      3.799847  
     404A      3.801073   405A      3.814140   406A      3.824304  
     407A      3.836117   408A      3.857514   409A      3.858980  
     410A      3.879282   411A      3.892002   412A      3.915006  
     413A      3.919718   414A      3.924795   415A      3.944205  
     416A      3.978436   417A      3.980692   418A      4.011458  
     419A      4.023284   420A      4.048514   421A      4.065966  
     422A      4.074658   423A      4.091415   424A      4.109026  
     425A      4.116646   426A      4.151155   427A      4.166014  
     428A      4.171471   429A      4.175461   430A      4.193991  
     431A      4.209566   432A      4.227262   433A      4.247646  
     434A      4.282642   435A      4.287901   436A      4.302520  
     437A      4.314725   438A      4.328985   439A      4.343086  
     440A      4.358488   441A      4.376222   442A      4.382784  
     443A      4.438684   444A      4.453921   445A      4.474662  
     446A      4.502513   447A      4.521661   448A      4.523066  
     449A      4.574808   450A      4.596948   451A      4.603012  
     452A      4.622706   453A      4.640369   454A      4.645466  
     455A      4.685461   456A      4.712905   457A      4.732301  
     458A      4.784435   459A      4.787293   460A      4.803726  
     461A      4.808450   462A      4.823784   463A      4.836509  
     464A      4.861869   465A      4.866069   466A      4.902755  
     467A      4.935214   468A      4.946658   469A      4.973417  
     470A      4.973812   471A      5.009377   472A      5.017915  
     473A      5.036936   474A      5.049037   475A      5.062261  
     476A      5.080882   477A      5.088969   478A      5.107282  
     479A      5.136562   480A      5.159384   481A      5.177953  
     482A      5.210116   483A      5.241188   484A      5.297284  
     485A      5.313831   486A      5.337106   487A      5.387283  
     488A      5.397700   489A      5.439100   490A      5.461116  
     491A      5.480353   492A      5.526936   493A      5.584544  
     494A      5.587467   495A      5.602269   496A      5.612538  
     497A      5.634594   498A      5.640608   499A      5.648477  
     500A      5.680108   501A      5.687885   502A      5.699138  
     503A      5.733829   504A      5.780134   505A      5.862817  
     506A      6.013815   507A      6.016689   508A      6.031831  
     509A      6.058308   510A      6.065787   511A      6.071964  
     512A      6.110606   513A      6.127173   514A      6.132080  
     515A      6.334230   516A      6.341252   517A      6.429880  
     518A      6.663247   519A      6.677364   520A      6.682909  
     521A      6.700479   522A      6.710734   523A      6.750726  
     524A      6.769615   525A      6.813588   526A      6.842734  
     527A      6.864379   528A      6.887456   529A      6.901230  
     530A      6.926536   531A      6.941948   532A      6.952814  
     533A      6.987101   534A      6.996546   535A      7.018719  
     536A      7.046766   537A      7.070843   538A      7.083471  
     539A      7.097742   540A      7.113165   541A      7.127960  
     542A      7.143231   543A      7.160731   544A      7.179481  
     545A      7.195169   546A      7.275244   547A      7.280811  
     548A      7.321071   549A      7.353393   550A      7.364105  
     551A      7.396274   552A      7.436973   553A      7.437535  
     554A      7.492704   555A      7.504600   556A      7.515374  
     557A      7.590519   558A      7.622597   559A      7.688169  
     560A      7.708780   561A      7.728674   562A      7.795979  
     563A      7.843677   564A      7.865334   565A      7.871628  
     566A      8.057651   567A      8.093690   568A      8.116225  
     569A      8.149189   570A      8.196616   571A      8.273263  
     572A     11.423139   573A     13.183457   574A     14.667981  
     575A     14.895401   576A     15.639163   577A     17.824700  
     578A     17.885100   579A     17.913204  

    Final Occupation by Irrep:
              A 
    DOCC [    37 ]

  @DF-RHF Final Energy:  -759.31644123490059

   => Energetics <=

    Nuclear Repulsion Energy =            549.1024651064193449
    One-Electron Energy =               -2137.9588798059103283
    Two-Electron Energy =                 829.5399734645902754
    Total Energy =                       -759.3164412349005943

Computation Completed

*** tstop() called on node35.bme.utexas.edu at Fri Nov  6 19:18:38 2020
Module time:
	user time   =     356.78 seconds =       5.95 minutes
	system time =      63.79 seconds =       1.06 minutes
	total time  =         96 seconds =       1.60 minutes
Total time:
	user time   =     356.78 seconds =       5.95 minutes
	system time =      63.79 seconds =       1.06 minutes
	total time  =         96 seconds =       1.60 minutes
   => Loading Basis Set <=

    Name: (AUG-CC-PVTZ AUX)
    Role: RIFIT
    Keyword: DF_BASIS_MP2
    atoms 1    entry P          line   590 file /home/xy3866/psi4conda/share/psi4/basis/aug-cc-pvtz-ri.gbs 
    atoms 2-5  entry O          line   264 file /home/xy3866/psi4conda/share/psi4/basis/aug-cc-pvtz-ri.gbs 
    atoms 6-8  entry C          line   148 file /home/xy3866/psi4conda/share/psi4/basis/aug-cc-pvtz-ri.gbs 
    atoms 9-17 entry H          line    30 file /home/xy3866/psi4conda/share/psi4/basis/aug-cc-pvtz-ri.gbs 


*** tstart() called on node35.bme.utexas.edu
*** at Fri Nov  6 19:18:38 2020


  //>>>>>>>>>>>>>>>>>>>>>>>>>>>>>>>>>>>//
  //               DFMP2               //
  //<<<<<<<<<<<<<<<<<<<<<<<<<<<<<<<<<<<//

	 --------------------------------------------------------
	                          DF-MP2                         
	      2nd-Order Density-Fitted Moller-Plesset Theory     
	              RMP2 Wavefunction,   8 Threads             
	                                                         
	        Rob Parrish, Justin Turney, Andy Simmonett,      
	           Ed Hohenstein, and C. David Sherrill          
	 --------------------------------------------------------

   => Auxiliary Basis Set <=

  Basis Set: (AUG-CC-PVTZ AUX)
    Blend: AUG-CC-PVTZ-RI
    Number of shells: 359
    Number of basis function: 1303
    Number of Cartesian functions: 1638
    Spherical Harmonics?: true
    Max angular momentum: 4

	 --------------------------------------------------------
	                 NBF =   579, NAUX =  1303
	 --------------------------------------------------------
	   CLASS    FOCC     OCC    AOCC    AVIR     VIR    FVIR
	   PAIRS       0      37      37     542     542       0
	 --------------------------------------------------------

  DFHelper Memory: AOs need 3.172 GiB; user supplied 22.352 GiB. Using in-core AOs.


         ------------------------------------------------------------
                                     CPHF                           
                                  Rob Parrish                       
         ------------------------------------------------------------

  ==> Geometry <==

    Molecular point group: c1
    Full point group: C1

    Geometry (in Angstrom), charge = 0, multiplicity = 1:

       Center              X                  Y                   Z               Mass       
    ------------   -----------------  -----------------  -----------------  -----------------
         P            0.088421477884    -0.063146899889    -0.354927259918    30.973761998420
         O            1.270120277884     0.726363100111     0.392063840082    15.994914619570
         O           -0.542391522116    -0.921632999889     0.863764440082    15.994914619570
         O           -0.961927522116     1.115688100111    -0.627842259918    15.994914619570
         O            0.447214477884    -0.847320899889    -1.554195259918    15.994914619570
         C            2.464383477884    -0.034358899889     0.697490740082    12.000000000000
         C           -1.547173522116    -1.884692899889     0.518111740082    12.000000000000
         C           -1.315810522116     2.008358100111     0.450254740082    12.000000000000
         H            2.908320477884    -0.402971899889    -0.228006259918     1.007825032230
         H            2.230107477884    -0.867782899889     1.363055740082     1.007825032230
         H            3.137797477884     0.661074100111     1.194227740082     1.007825032230
         H           -2.388696522116    -1.391586899889     0.023866740082     1.007825032230
         H           -1.876550522116    -2.328400899889     1.455575740082     1.007825032230
         H           -1.126351522116    -2.646601899889    -0.140145259918     1.007825032230
         H           -1.619308522116     1.441410100111     1.332512740082     1.007825032230
         H           -2.148720522116     2.601901100111     0.078826740082     1.007825032230
         H           -0.468724522116     2.650208100111     0.692698740082     1.007825032230

  Nuclear repulsion =  549.102465106419345
  Reference energy  = -759.316441234900594

  ==> Basis Set <==

  Basis Set: AUG-CC-PVTZ
    Blend: AUG-CC-PVTZ
    Number of shells: 195
    Number of basis function: 579
    Number of Cartesian functions: 669
    Spherical Harmonics?: true
    Max angular momentum: 3

  ==> CGRSolver (by Rob Parrish) <==

   Number of roots    =         1
   Preconditioning    =    JACOBI
   Convergence cutoff =     1E-06
   Maximum iterations =       100

  ==> CPHFRHamiltonian (by Rob Parrish) <== 

  ==> MemDFJK: Density-Fitted J/K Matrices <==

    J tasked:                   Yes
    K tasked:                   Yes
    wK tasked:                   No
    OpenMP threads:               8
    Memory [MiB]:             22888
    Algorithm:                 Disk
    Schwarz Cutoff:           1E-12
    Mask sparsity (%):       4.4953
    Fitting Condition:        1E-10

   => Auxiliary Basis Set <=

  Basis Set: (AUG-CC-PVTZ AUX)
    Blend: AUG-CC-PVTZ-JKFIT
    Number of shells: 378
    Number of basis function: 1288
    Number of Cartesian functions: 1592
    Spherical Harmonics?: true
    Max angular momentum: 4

  ==> CPHF Iterations <==

  => Iterations <=

             Iter  Converged  Remaining    Residual
  CGR           1          0          1   7.439E-02
  CGR           2          0          1   1.921E-02
  CGR           3          0          1   7.021E-03
  CGR           4          0          1   2.340E-03
  CGR           5          0          1   8.028E-04
  CGR           6          0          1   1.945E-04
  CGR           7          0          1   5.517E-05
  CGR           8          0          1   2.090E-05
  CGR           9          0          1   6.420E-06
  CGR          10          0          1   2.216E-06
  CGR          11          1          0   6.839E-07

    CGRSolver converged.

	-----------------------------------------------------------
	 ==================> DF-MP2 Energies <==================== 
	-----------------------------------------------------------
	 Reference Energy          =    -759.3164412349005943 [Eh]
	 Singles Energy            =      -0.0000000000000000 [Eh]
	 Same-Spin Energy          =      -0.4436084646537443 [Eh]
	 Opposite-Spin Energy      =      -1.3820712049496329 [Eh]
	 Correlation Energy        =      -1.8256796696033772 [Eh]
	 Total Energy              =    -761.1421209045039404 [Eh]
	-----------------------------------------------------------
	 ================> DF-SCS-MP2 Energies <================== 
	-----------------------------------------------------------
	 SCS Same-Spin Scale       =       0.3333333333333333 [-]
	 SCS Opposite-Spin Scale   =       1.2000000000000000 [-]
	 SCS Same-Spin Energy      =      -0.1478694882179147 [Eh]
	 SCS Opposite-Spin Energy  =      -1.6584854459395595 [Eh]
	 SCS Correlation Energy    =      -1.8063549341574743 [Eh]
	 SCS Total Energy          =    -761.1227961690581196 [Eh]
	-----------------------------------------------------------



Properties will be evaluated at  -0.000000,  -0.000000,   0.000000 [a0]

Properties computed using the MP2 density matrix

  Nuclear Dipole Moment: [e a0]
     X:    -1.3479      Y:    -0.2066      Z:     5.7338

  Electronic Dipole Moment: [e a0]
     X:     1.0568      Y:     0.4299      Z:    -4.3201

  Dipole Moment: [e a0]
     X:    -0.2911      Y:     0.2233      Z:     1.4137     Total:     1.4605

  Dipole Moment: [D]
     X:    -0.7399      Y:     0.5675      Z:     3.5932     Total:     3.7122


*** tstop() called on node35.bme.utexas.edu at Fri Nov  6 19:22:14 2020
Module time:
	user time   =    1066.18 seconds =      17.77 minutes
	system time =     159.65 seconds =       2.66 minutes
	total time  =        216 seconds =       3.60 minutes
Total time:
	user time   =    1424.19 seconds =      23.74 minutes
	system time =     223.52 seconds =       3.73 minutes
	total time  =        312 seconds =       5.20 minutes

    Psi4 stopped on: Friday, 06 November 2020 07:22PM
    Psi4 wall time for execution: 0:05:11.96

*** Psi4 exiting successfully. Buy a developer a beer!
