61503                                                                   
Freq      RMP2-FC                                                     6-31G(d)            
Number of atoms                            I               12
Info1-9                                    I   N=           9
          24          22        1002           0           0         100
           6           2           1
Charge                                     I                0
Multiplicity                               I                1
Number of electrons                        I               48
Number of alpha electrons                  I               24
Number of beta electrons                   I               24
Number of basis functions                  I              102
Number of independent functions            I              102
Number of point charges in /Mol/           I                0
Number of translation vectors              I                0
Atomic numbers                             I   N=          12
           8           8           8           6           6           6
           1           1           1           1           1           1
Nuclear charges                            R   N=          12
  8.00000000E+00  8.00000000E+00  8.00000000E+00  6.00000000E+00  6.00000000E+00
  6.00000000E+00  1.00000000E+00  1.00000000E+00  1.00000000E+00  1.00000000E+00
  1.00000000E+00  1.00000000E+00
Current cartesian coordinates              R   N=          36
  2.55149512E+00 -2.14609161E+00 -4.59797138E-01 -2.94013776E+00  1.67897872E+00
 -7.41081335E-01 -2.29977920E+00 -2.17456586E+00  1.03887569E+00  1.25270890E+00
  1.81289418E-01 -7.43540813E-01  2.34251246E+00  2.25010336E+00  9.47827055E-01
 -1.47617319E+00 -3.25120651E-01 -3.78520897E-02  1.26403369E+00  8.19642096E-01
 -2.72218387E+00  2.28359307E+00  1.62379754E+00  2.91493955E+00  1.27854802E+00
  4.00752015E+00  7.51582885E-01  4.31218997E+00  2.61742512E+00  4.33371338E-01
  4.30743060E+00 -1.83002393E+00 -9.00902507E-01 -4.65270958E+00  1.25743619E+00
 -1.79390027E-01
Force Field                                I                0
Int Atom Types                             I   N=          12
           0           0           0           0           0           0
           0           0           0           0           0           0
MM charges                                 R   N=          12
  0.00000000E+00  0.00000000E+00  0.00000000E+00  0.00000000E+00  0.00000000E+00
  0.00000000E+00  0.00000000E+00  0.00000000E+00  0.00000000E+00  0.00000000E+00
  0.00000000E+00  0.00000000E+00
Integer atomic weights                     I   N=          12
          16          16          16          12          12          12
           1           1           1           1           1           1
Real atomic weights                        R   N=          12
  1.59949146E+01  1.59949146E+01  1.59949146E+01  1.20000000E+01  1.20000000E+01
  1.20000000E+01  1.00782504E+00  1.00782504E+00  1.00782504E+00  1.00782504E+00
  1.00782504E+00  1.00782504E+00
Atom fragment info                         I   N=          12
           0           0           0           0           0           0
           0           0           0           0           0           0
Atom residue num                           I   N=          12
           0           0           0           0           0           0
           0           0           0           0           0           0
Nuclear spins                              I   N=          12
           0           0           0           0           0           0
           1           1           1           1           1           1
Nuclear ZEff                               R   N=          12
 -5.60000000E+00 -5.60000000E+00 -5.60000000E+00 -3.60000000E+00 -3.60000000E+00
 -3.60000000E+00 -1.00000000E+00 -1.00000000E+00 -1.00000000E+00 -1.00000000E+00
 -1.00000000E+00 -1.00000000E+00
Nuclear QMom                               R   N=          12
  0.00000000E+00  0.00000000E+00  0.00000000E+00  0.00000000E+00  0.00000000E+00
  0.00000000E+00  0.00000000E+00  0.00000000E+00  0.00000000E+00  0.00000000E+00
  0.00000000E+00  0.00000000E+00
Nuclear GFac                               R   N=          12
  0.00000000E+00  0.00000000E+00  0.00000000E+00  0.00000000E+00  0.00000000E+00
  0.00000000E+00  2.79284600E+00  2.79284600E+00  2.79284600E+00  2.79284600E+00
  2.79284600E+00  2.79284600E+00
MicOpt                                     I   N=          12
          -1          -1          -1          -1          -1          -1
          -1          -1          -1          -1          -1          -1
Number of contracted shells                I               36
Number of primitive shells                 I               90
Pure/Cartesian d shells                    I                1
Pure/Cartesian f shells                    I                0
Highest angular momentum                   I                2
Largest degree of contraction              I                6
Shell types                                I   N=          36
           0          -1          -1           2           0          -1
          -1           2           0          -1          -1           2
           0          -1          -1           2           0          -1
          -1           2           0          -1          -1           2
           0           0           0           0           0           0
           0           0           0           0           0           0
Number of primitives per shell             I   N=          36
           6           3           1           1           6           3
           1           1           6           3           1           1
           6           3           1           1           6           3
           1           1           6           3           1           1
           3           1           3           1           3           1
           3           1           3           1           3           1
Shell to atom map                          I   N=          36
           1           1           1           1           2           2
           2           2           3           3           3           3
           4           4           4           4           5           5
           5           5           6           6           6           6
           7           7           8           8           9           9
          10          10          11          11          12          12
Primitive exponents                        R   N=          90
  5.48467166E+03  8.25234946E+02  1.88046958E+02  5.29645000E+01  1.68975704E+01
  5.79963534E+00  1.55396162E+01  3.59993359E+00  1.01376175E+00  2.70005823E-01
  8.00000000E-01  5.48467166E+03  8.25234946E+02  1.88046958E+02  5.29645000E+01
  1.68975704E+01  5.79963534E+00  1.55396162E+01  3.59993359E+00  1.01376175E+00
  2.70005823E-01  8.00000000E-01  5.48467166E+03  8.25234946E+02  1.88046958E+02
  5.29645000E+01  1.68975704E+01  5.79963534E+00  1.55396162E+01  3.59993359E+00
  1.01376175E+00  2.70005823E-01  8.00000000E-01  3.04752488E+03  4.57369518E+02
  1.03948685E+02  2.92101553E+01  9.28666296E+00  3.16392696E+00  7.86827235E+00
  1.88128854E+00  5.44249258E-01  1.68714478E-01  8.00000000E-01  3.04752488E+03
  4.57369518E+02  1.03948685E+02  2.92101553E+01  9.28666296E+00  3.16392696E+00
  7.86827235E+00  1.88128854E+00  5.44249258E-01  1.68714478E-01  8.00000000E-01
  3.04752488E+03  4.57369518E+02  1.03948685E+02  2.92101553E+01  9.28666296E+00
  3.16392696E+00  7.86827235E+00  1.88128854E+00  5.44249258E-01  1.68714478E-01
  8.00000000E-01  1.87311370E+01  2.82539436E+00  6.40121692E-01  1.61277759E-01
  1.87311370E+01  2.82539436E+00  6.40121692E-01  1.61277759E-01  1.87311370E+01
  2.82539436E+00  6.40121692E-01  1.61277759E-01  1.87311370E+01  2.82539436E+00
  6.40121692E-01  1.61277759E-01  1.87311370E+01  2.82539436E+00  6.40121692E-01
  1.61277759E-01  1.87311370E+01  2.82539436E+00  6.40121692E-01  1.61277759E-01
Contraction coefficients                   R   N=          90
  1.83107443E-03  1.39501722E-02  6.84450781E-02  2.32714336E-01  4.70192898E-01
  3.58520853E-01 -1.10777550E-01 -1.48026263E-01  1.13076702E+00  1.00000000E+00
  1.00000000E+00  1.83107443E-03  1.39501722E-02  6.84450781E-02  2.32714336E-01
  4.70192898E-01  3.58520853E-01 -1.10777550E-01 -1.48026263E-01  1.13076702E+00
  1.00000000E+00  1.00000000E+00  1.83107443E-03  1.39501722E-02  6.84450781E-02
  2.32714336E-01  4.70192898E-01  3.58520853E-01 -1.10777550E-01 -1.48026263E-01
  1.13076702E+00  1.00000000E+00  1.00000000E+00  1.83473713E-03  1.40373228E-02
  6.88426223E-02  2.32184443E-01  4.67941348E-01  3.62311985E-01 -1.19332420E-01
 -1.60854152E-01  1.14345644E+00  1.00000000E+00  1.00000000E+00  1.83473713E-03
  1.40373228E-02  6.88426223E-02  2.32184443E-01  4.67941348E-01  3.62311985E-01
 -1.19332420E-01 -1.60854152E-01  1.14345644E+00  1.00000000E+00  1.00000000E+00
  1.83473713E-03  1.40373228E-02  6.88426223E-02  2.32184443E-01  4.67941348E-01
  3.62311985E-01 -1.19332420E-01 -1.60854152E-01  1.14345644E+00  1.00000000E+00
  1.00000000E+00  3.34946043E-02  2.34726953E-01  8.13757326E-01  1.00000000E+00
  3.34946043E-02  2.34726953E-01  8.13757326E-01  1.00000000E+00  3.34946043E-02
  2.34726953E-01  8.13757326E-01  1.00000000E+00  3.34946043E-02  2.34726953E-01
  8.13757326E-01  1.00000000E+00  3.34946043E-02  2.34726953E-01  8.13757326E-01
  1.00000000E+00  3.34946043E-02  2.34726953E-01  8.13757326E-01  1.00000000E+00
P(S=P) Contraction coefficients            R   N=          90
  0.00000000E+00  0.00000000E+00  0.00000000E+00  0.00000000E+00  0.00000000E+00
  0.00000000E+00  7.08742682E-02  3.39752839E-01  7.27158577E-01  1.00000000E+00
  0.00000000E+00  0.00000000E+00  0.00000000E+00  0.00000000E+00  0.00000000E+00
  0.00000000E+00  0.00000000E+00  7.08742682E-02  3.39752839E-01  7.27158577E-01
  1.00000000E+00  0.00000000E+00  0.00000000E+00  0.00000000E+00  0.00000000E+00
  0.00000000E+00  0.00000000E+00  0.00000000E+00  7.08742682E-02  3.39752839E-01
  7.27158577E-01  1.00000000E+00  0.00000000E+00  0.00000000E+00  0.00000000E+00
  0.00000000E+00  0.00000000E+00  0.00000000E+00  0.00000000E+00  6.89990666E-02
  3.16423961E-01  7.44308291E-01  1.00000000E+00  0.00000000E+00  0.00000000E+00
  0.00000000E+00  0.00000000E+00  0.00000000E+00  0.00000000E+00  0.00000000E+00
  6.89990666E-02  3.16423961E-01  7.44308291E-01  1.00000000E+00  0.00000000E+00
  0.00000000E+00  0.00000000E+00  0.00000000E+00  0.00000000E+00  0.00000000E+00
  0.00000000E+00  6.89990666E-02  3.16423961E-01  7.44308291E-01  1.00000000E+00
  0.00000000E+00  0.00000000E+00  0.00000000E+00  0.00000000E+00  0.00000000E+00
  0.00000000E+00  0.00000000E+00  0.00000000E+00  0.00000000E+00  0.00000000E+00
  0.00000000E+00  0.00000000E+00  0.00000000E+00  0.00000000E+00  0.00000000E+00
  0.00000000E+00  0.00000000E+00  0.00000000E+00  0.00000000E+00  0.00000000E+00
  0.00000000E+00  0.00000000E+00  0.00000000E+00  0.00000000E+00  0.00000000E+00
Coordinates of each shell                  R   N=         108
  2.55149512E+00 -2.14609161E+00 -4.59797138E-01  2.55149512E+00 -2.14609161E+00
 -4.59797138E-01  2.55149512E+00 -2.14609161E+00 -4.59797138E-01  2.55149512E+00
 -2.14609161E+00 -4.59797138E-01 -2.94013776E+00  1.67897872E+00 -7.41081335E-01
 -2.94013776E+00  1.67897872E+00 -7.41081335E-01 -2.94013776E+00  1.67897872E+00
 -7.41081335E-01 -2.94013776E+00  1.67897872E+00 -7.41081335E-01 -2.29977920E+00
 -2.17456586E+00  1.03887569E+00 -2.29977920E+00 -2.17456586E+00  1.03887569E+00
 -2.29977920E+00 -2.17456586E+00  1.03887569E+00 -2.29977920E+00 -2.17456586E+00
  1.03887569E+00  1.25270890E+00  1.81289418E-01 -7.43540813E-01  1.25270890E+00
  1.81289418E-01 -7.43540813E-01  1.25270890E+00  1.81289418E-01 -7.43540813E-01
  1.25270890E+00  1.81289418E-01 -7.43540813E-01  2.34251246E+00  2.25010336E+00
  9.47827055E-01  2.34251246E+00  2.25010336E+00  9.47827055E-01  2.34251246E+00
  2.25010336E+00  9.47827055E-01  2.34251246E+00  2.25010336E+00  9.47827055E-01
 -1.47617319E+00 -3.25120651E-01 -3.78520897E-02 -1.47617319E+00 -3.25120651E-01
 -3.78520897E-02 -1.47617319E+00 -3.25120651E-01 -3.78520897E-02 -1.47617319E+00
 -3.25120651E-01 -3.78520897E-02  1.26403369E+00  8.19642096E-01 -2.72218387E+00
  1.26403369E+00  8.19642096E-01 -2.72218387E+00  2.28359307E+00  1.62379754E+00
  2.91493955E+00  2.28359307E+00  1.62379754E+00  2.91493955E+00  1.27854802E+00
  4.00752015E+00  7.51582885E-01  1.27854802E+00  4.00752015E+00  7.51582885E-01
  4.31218997E+00  2.61742512E+00  4.33371338E-01  4.31218997E+00  2.61742512E+00
  4.33371338E-01  4.30743060E+00 -1.83002393E+00 -9.00902507E-01  4.30743060E+00
 -1.83002393E+00 -9.00902507E-01 -4.65270958E+00  1.25743619E+00 -1.79390027E-01
 -4.65270958E+00  1.25743619E+00 -1.79390027E-01
Constraint Structure                       R   N=          36
  2.55149512E+00 -2.14609161E+00 -4.59797138E-01 -2.94013776E+00  1.67897872E+00
 -7.41081335E-01 -2.29977920E+00 -2.17456586E+00  1.03887569E+00  1.25270890E+00
  1.81289418E-01 -7.43540813E-01  2.34251246E+00  2.25010336E+00  9.47827055E-01
 -1.47617319E+00 -3.25120651E-01 -3.78520897E-02  1.26403369E+00  8.19642096E-01
 -2.72218387E+00  2.28359307E+00  1.62379754E+00  2.91493955E+00  1.27854802E+00
  4.00752015E+00  7.51582885E-01  4.31218997E+00  2.61742512E+00  4.33371338E-01
  4.30743060E+00 -1.83002393E+00 -9.00902507E-01 -4.65270958E+00  1.25743619E+00
 -1.79390027E-01
Num ILSW                                   I              100
ILSW                                       I   N=         100
           0           1           0           0           2           0
           0           0           0           0           0          -1
           0           0           0           0           0           0
           0           0           0           0           1           0
           1           0           0           0           0           0
           0           0      100000           0          -1           0
           0           0           0           0           0           0
           0           0           0           1           1           0
           0           0           1           0           0           0
           0           0           4          40           0           0
           0           0           0           0           0           0
           0           0           0           0           0           0
           0           0           0           0           0           0
           0           0           0           0           0           0
           0           0           0           0           0           0
           0           0           0           0           0           0
           0           0           0           0
Num RLSW                                   I               40
RLSW                                       R   N=          40
  1.00000000E+00  1.00000000E+00  1.00000000E+00  1.00000000E+00  1.00000000E+00
  0.00000000E+00  0.00000000E+00  1.00000000E+00  0.00000000E+00  0.00000000E+00
  0.00000000E+00  0.00000000E+00  1.00000000E+00  0.00000000E+00  0.00000000E+00
  0.00000000E+00  0.00000000E+00  1.00000000E+00  0.00000000E+00  0.00000000E+00
  0.00000000E+00  0.00000000E+00  1.00000000E+00  0.00000000E+00  0.00000000E+00
  0.00000000E+00  0.00000000E+00  1.00000000E+00  0.00000000E+00  0.00000000E+00
  0.00000000E+00  0.00000000E+00  0.00000000E+00  0.00000000E+00  0.00000000E+00
  0.00000000E+00  0.00000000E+00  0.00000000E+00  1.00000000E+00  1.00000000E+00
MxBond                                     I                4
NBond                                      I   N=          12
           2           2           1           4           4           3
           1           1           1           1           1           1
IBond                                      I   N=          48
           4          11           0           0           6          12
           0           0           6           0           0           0
           1           5           6           7           4           8
           9          10           2           3           4           0
           4           0           0           0           5           0
           0           0           5           0           0           0
           5           0           0           0           1           0
           0           0           2           0           0           0
RBond                                      R   N=          48
  1.00000000E+00  1.00000000E+00  0.00000000E+00  0.00000000E+00  1.50000000E+00
  1.00000000E+00  0.00000000E+00  0.00000000E+00  2.00000000E+00  0.00000000E+00
  0.00000000E+00  0.00000000E+00  1.00000000E+00  1.00000000E+00  1.00000000E+00
  1.00000000E+00  1.00000000E+00  1.00000000E+00  1.00000000E+00  1.00000000E+00
  1.50000000E+00  2.00000000E+00  1.00000000E+00  0.00000000E+00  1.00000000E+00
  0.00000000E+00  0.00000000E+00  0.00000000E+00  1.00000000E+00  0.00000000E+00
  0.00000000E+00  0.00000000E+00  1.00000000E+00  0.00000000E+00  0.00000000E+00
  0.00000000E+00  1.00000000E+00  0.00000000E+00  0.00000000E+00  0.00000000E+00
  1.00000000E+00  0.00000000E+00  0.00000000E+00  0.00000000E+00  1.00000000E+00
  0.00000000E+00  0.00000000E+00  0.00000000E+00
Virial Ratio                               R      2.002987925099228E+00
SCF Energy                                 R     -3.416831258732439E+02
MP2 Energy                                 R     -3.426051616012157E+02
Total Energy                               R     -3.426051616012157E+02
Post-SCF wavefunction norm                 R      1.596454657302772E+00
RMS Force                                  R      9.421636456516473E-07
RMS Density                                R      2.378319677379783E-09
External E-field                           R   N=          35
  0.00000000E+00  0.00000000E+00  0.00000000E+00  0.00000000E+00  0.00000000E+00
  0.00000000E+00  0.00000000E+00  0.00000000E+00  0.00000000E+00  0.00000000E+00
  0.00000000E+00  0.00000000E+00  0.00000000E+00  0.00000000E+00  0.00000000E+00
  0.00000000E+00  0.00000000E+00  0.00000000E+00  0.00000000E+00  0.00000000E+00
  0.00000000E+00  0.00000000E+00  0.00000000E+00  0.00000000E+00  0.00000000E+00
  0.00000000E+00  0.00000000E+00  0.00000000E+00  0.00000000E+00  0.00000000E+00
  0.00000000E+00  0.00000000E+00  0.00000000E+00  0.00000000E+00  0.00000000E+00
IOpCl                                      I                0
IROHF                                      I                0
Alpha Orbital Energies                     R   N=         102
 -2.06234939E+01 -2.05768635E+01 -2.05605222E+01 -1.13916514E+01 -1.13109370E+01
 -1.12396787E+01 -1.46042959E+00 -1.37602988E+00 -1.35309360E+00 -1.05343378E+00
 -9.19650693E-01 -7.98981120E-01 -7.26059075E-01 -6.97649646E-01 -6.55019694E-01
 -6.50463429E-01 -6.12646173E-01 -5.97078821E-01 -5.59568504E-01 -5.54632010E-01
 -5.18205501E-01 -4.78504859E-01 -4.57371998E-01 -4.44989355E-01  1.73682425E-01
  2.09510514E-01  2.22221613E-01  2.80089856E-01  2.87640758E-01  3.08806554E-01
  3.15978923E-01  3.69208959E-01  4.01883505E-01  4.54088719E-01  5.02348782E-01
  5.68209593E-01  7.17573806E-01  7.45391608E-01  7.68924763E-01  7.87617320E-01
  8.45729934E-01  8.64500016E-01  9.08227777E-01  9.40354538E-01  9.74578102E-01
  1.01848443E+00  1.04761080E+00  1.06255413E+00  1.11957505E+00  1.13305638E+00
  1.15467449E+00  1.17530362E+00  1.19645746E+00  1.20764372E+00  1.23699333E+00
  1.24899214E+00  1.27621697E+00  1.32251102E+00  1.34336049E+00  1.36059988E+00
  1.50431944E+00  1.51203098E+00  1.59931429E+00  1.65850566E+00  1.70880041E+00
  1.76556056E+00  1.82640832E+00  1.90367250E+00  1.95662522E+00  1.99955352E+00
  2.03132252E+00  2.05349392E+00  2.08366523E+00  2.09472397E+00  2.12874002E+00
  2.17044912E+00  2.23957055E+00  2.27066650E+00  2.32687624E+00  2.38609144E+00
  2.43603054E+00  2.45892605E+00  2.52744790E+00  2.60559719E+00  2.65950015E+00
  2.71249025E+00  2.77337215E+00  2.80753348E+00  2.85330308E+00  2.96508012E+00
  3.01416830E+00  3.10077588E+00  3.12291766E+00  3.25876037E+00  3.36966317E+00
  3.46338294E+00  4.13802969E+00  4.33581310E+00  4.49626099E+00  4.67132680E+00
  4.73990476E+00  4.99617875E+00
Alpha MO coefficients                      R   N=       10404
  3.56154680E-05  7.54628222E-05 -1.16278687E-06  6.13425120E-06  1.09791079E-07
 -4.74488008E-04  7.52136040E-05 -1.43519316E-04  1.95620604E-06  3.65708695E-05
  3.61015956E-05  4.31877080E-05  1.31301183E-05  4.24005660E-06 -2.74440875E-06
  9.94639776E-01  2.11912577E-02 -3.65823466E-04 -1.04678325E-03  6.01129445E-04
  3.94359540E-03  2.97610088E-04  5.16532937E-04 -3.09643345E-04 -4.15092660E-03
 -4.06282307E-03 -3.97678508E-03  3.87942504E-05  3.20536247E-05  6.33821566E-05
 -2.73397709E-04  2.18106162E-05  1.82608878E-05 -3.37680858E-05  1.63468943E-05
 -2.20472779E-04  6.46507554E-05 -8.59541321E-05  1.78712442E-05  4.05314058E-05
 -5.18690541E-05 -9.00534563E-06  3.41383248E-05 -2.99570573E-05  1.72609753E-05
 -9.19693476E-06 -1.04804588E-05  6.67524182E-06  8.95689802E-06 -5.30711147E-06
  6.75540084E-04  8.46213909E-05 -3.47467041E-04  1.92164599E-04 -7.21893935E-05
  1.06285224E-05 -3.17987673E-05  1.67994936E-05  3.15177824E-06 -5.37627534E-06
  8.07836864E-07  5.12890212E-07 -2.38395304E-05 -1.36375188E-05  7.48182097E-06
  4.03211431E-05  3.38463417E-05  2.28183503E-04 -6.42663911E-05  1.89224429E-05
 -2.22746772E-05  5.54576830E-06 -3.18478538E-06  5.93522465E-07 -7.31170445E-06
 -5.54054280E-06  3.69788464E-04 -1.85355161E-04  2.44686313E-04 -9.03978179E-05
 -1.65489308E-04 -4.27725060E-04 -1.16688046E-04  1.57968044E-04 -3.14554883E-05
 -5.79750946E-05 -5.28482878E-05  3.25746866E-05 -2.29300289E-05 -7.10615602E-06
  4.30449030E-05 -4.36562789E-05  1.36597844E-05  5.50219000E-05  4.05371589E-05
 -2.31981614E-04 -1.49242402E-05 -5.38850269E-05  1.32305301E-05 -1.10385200E-05
  4.38454074E-04 -2.59283536E-04  9.94664422E-01  2.11875044E-02  5.62028212E-04
  1.16225502E-03 -4.01761766E-04  3.64821784E-03 -3.19406954E-04 -6.67602199E-04
  1.98398272E-04 -4.11808588E-03 -4.11339426E-03 -3.85440761E-03  8.80872647E-05
  5.24357324E-05  5.43637431E-05 -5.86125199E-07  9.61036920E-05  9.18497069E-06
 -9.15603732E-06  4.23505835E-06 -5.98181655E-04 -1.43563813E-04  1.35117117E-04
 -4.44390957E-05  4.11054537E-05  5.74740019E-05  6.02149445E-05  1.59900881E-05
 -5.82736036E-06 -2.38273532E-06 -1.01293875E-04 -2.94511693E-05  2.48476874E-05
 -1.04405134E-05 -3.32636581E-06  3.46543014E-04  1.87634610E-05  7.38114810E-05
 -2.94287626E-05 -1.74161383E-05  2.99723720E-06  1.45000143E-05  7.67415078E-06
  1.02970188E-05  8.34824738E-06 -3.46514954E-05  1.85485279E-04  1.56549841E-04
 -3.12153874E-04  3.19807116E-05  4.55705720E-04  3.74596042E-04  2.20121243E-05
  1.47524855E-04 -4.36340026E-05  1.00143070E-05 -8.02947981E-05 -3.99991909E-05
  1.17120044E-05 -4.66066364E-06  5.26314215E-06  7.11218871E-05 -9.26107215E-06
  4.67025428E-05  1.69306568E-05 -3.54282099E-04  5.95003303E-05  1.40941593E-04
  1.00316264E-04 -1.96113067E-06 -5.79037680E-05 -1.44378265E-05  2.71779082E-06
  7.58565768E-06 -2.23409511E-05  1.56999979E-06  3.74023542E-05 -1.69253945E-05
 -1.52729595E-05  2.33466939E-06  1.26578687E-04 -1.36345271E-04  6.15371654E-04
 -2.73473954E-04 -4.73196514E-05  2.72804235E-06 -7.48769013E-06 -4.48629410E-06
  1.65294689E-05 -4.76526085E-06 -3.33626938E-05 -5.99370760E-05  2.28156887E-05
 -2.00458573E-05  2.04813809E-05  4.17309623E-06  4.55228591E-06  5.28469833E-06
  4.40138204E-04 -2.24908270E-04  1.48024007E-05 -3.28989149E-05  1.08811926E-04
  4.41363768E-05 -1.46132160E-05 -7.86182129E-07  6.26822411E-06 -1.83949029E-04
  5.84246738E-05 -4.86151215E-05 -1.58796401E-05  2.76856239E-05  1.57715206E-05
  4.16675840E-05  3.42780078E-07  8.72012429E-06  6.48860331E-06  2.72176264E-04
 -3.88194623E-05  4.47890944E-06  3.31004067E-05 -1.83705034E-05  1.23594111E-04
  2.00467423E-05 -6.55252529E-05  2.82582517E-05  4.92903195E-05 -7.14333613E-05
 -7.39580976E-05 -5.46448589E-05  1.07304508E-06  1.47672144E-05  9.94696225E-01
  2.09849513E-02  5.22054016E-04  1.32902229E-03 -7.53229392E-04  4.52150765E-03
 -9.42220742E-06 -3.45308217E-06 -8.37178866E-06 -3.87320215E-03 -3.71889887E-03
 -4.00576024E-03  9.71970183E-05 -1.06585597E-04 -2.57969821E-04 -1.12828705E-06
 -1.66782962E-05  1.24234284E-06  1.13631287E-05 -8.45772783E-06 -4.33944554E-08
  1.40655196E-04 -3.76935907E-05  3.74053479E-05  3.98428050E-05 -1.14997944E-05
 -1.98489262E-05 -5.11894354E-05  1.43852296E-05  1.45652643E-05  5.26883467E-06
  2.01967159E-05 -1.32831949E-05 -4.40918089E-06  4.14154609E-07 -1.12146341E-04
  7.42119909E-05  5.98363670E-05 -1.70540138E-06  5.13901010E-06  6.18144893E-06
  1.33106765E-05 -4.38018841E-07 -3.96634879E-06 -1.59975070E-06 -7.02672630E-06
  4.75332487E-04  2.51393163E-05  6.60785043E-05 -4.34853545E-05 -3.71874430E-04
  3.17243027E-04  4.01042804E-04 -2.41062290E-04 -1.59870796E-04 -5.82362236E-04
 -2.16795563E-04 -2.56874109E-04  1.54104075E-04  3.64200829E-04  9.78873196E-06
 -2.99226972E-05  1.04987647E-05  2.59144872E-05  1.32225407E-05 -6.42053421E-06
 -2.11915155E-06 -3.81364471E-05 -4.32540349E-06 -1.60656105E-05 -1.70260752E-05
 -1.22712943E-05 -1.65867112E-05 -1.43852259E-04  5.23020736E-05 -1.49193854E-05
 -2.62924554E-05  3.76068809E-04 -2.12012889E-04  2.05856527E-04  1.60572750E-04
  1.84465899E-05 -1.20708904E-05 -1.21762425E-04 -2.61012647E-05 -5.50572431E-05
  1.67115220E-06 -1.13826388E-04  4.83542825E-04 -1.22180611E-05 -1.37866338E-04
  8.07637279E-05 -5.12171883E-04  1.95770349E-04  1.35488984E-03 -6.91803026E-04
 -1.03090692E-04 -4.35460177E-04  2.84463888E-04  4.36750306E-04 -9.78278725E-05
  3.87379859E-04 -2.75845603E-04  7.16849374E-04  5.37346925E-05  2.54723625E-04
 -1.63354884E-04 -3.89720858E-03  3.17007222E-05 -1.71793563E-03  9.87216157E-04
  3.28652798E-04  1.08317868E-04  3.33918270E-04  1.02084306E-04 -1.38856124E-05
  1.87693895E-04  3.78953208E-03  2.85192844E-04 -1.25231655E-05  1.82743373E-05
  2.42874021E-05  3.24883759E-03 -2.50058002E-03 -3.51246487E-04 -4.33685154E-04
 -4.04308178E-04 -2.41744640E-04 -1.33777186E-04 -4.97970296E-05  8.16855161E-05
 -1.97261573E-05 -1.03999619E-04 -4.20488192E-04  1.74571408E-04  5.86626780E-05
 -2.96226234E-05  1.55400860E-03 -1.10737052E-03 -7.51158815E-04  5.14431004E-05
 -4.76554756E-05 -4.90762325E-05 -1.16403099E-04  6.93526600E-05  2.01192298E-05
  4.22375479E-05  9.95910600E-01  2.61129265E-02 -7.76848563E-04  5.25987798E-04
 -1.56422310E-05 -6.66228287E-03 -4.11889557E-03 -2.54365926E-03  1.80507780E-03
 -1.20867097E-03 -7.99450384E-04 -1.83870496E-03  6.00504478E-05 -2.22323725E-04
 -8.17540873E-04 -2.05776445E-04  1.84841347E-05 -1.89654858E-04 -2.23014669E-04
 -1.32588973E-04 -1.06977370E-04  1.81148031E-05  6.07716540E-04  3.82555913E-05
  2.00483045E-04  2.80133554E-04  8.96191394E-05 -1.92670892E-04 -8.97307456E-05
 -7.21293403E-05  1.05055235E-04 -3.32642334E-05  3.09048125E-03 -1.55449754E-04
  4.76609911E-04  2.01020779E-04 -3.65215774E-04 -6.46226351E-04 -4.05231436E-05
  3.72101834E-04 -7.14760851E-05  1.34953303E-04 -9.38196899E-05 -5.42623564E-04
 -1.28131236E-04  7.58732976E-05  1.27494509E-06  2.39146634E-03  7.66095630E-04
 -7.68120761E-04  1.94981016E-04 -1.40370353E-04 -2.12589333E-04 -3.80717190E-04
 -8.66046682E-05  1.30904109E-06 -9.32327690E-05 -9.94117758E-06 -9.20980284E-05
 -2.44101958E-05 -2.76044080E-05  4.35565340E-06 -2.06689714E-04 -5.41541585E-04
  3.03550182E-04 -3.54866548E-05 -5.32446583E-05  5.75886873E-05 -1.25737634E-04
 -3.95747185E-05  1.72592307E-05 -1.30789794E-04  9.96035197E-01  2.81944625E-02
  7.06845850E-06 -5.81172332E-04  3.26862590E-04 -1.93937838E-02  1.14929907E-03
 -6.02249871E-05 -2.29173072E-03 -1.24566505E-03 -1.19431588E-03 -1.22964054E-03
 -1.26805405E-04  1.40913072E-05 -3.79053954E-05  4.06596006E-03 -4.01581376E-05
 -1.12748304E-04 -9.13332193E-05 -9.85771819E-05  5.47488641E-03 -9.77419459E-04
 -2.15548939E-03 -1.03686962E-03 -1.80654965E-04 -2.38926371E-04 -2.83194321E-04
 -3.16849967E-05 -4.86620663E-05 -1.79975583E-04 -4.09265856E-03 -1.43886623E-05
  1.96290422E-04  3.98916781E-05  8.18229641E-07  4.24447921E-03  3.82424703E-03
 -1.12659260E-03  8.09625600E-05 -4.83408377E-04 -2.63665972E-04 -1.79321290E-04
  2.90317892E-05  1.35406070E-04  6.37270028E-05  2.47336826E-04  2.34980082E-03
 -2.62250322E-04 -1.88902893E-04 -1.52399295E-04  1.08255033E-04 -1.87966094E-04
 -6.59951969E-05 -3.04324704E-05  1.20993339E-04 -1.34871923E-05  4.46611622E-04
 -6.42424200E-05 -3.30720253E-04  2.69108787E-06 -9.18355825E-05 -3.44578894E-05
  1.23065045E-03 -1.05446206E-04  3.83963276E-04  3.38283754E-05 -2.04538884E-04
 -1.12261367E-04 -2.47469001E-04 -2.66974597E-05  5.55775490E-05  7.36513915E-05
  2.30762847E-05  1.14916947E-04  1.45764167E-06 -3.67385711E-07 -2.19755459E-05
 -7.25737038E-04 -2.92027728E-04  6.09065378E-05 -1.08066293E-05  1.50170962E-05
  9.86389916E-05  4.83409105E-05  2.36285406E-05  1.01502095E-05 -1.25340223E-05
  1.84708003E-05  8.14387635E-05  4.37703898E-05  2.97316631E-05  1.41446403E-05
 -3.23546169E-04 -2.47393929E-04 -1.74438399E-04 -5.78891869E-05  4.93058018E-05
  5.25401065E-05  7.31673792E-05 -4.23392310E-05  1.41825681E-06 -4.60161565E-06
 -4.36110196E-03  2.18237687E-04  3.64871013E-05  9.66460637E-05  2.24484203E-05
  1.78098091E-03  1.10953366E-03  1.63060918E-03  5.71404726E-04 -2.56162757E-04
 -3.29534637E-04 -2.07657300E-04 -7.64161913E-05 -9.59691698E-05 -1.83303400E-04
  9.95729323E-01  2.85681371E-02 -9.71878146E-05 -1.78786583E-04 -1.36792472E-04
 -1.49169979E-02  4.53802342E-04  5.49915430E-04  3.94930908E-04 -1.83118095E-03
 -1.80662025E-03 -1.84968122E-03 -2.34594227E-05 -2.20386991E-05 -3.14998706E-05