opt=(Tight,CalcAll)                                                     
Freq      RMP2-FC                                                     6-31G(d)            
Number of atoms                            I               10
Info1-9                                    I   N=           9
          19          19        1002           0           0         100
           6           2           1
Charge                                     I                0
Multiplicity                               I                1
Number of electrons                        I               40
Number of alpha electrons                  I               20
Number of beta electrons                   I               20
Number of basis functions                  I               85
Number of independent functions            I               85
Number of point charges in /Mol/           I                0
Number of translation vectors              I                0
Atomic numbers                             I   N=          10
           8           8           7           6           6           1
           1           1           1           1
Nuclear charges                            R   N=          10
  8.00000000E+00  8.00000000E+00  7.00000000E+00  6.00000000E+00  6.00000000E+00
  1.00000000E+00  1.00000000E+00  1.00000000E+00  1.00000000E+00  1.00000000E+00
Current cartesian coordinates              R   N=          30
 -3.64739311E-01  6.68931549E-01 -9.51167263E-01 -4.17214958E+00 -5.69430835E-01
 -1.83789017E-01 -2.20538668E+00 -8.93589769E-02  8.41161771E-01  2.00073433E+00
  1.13374392E+00  3.41180460E-01  3.78360804E+00 -1.07176927E+00 -4.83566987E-02
  2.73993981E+00  2.87977534E+00 -4.76230671E-01  1.59416139E+00  1.45078579E+00
  2.34356426E+00  5.61762977E+00 -6.74611710E-01  8.20215658E-01  3.00542528E+00
 -2.78082380E+00  8.09825819E-01  4.06960741E+00 -1.41746639E+00 -2.06279979E+00
Force Field                                I                0
Int Atom Types                             I   N=          10
           0           0           0           0           0           0
           0           0           0           0
MM charges                                 R   N=          10
  0.00000000E+00  0.00000000E+00  0.00000000E+00  0.00000000E+00  0.00000000E+00
  0.00000000E+00  0.00000000E+00  0.00000000E+00  0.00000000E+00  0.00000000E+00
Integer atomic weights                     I   N=          10
          16          16          14          12          12           1
           1           1           1           1
Real atomic weights                        R   N=          10
  1.59949146E+01  1.59949146E+01  1.40030740E+01  1.20000000E+01  1.20000000E+01
  1.00782504E+00  1.00782504E+00  1.00782504E+00  1.00782504E+00  1.00782504E+00
Atom fragment info                         I   N=          10
           0           0           0           0           0           0
           0           0           0           0
Atom residue num                           I   N=          10
           0           0           0           0           0           0
           0           0           0           0
Nuclear spins                              I   N=          10
           0           0           2           0           0           1
           1           1           1           1
Nuclear ZEff                               R   N=          10
 -5.60000000E+00 -5.60000000E+00 -4.55000000E+00 -3.60000000E+00 -3.60000000E+00
 -1.00000000E+00 -1.00000000E+00 -1.00000000E+00 -1.00000000E+00 -1.00000000E+00
Nuclear QMom                               R   N=          10
  0.00000000E+00  0.00000000E+00  2.04400000E+00  0.00000000E+00  0.00000000E+00
  0.00000000E+00  0.00000000E+00  0.00000000E+00  0.00000000E+00  0.00000000E+00
Nuclear GFac                               R   N=          10
  0.00000000E+00  0.00000000E+00  4.03761000E-01  0.00000000E+00  0.00000000E+00
  2.79284600E+00  2.79284600E+00  2.79284600E+00  2.79284600E+00  2.79284600E+00
MicOpt                                     I   N=          10
          -1          -1          -1          -1          -1          -1
          -1          -1          -1          -1
Number of contracted shells                I               30
Number of primitive shells                 I               75
Pure/Cartesian d shells                    I                1
Pure/Cartesian f shells                    I                0
Highest angular momentum                   I                2
Largest degree of contraction              I                6
Shell types                                I   N=          30
           0          -1          -1           2           0          -1
          -1           2           0          -1          -1           2
           0          -1          -1           2           0          -1
          -1           2           0           0           0           0
           0           0           0           0           0           0
Number of primitives per shell             I   N=          30
           6           3           1           1           6           3
           1           1           6           3           1           1
           6           3           1           1           6           3
           1           1           3           1           3           1
           3           1           3           1           3           1
Shell to atom map                          I   N=          30
           1           1           1           1           2           2
           2           2           3           3           3           3
           4           4           4           4           5           5
           5           5           6           6           7           7
           8           8           9           9          10          10
Primitive exponents                        R   N=          75
  5.48467166E+03  8.25234946E+02  1.88046958E+02  5.29645000E+01  1.68975704E+01
  5.79963534E+00  1.55396162E+01  3.59993359E+00  1.01376175E+00  2.70005823E-01
  8.00000000E-01  5.48467166E+03  8.25234946E+02  1.88046958E+02  5.29645000E+01
  1.68975704E+01  5.79963534E+00  1.55396162E+01  3.59993359E+00  1.01376175E+00
  2.70005823E-01  8.00000000E-01  4.17351146E+03  6.27457911E+02  1.42902093E+02
  4.02343293E+01  1.28202129E+01  4.39043701E+00  1.16263619E+01  2.71627981E+00
  7.72218397E-01  2.12031498E-01  8.00000000E-01  3.04752488E+03  4.57369518E+02
  1.03948685E+02  2.92101553E+01  9.28666296E+00  3.16392696E+00  7.86827235E+00
  1.88128854E+00  5.44249258E-01  1.68714478E-01  8.00000000E-01  3.04752488E+03
  4.57369518E+02  1.03948685E+02  2.92101553E+01  9.28666296E+00  3.16392696E+00
  7.86827235E+00  1.88128854E+00  5.44249258E-01  1.68714478E-01  8.00000000E-01
  1.87311370E+01  2.82539436E+00  6.40121692E-01  1.61277759E-01  1.87311370E+01
  2.82539436E+00  6.40121692E-01  1.61277759E-01  1.87311370E+01  2.82539436E+00
  6.40121692E-01  1.61277759E-01  1.87311370E+01  2.82539436E+00  6.40121692E-01
  1.61277759E-01  1.87311370E+01  2.82539436E+00  6.40121692E-01  1.61277759E-01
Contraction coefficients                   R   N=          75
  1.83107443E-03  1.39501722E-02  6.84450781E-02  2.32714336E-01  4.70192898E-01
  3.58520853E-01 -1.10777550E-01 -1.48026263E-01  1.13076702E+00  1.00000000E+00
  1.00000000E+00  1.83107443E-03  1.39501722E-02  6.84450781E-02  2.32714336E-01
  4.70192898E-01  3.58520853E-01 -1.10777550E-01 -1.48026263E-01  1.13076702E+00
  1.00000000E+00  1.00000000E+00  1.83477216E-03  1.39946270E-02  6.85865518E-02
  2.32240873E-01  4.69069948E-01  3.60455199E-01 -1.14961182E-01 -1.69117479E-01
  1.14585195E+00  1.00000000E+00  1.00000000E+00  1.83473713E-03  1.40373228E-02
  6.88426223E-02  2.32184443E-01  4.67941348E-01  3.62311985E-01 -1.19332420E-01
 -1.60854152E-01  1.14345644E+00  1.00000000E+00  1.00000000E+00  1.83473713E-03
  1.40373228E-02  6.88426223E-02  2.32184443E-01  4.67941348E-01  3.62311985E-01
 -1.19332420E-01 -1.60854152E-01  1.14345644E+00  1.00000000E+00  1.00000000E+00
  3.34946043E-02  2.34726953E-01  8.13757326E-01  1.00000000E+00  3.34946043E-02
  2.34726953E-01  8.13757326E-01  1.00000000E+00  3.34946043E-02  2.34726953E-01
  8.13757326E-01  1.00000000E+00  3.34946043E-02  2.34726953E-01  8.13757326E-01
  1.00000000E+00  3.34946043E-02  2.34726953E-01  8.13757326E-01  1.00000000E+00
P(S=P) Contraction coefficients            R   N=          75
  0.00000000E+00  0.00000000E+00  0.00000000E+00  0.00000000E+00  0.00000000E+00
  0.00000000E+00  7.08742682E-02  3.39752839E-01  7.27158577E-01  1.00000000E+00
  0.00000000E+00  0.00000000E+00  0.00000000E+00  0.00000000E+00  0.00000000E+00
  0.00000000E+00  0.00000000E+00  7.08742682E-02  3.39752839E-01  7.27158577E-01
  1.00000000E+00  0.00000000E+00  0.00000000E+00  0.00000000E+00  0.00000000E+00
  0.00000000E+00  0.00000000E+00  0.00000000E+00  6.75797439E-02  3.23907296E-01
  7.40895140E-01  1.00000000E+00  0.00000000E+00  0.00000000E+00  0.00000000E+00
  0.00000000E+00  0.00000000E+00  0.00000000E+00  0.00000000E+00  6.89990666E-02
  3.16423961E-01  7.44308291E-01  1.00000000E+00  0.00000000E+00  0.00000000E+00
  0.00000000E+00  0.00000000E+00  0.00000000E+00  0.00000000E+00  0.00000000E+00
  6.89990666E-02  3.16423961E-01  7.44308291E-01  1.00000000E+00  0.00000000E+00
  0.00000000E+00  0.00000000E+00  0.00000000E+00  0.00000000E+00  0.00000000E+00
  0.00000000E+00  0.00000000E+00  0.00000000E+00  0.00000000E+00  0.00000000E+00
  0.00000000E+00  0.00000000E+00  0.00000000E+00  0.00000000E+00  0.00000000E+00
  0.00000000E+00  0.00000000E+00  0.00000000E+00  0.00000000E+00  0.00000000E+00
Coordinates of each shell                  R   N=          90
 -3.64739311E-01  6.68931549E-01 -9.51167263E-01 -3.64739311E-01  6.68931549E-01
 -9.51167263E-01 -3.64739311E-01  6.68931549E-01 -9.51167263E-01 -3.64739311E-01
  6.68931549E-01 -9.51167263E-01 -4.17214958E+00 -5.69430835E-01 -1.83789017E-01
 -4.17214958E+00 -5.69430835E-01 -1.83789017E-01 -4.17214958E+00 -5.69430835E-01
 -1.83789017E-01 -4.17214958E+00 -5.69430835E-01 -1.83789017E-01 -2.20538668E+00
 -8.93589769E-02  8.41161771E-01 -2.20538668E+00 -8.93589769E-02  8.41161771E-01
 -2.20538668E+00 -8.93589769E-02  8.41161771E-01 -2.20538668E+00 -8.93589769E-02
  8.41161771E-01  2.00073433E+00  1.13374392E+00  3.41180460E-01  2.00073433E+00
  1.13374392E+00  3.41180460E-01  2.00073433E+00  1.13374392E+00  3.41180460E-01
  2.00073433E+00  1.13374392E+00  3.41180460E-01  3.78360804E+00 -1.07176927E+00
 -4.83566987E-02  3.78360804E+00 -1.07176927E+00 -4.83566987E-02  3.78360804E+00
 -1.07176927E+00 -4.83566987E-02  3.78360804E+00 -1.07176927E+00 -4.83566987E-02
  2.73993981E+00  2.87977534E+00 -4.76230671E-01  2.73993981E+00  2.87977534E+00
 -4.76230671E-01  1.59416139E+00  1.45078579E+00  2.34356426E+00  1.59416139E+00
  1.45078579E+00  2.34356426E+00  5.61762977E+00 -6.74611710E-01  8.20215658E-01
  5.61762977E+00 -6.74611710E-01  8.20215658E-01  3.00542528E+00 -2.78082380E+00
  8.09825819E-01  3.00542528E+00 -2.78082380E+00  8.09825819E-01  4.06960741E+00
 -1.41746639E+00 -2.06279979E+00  4.06960741E+00 -1.41746639E+00 -2.06279979E+00
Constraint Structure                       R   N=          30
 -3.64739311E-01  6.68931549E-01 -9.51167263E-01 -4.17214958E+00 -5.69430835E-01
 -1.83789017E-01 -2.20538668E+00 -8.93589769E-02  8.41161771E-01  2.00073433E+00
  1.13374392E+00  3.41180460E-01  3.78360804E+00 -1.07176927E+00 -4.83566987E-02
  2.73993981E+00  2.87977534E+00 -4.76230671E-01  1.59416139E+00  1.45078579E+00
  2.34356426E+00  5.61762977E+00 -6.74611710E-01  8.20215658E-01  3.00542528E+00
 -2.78082380E+00  8.09825819E-01  4.06960741E+00 -1.41746639E+00 -2.06279979E+00
Num ILSW                                   I              100
ILSW                                       I   N=         100
           0           1           0           0           2           0
           0           0           0           0           0          -1
           0           0           0           0           0           0
           0           0           0           0           1           0
           1           0           0           0           0           0
           0           0      100000           0          -1           0
           0           0           0           0           0           0
           0           0           0           1           1           0
           0           0           1           0           0           0
           0           0           4          40           0           0
           0           0           0           0           0           0
           0           0           0           0           0           0
           0           0           0           0           0           0
           0           0           0           0           0           0
           0           0           0           0           0           0
           0           0           0           0           0           0
           0           0           0           0
Num RLSW                                   I               40
RLSW                                       R   N=          40
  1.00000000E+00  1.00000000E+00  1.00000000E+00  1.00000000E+00  1.00000000E+00
  0.00000000E+00  0.00000000E+00  1.00000000E+00  0.00000000E+00  0.00000000E+00
  0.00000000E+00  0.00000000E+00  1.00000000E+00  0.00000000E+00  0.00000000E+00
  0.00000000E+00  0.00000000E+00  1.00000000E+00  0.00000000E+00  0.00000000E+00
  0.00000000E+00  0.00000000E+00  1.00000000E+00  0.00000000E+00  0.00000000E+00
  0.00000000E+00  0.00000000E+00  1.00000000E+00  0.00000000E+00  0.00000000E+00
  0.00000000E+00  0.00000000E+00  0.00000000E+00  0.00000000E+00  0.00000000E+00
  0.00000000E+00  0.00000000E+00  0.00000000E+00  1.00000000E+00  1.00000000E+00
MxBond                                     I                4
NBond                                      I   N=          10
           2           1           2           4           4           1
           1           1           1           1
IBond                                      I   N=          40
           3           4           0           0           3           0
           0           0           1           2           0           0
           1           5           6           7           4           8
           9          10           4           0           0           0
           4           0           0           0           5           0
           0           0           5           0           0           0
           5           0           0           0
RBond                                      R   N=          40
  1.00000000E+00  1.00000000E+00  0.00000000E+00  0.00000000E+00  2.00000000E+00
  0.00000000E+00  0.00000000E+00  0.00000000E+00  1.00000000E+00  2.00000000E+00
  0.00000000E+00  0.00000000E+00  1.00000000E+00  1.00000000E+00  1.00000000E+00
  1.00000000E+00  1.00000000E+00  1.00000000E+00  1.00000000E+00  1.00000000E+00
  1.00000000E+00  0.00000000E+00  0.00000000E+00  0.00000000E+00  1.00000000E+00
  0.00000000E+00  0.00000000E+00  0.00000000E+00  1.00000000E+00  0.00000000E+00
  0.00000000E+00  0.00000000E+00  1.00000000E+00  0.00000000E+00  0.00000000E+00
  0.00000000E+00  1.00000000E+00  0.00000000E+00  0.00000000E+00  0.00000000E+00
Virial Ratio                               R      2.003629982420552E+00
SCF Energy                                 R     -2.826964971351544E+02
MP2 Energy                                 R     -2.834936621130187E+02
Total Energy                               R     -2.834936621130187E+02
Post-SCF wavefunction norm                 R      1.583682367528011E+00
RMS Force                                  R      1.121676120945784E-07
RMS Density                                R      1.864415919091405E-09
External E-field                           R   N=          35
  0.00000000E+00  0.00000000E+00  0.00000000E+00  0.00000000E+00  0.00000000E+00
  0.00000000E+00  0.00000000E+00  0.00000000E+00  0.00000000E+00  0.00000000E+00
  0.00000000E+00  0.00000000E+00  0.00000000E+00  0.00000000E+00  0.00000000E+00
  0.00000000E+00  0.00000000E+00  0.00000000E+00  0.00000000E+00  0.00000000E+00
  0.00000000E+00  0.00000000E+00  0.00000000E+00  0.00000000E+00  0.00000000E+00
  0.00000000E+00  0.00000000E+00  0.00000000E+00  0.00000000E+00  0.00000000E+00
  0.00000000E+00  0.00000000E+00  0.00000000E+00  0.00000000E+00  0.00000000E+00
IOpCl                                      I                0
IROHF                                      I                0
Alpha Orbital Energies                     R   N=          85
 -2.06574204E+01 -2.06329357E+01 -1.57926196E+01 -1.13017011E+01 -1.12341084E+01
 -1.57184522E+00 -1.39258969E+00 -1.04739918E+00 -9.37000037E-01 -8.57118173E-01
 -7.36530647E-01 -7.13913043E-01 -6.74200148E-01 -6.24395306E-01 -5.96133023E-01
 -5.71619943E-01 -5.40842768E-01 -5.17469369E-01 -4.65869416E-01 -4.45742549E-01
  1.00096102E-01  2.35899402E-01  2.77919921E-01  2.81775307E-01  3.00574033E-01
  3.10256826E-01  3.30626581E-01  3.86345582E-01  3.98359484E-01  5.35362697E-01
  6.93715140E-01  7.23722777E-01  7.65781831E-01  7.91201753E-01  8.38406066E-01
  8.66928853E-01  8.98040984E-01  9.07749599E-01  9.56647220E-01  1.01603383E+00
  1.08755772E+00  1.10874955E+00  1.13525020E+00  1.15220483E+00  1.15926257E+00
  1.17939171E+00  1.21529256E+00  1.22898635E+00  1.25018413E+00  1.28469644E+00
  1.33904389E+00  1.42326173E+00  1.58045106E+00  1.62271193E+00  1.63794146E+00
  1.69615060E+00  1.77821734E+00  1.82409694E+00  1.93828502E+00  2.04360619E+00
  2.08518107E+00  2.09340515E+00  2.10504251E+00  2.22113125E+00  2.24556264E+00
  2.36337503E+00  2.40559015E+00  2.42915729E+00  2.51193300E+00  2.57208854E+00
  2.62153360E+00  2.70108742E+00  2.74361681E+00  2.78075465E+00  2.88021306E+00
  2.95558582E+00  3.02384312E+00  3.03558073E+00  3.24587717E+00  3.33403135E+00
  3.89609364E+00  4.04982390E+00  4.27544987E+00  4.59081797E+00  4.83017127E+00
Alpha MO coefficients                      R   N=        7225
 -8.18923522E-04 -8.24063234E-05  3.84652511E-05  1.68671728E-05 -3.64194602E-05
  1.27278097E-04  1.31993552E-04  2.43256021E-05  3.69218785E-05 -5.89867515E-05
 -7.20400549E-05 -5.65931343E-06 -3.18559607E-06  3.19426245E-05 -1.24640821E-06
  9.94751295E-01  2.09261656E-02  1.53606456E-03  3.82280508E-04  7.28871577E-04
  4.34426684E-03 -5.39936325E-05 -1.98354278E-05  5.48724450E-05 -3.63069784E-03
 -4.07522403E-03 -3.68685349E-03  1.52680313E-04  1.38193768E-04 -1.10575501E-05
  6.96580461E-05  3.68738712E-04 -3.23111778E-05 -5.42723345E-06 -2.33086141E-05
 -3.82603585E-04  6.50445017E-04  1.74486308E-04  1.55085820E-04 -5.95407406E-04
  1.92086809E-05 -1.21943111E-04 -1.85577184E-04 -3.81618547E-04 -9.30025497E-05
  4.87248554E-06  5.15472328E-05  1.14329379E-05 -4.56356311E-06  8.67708077E-06
 -1.99975103E-04  1.74247604E-04  9.93311039E-05 -1.53040878E-05 -3.84837366E-05
  7.49471006E-06  7.17055913E-06 -1.45645617E-05  5.89913057E-06 -1.88328636E-06
 -5.93507737E-08 -4.81368897E-06 -1.01976913E-05  6.38396937E-06 -4.57140299E-06
  5.11179096E-05 -2.75003438E-05 -3.40375672E-05  4.01050252E-05  9.32436815E-06
 -3.95492005E-06  2.77323950E-06 -6.19584984E-07 -4.30275198E-06 -1.40124929E-06
 -3.74619208E-06 -4.27707289E-05  2.83663208E-05 -2.73472792E-05  5.39343005E-08
 -1.58231257E-05  1.47927463E-06 -4.62596937E-05 -3.09132409E-07  2.02406188E-05
  9.94727752E-01  2.11234118E-02  1.31590627E-04 -1.37786807E-04  1.25812075E-03
  3.31497425E-03  1.13749195E-05  1.03324083E-04 -7.79570421E-04 -4.07851262E-03
 -3.76940149E-03 -3.97682723E-03 -1.16370564E-04  5.13910294E-05  5.57417921E-05
  8.25809206E-04  6.74341759E-05 -3.03961367E-05 -7.21492870E-06 -3.85940128E-06
 -2.74648537E-04 -1.70267202E-04 -6.55028129E-05  8.17129650E-05 -4.06104282E-05
  2.28898112E-05  4.89160012E-05 -2.80722319E-05  1.91745494E-05  3.19303026E-06
  1.60538323E-05  1.73274461E-04  2.12736593E-04  9.09428295E-05 -2.65505849E-04
  2.62226047E-04  8.27238318E-05  5.42112921E-05 -1.71646381E-04  5.67725084E-05
 -1.34974261E-05  6.80430588E-05  3.54816139E-05 -4.82854739E-05 -2.65307665E-05
 -2.01801144E-05  1.72199446E-04 -3.11420097E-04 -6.46728650E-05 -1.90870848E-04
  2.45115789E-04 -1.26841153E-05 -1.22534035E-04  3.09144645E-04  8.75689764E-05
 -3.46964662E-05 -2.07708968E-05  2.19565275E-05  5.18925403E-05  2.56119084E-05
  1.62239109E-06  4.99489055E-05  9.05043794E-06 -1.40119061E-05  7.72979247E-06
 -7.05839873E-05  1.64148056E-04 -9.88463698E-06 -1.06102764E-04 -5.06226186E-05
 -1.24919167E-05 -1.23462556E-05  2.16079614E-05  4.24955445E-06 -2.41689458E-06
  7.74163003E-06  3.77200336E-06 -6.70820344E-05 -1.99851132E-04  1.18934365E-06
 -5.03262708E-05  2.07837584E-05  3.49565498E-05  2.16368505E-05 -1.13241585E-04
 -1.08900839E-04  2.27009815E-04 -1.51377505E-04 -6.61004776E-05  1.95000867E-04
  4.93395456E-04 -1.17753187E-04 -1.72538581E-05 -1.92476966E-04 -2.03105743E-04
  2.66631351E-05 -2.31990662E-04 -1.20191611E-04  2.47934320E-04  1.14622813E-04
 -2.42567176E-04  3.01869000E-04 -8.39948491E-05 -2.63606570E-05  2.03707342E-05
 -6.86853383E-04 -8.29146853E-04 -1.87585124E-04 -6.39952826E-04 -7.57479671E-04
  1.83566791E-04 -4.37924294E-05 -3.02727816E-04 -4.59450300E-04 -1.02023235E-04
  9.95397074E-01  2.31740461E-02 -9.90639797E-04 -3.53506082E-05 -2.44811172E-03
 -2.12434730E-04 -5.65640169E-04 -2.45830429E-04  8.57735258E-04 -2.29446676E-03
 -3.25050379E-03 -2.68394893E-03  3.05047164E-04  4.90733904E-04  6.66310130E-05
 -1.91971411E-05 -1.15814085E-04  2.61617263E-05  1.35463348E-05 -2.23688981E-05
  4.56552751E-04 -2.33874086E-04 -1.28581933E-04  1.81334161E-04  1.00859550E-05
 -4.67163668E-05 -1.19244462E-05  1.75573911E-05 -9.72708794E-06  1.43462998E-06
  4.27811341E-06  1.90936988E-05  5.42812023E-06 -7.31561737E-06  6.31880781E-06
 -1.49205353E-04  8.36596207E-05  5.33343031E-05 -8.86649389E-05 -7.30886433E-06
  1.83984548E-05  4.37137548E-06 -2.17669913E-06  7.33171015E-06 -6.06507225E-07
  1.35679840E-05  4.01804809E-05 -5.20082070E-05 -1.78568004E-04 -1.89338821E-07
  1.68537668E-05  2.77714578E-06  1.01420928E-04  8.85981843E-06 -4.13116996E-05
 -1.18812592E-04  2.66186362E-04  1.44075813E-04  2.73975697E-06  1.57551594E-04
  1.01817179E-03  5.00131126E-04  1.61695759E-04 -6.90409970E-04 -5.38228509E-04
  9.41344355E-05 -2.13799492E-04 -2.07240359E-04 -3.17431748E-04 -4.40266489E-05
 -2.64250517E-05 -1.14220621E-04  2.01020454E-05 -2.35691755E-06 -5.49878906E-05
  9.75939562E-04  1.38612834E-04  6.66682482E-05  4.17404200E-04 -8.62561122E-05
 -7.15554324E-05 -3.54900741E-05  3.08884929E-06  4.25085774E-05  1.26645710E-05
 -4.77019806E-05 -3.15044300E-04 -8.82220504E-05  5.13650713E-06 -7.08048224E-06
  9.26750214E-04  1.66251059E-03  3.54435599E-04 -2.05079885E-04  8.90973836E-05
 -1.66622739E-04 -1.06873569E-04  7.86615193E-05 -1.09777778E-04 -4.40243662E-05
  9.95912534E-01  2.77630044E-02 -9.26464980E-04 -3.16515232E-04 -3.98411399E-04
 -1.51394138E-02 -1.10978533E-04  1.40082504E-03  1.30334595E-04 -1.41954290E-03
 -1.45703960E-03 -1.45143751E-03  3.26765761E-05 -6.82153300E-06 -5.79988139E-05
  4.48515048E-03  3.56652889E-06  3.70880138E-06  4.38993096E-05 -6.22565041E-06
  4.72642561E-03 -1.77312338E-03  1.45348552E-03  3.53877315E-04 -2.56658085E-04
 -3.75590286E-04 -1.83099191E-04  1.60499604E-04  2.61708198E-06 -4.80349730E-05
  1.07044821E-04  2.29304345E-03  3.00506694E-04  2.34601458E-03 -1.30608246E-04
  1.26780052E-04 -2.20688705E-04 -1.51902683E-04 -1.92786369E-04  1.04105859E-04
 -5.13013758E-05 -2.73422681E-04 -7.01300103E-05  5.39845792E-05 -4.39341959E-05
  8.08272966E-04  7.79143092E-05 -1.60547991E-04  2.21697177E-04 -1.11564160E-04
 -1.56148441E-04 -2.07982931E-04 -6.08918057E-05  2.57479815E-05  9.50829169E-06
  8.88213854E-06  3.99780720E-05  8.81198889E-06  4.41400279E-06  8.30384626E-06
 -2.31459181E-04 -4.74309399E-05 -4.15056721E-05 -5.97469760E-05  2.33923118E-05
  2.93373300E-05  2.40697842E-05 -7.95943544E-06  1.85633532E-06 -2.84261510E-06
  7.45482984E-06  5.19489185E-05  3.29302809E-06 -1.02812404E-05  1.16229854E-05
 -2.21762932E-04 -3.38510848E-04  1.66655710E-05  2.99095699E-05 -3.81857430E-05
  3.30933575E-05  3.03959912E-05  2.93553934E-06  8.70190536E-06 -1.03646821E-05
 -4.83486697E-03 -4.92867213E-05  9.19359140E-05  2.40239015E-05  1.73289060E-05
  3.73171539E-03  1.06750434E-03 -1.40207562E-03 -1.64525511E-04 -3.24038315E-04
 -3.83481134E-04 -1.32548494E-04  1.92497652E-04  1.09627442E-05 -7.04908476E-05
  9.95713098E-01  2.85674254E-02 -8.70135403E-05  1.23431068E-04  4.96475034E-05
 -1.51322123E-02  5.96540994E-04 -5.20299132E-04 -1.09083211E-04 -1.86132534E-03
 -1.86814041E-03 -1.85214901E-03  1.53225655E-05  1.07999954E-05 -9.99990161E-07
 -1.31236114E-04  8.43277762E-05 -1.67517907E-04  6.35392538E-05  1.15921018E-04
  2.48309763E-03  1.46772522E-04  2.64061306E-03  1.50714775E-04  2.56036785E-03
 -7.85030699E-02  1.78243203E-01 -3.41151986E-02 -1.62337112E-02  4.40802938E-02
  1.47146920E-01 -6.31270013E-03 -6.14339241E-03  2.82248426E-02  1.12355565E-02
  8.16137008E-04  8.69658382E-03  4.85913645E-03 -8.28453097E-03 -4.05048270E-03
 -1.50883932E-01  3.44560431E-01  1.27883101E-01  3.21387473E-02  5.73858215E-02
  2.67920299E-01  5.31819441E-02  1.33667636E-02  2.58578650E-02  2.23904484E-02
 -4.25561966E-04  1.55081226E-03  6.96710667E-03  1.38175745E-02  3.72351957E-03
 -1.32713159E-01  2.96590075E-01 -1.03235221E-01 -1.89298047E-02 -1.10539322E-01
  1.21140566E-01  5.72509470E-03  2.11820308E-03 -8.96835111E-03  1.96631202E-02
 -1.03546060E-02  4.05451035E-03  9.75718164E-03  1.32221558E-02  1.84221608E-03
 -1.52694786E-02  3.22620914E-02 -2.27467509E-02 -5.44969807E-03 -7.74809692E-03
 -1.15793955E-02  1.18088561E-02  7.58670898E-03 -4.59757708E-03  4.88069078E-03
 -4.02542508E-04  4.12716068E-04  1.56307235E-03  3.17352432E-03  4.81301141E-04
 -2.35963550E-03  3.55036116E-03 -3.56672754E-03  2.57808713E-03 -2.53277858E-04
  7.32208981E-03 -4.89583616E-03 -1.22899452E-03  3.57057076E-03  9.64794795E-04
  1.82698141E-04 -1.19867264E-04 -8.19791039E-04 -3.97928312E-04  2.59827514E-05
  4.14198203E-03 -2.34269220E-03  7.95643549E-03  4.08484999E-03  5.25108952E-04
 -6.80059735E-04  6.11178945E-04 -2.74845313E-03  6.20453307E-04  2.33903743E-03
 -1.80452744E-01  4.05319019E-01  2.59898153E-02 -3.18315678E-03  6.85664224E-02
  4.08245749E-01  1.27457313E-02 -4.68174593E-03  5.36219378E-02  1.24519019E-02
 -2.45095082E-03  1.00830583E-02  4.75634790E-03  8.76175913E-04 -2.18325562E-03
  9.88875991E-02 -2.27412520E-01 -4.44808193E-02 -8.86854440E-03 -4.09296223E-02
 -1.94982642E-01 -2.05960117E-02 -4.05119832E-03 -1.83751774E-02 -6.46209057E-03
  6.60413275E-04 -4.54058352E-03 -1.80668630E-03 -6.99945540E-03 -1.41065041E-03
  1.54811485E-03 -3.61304605E-03  1.73019550E-01  5.35572323E-02 -1.46603212E-02
 -1.06304848E-03  1.98815764E-02  5.69652515E-03  1.48552410E-03 -5.46399653E-03
  1.64977329E-03  8.85373603E-03  1.09859813E-03 -2.92089187E-02 -9.86111184E-03
 -5.96890341E-02  1.11878633E-01 -6.83722465E-02 -1.53949967E-02 -3.28938457E-02
  2.86241249E-02  8.88418179E-03  2.25376347E-03 -1.21834888E-03  1.34787283E-02
 -3.72867346E-03  1.38835252E-03  4.66936111E-03  1.07794046E-02  2.02431291E-03
 -1.22033484E-02  2.35831891E-02 -1.53453867E-02  1.13141103E-02 -2.68190135E-04
  1.15092578E-02 -1.51932918E-03  8.18485437E-04  1.93340202E-03  2.64775118E-03
  2.28312881E-03  2.00361673E-04 -2.85835298E-03 -5.07233921E-04  1.85024223E-04
  2.15070383E-02  1.54414818E-03  2.38285031E-02  5.95714850E-03  3.30352321E-03
 -2.83429332E-03  5.37575373E-03  7.39269961E-04  5.14987692E-03  3.13205391E-03
  2.67417370E-02 -5.98742498E-02  1.45354839E-01  2.73408950E-02 -1.32762318E-02
 -8.00490743E-02  6.98172631E-02  1.45844948E-02 -1.13718161E-02  4.91404445E-03
 -7.96126895E-05 -3.79984210E-03 -1.69295809E-03  1.66228749E-02  4.38634414E-03
 -4.83644517E-02  1.10511242E-01 -4.17203294E-02 -1.44093002E-02  7.09120111E-03
  1.39142951E-01 -1.11822179E-02 -4.47646511E-03  3.23977968E-03 -3.82661401E-03
 -5.24316974E-04  1.95817687E-03 -1.33644827E-03 -1.00753132E-03 -6.89590161E-04
  4.76761807E-02 -1.13490885E-01 -8.09178679E-02 -3.18530780E-02  3.72745670E-02
 -1.06812815E-01 -2.23751098E-02 -8.79610281E-03  1.21027074E-02  4.18131014E-03
  1.53651746E-03 -8.47021793E-03 -1.04103901E-03  1.19378218E-02  5.48285559E-03
 -1.32460326E-01  2.55250046E-01  6.15136523E-02 -4.34952766E-02 -9.77127920E-03
  2.15858658E-01  1.21540284E-02 -8.26614951E-03  1.15492603E-02  1.18966088E-03
  9.71733491E-03  3.90141912E-03 -6.33955570E-03 -3.70915931E-03  3.08604592E-04
 -1.37017903E-01  2.55467153E-01 -3.65731106E-02  4.87304908E-02  8.65214180E-03
  2.24779080E-01  7.02773244E-04  9.53355807E-03 -4.97524510E-04  6.66356354E-03
  9.20951191E-03  4.37731354E-03 -4.38845055E-03 -6.56994111E-04  9.26487016E-04
  8.22078308E-02  1.77760524E-02  7.38963357E-02  7.05382417E-03  8.01440733E-02
  1.22572302E-02  7.81670229E-02  1.71577738E-02  7.88942749E-02  1.24656551E-02
 -6.30589383E-02  1.44191310E-01  1.63004872E-01  7.72935806E-02 -9.78604278E-02
  2.12547405E-01  8.41116938E-02  3.82544735E-02 -4.75209930E-02  4.20518350E-03
  1.00592388E-03 -1.12940859E-02 -1.35247136E-03  1.85651394E-02  8.57080441E-03
 -1.03877121E-01  2.41192920E-01 -1.53216539E-01 -3.64700231E-02 -7.14609152E-02
  3.28979295E-01 -6.11084658E-02 -1.41895820E-02 -3.28382685E-02 -1.16370519E-02
  1.94031399E-03  2.15350475E-03 -3.58624787E-03 -1.04396460E-02 -2.96838070E-03
  1.30056913E-01 -3.15819067E-01 -8.16962557E-02 -1.76572903E-02 -2.15270366E-02
 -3.27633804E-01 -3.91936584E-02 -7.68557012E-03 -9.42079737E-03  2.66659646E-03
  2.56853736E-03 -3.36811190E-03 -5.57650096E-04  9.09480877E-03  2.93172402E-03
 -1.88365820E-02  3.50157241E-02 -8.88531431E-02  5.46944037E-02 -5.90993975E-02