10882040                                                                
Freq      RMP2-FC                                                     6-31G(d)            
Number of atoms                            I               15
Info1-9                                    I   N=           9
          27          25        1002           0           0         100
           6           2           1
Charge                                     I                0
Multiplicity                               I                1
Number of electrons                        I              152
Number of alpha electrons                  I               76
Number of beta electrons                   I               76
Number of basis functions                  I              205
Number of independent functions            I              205
Number of point charges in /Mol/           I                0
Number of translation vectors              I                0
Atomic numbers                             I   N=          15
          35          35          35           6           6           6
           6           6           6           6           1           1
           1           1           1
Nuclear charges                            R   N=          15
  3.50000000E+01  3.50000000E+01  3.50000000E+01  6.00000000E+00  6.00000000E+00
  6.00000000E+00  6.00000000E+00  6.00000000E+00  6.00000000E+00  6.00000000E+00
  1.00000000E+00  1.00000000E+00  1.00000000E+00  1.00000000E+00  1.00000000E+00
Current cartesian coordinates              R   N=          45
  1.73421362E+00 -1.80857848E+00  3.00860420E+00  1.73423069E+00 -1.80865276E+00
 -3.00855296E+00  2.31786715E+00  3.32066333E+00 -4.01518641E-05 -2.26123264E+00
  2.25268302E-01 -1.19415529E-05 -3.61991223E+00 -2.05685327E+00 -8.00014711E-06
 -3.56672418E+00  2.52156538E+00 -4.07425722E-06  5.80925827E-01  5.51396801E-02
 -8.97619524E-07 -6.24786355E+00 -2.02629833E+00 -1.42326047E-05 -6.20736150E+00
  2.53082946E+00 -9.94711184E-06 -7.55648017E+00  2.69687896E-01 -7.23894060E-06
 -2.61227802E+00 -3.84628113E+00 -1.60358750E-05 -2.54401460E+00  4.29639997E+00
 -6.40036831E-06 -7.27881609E+00 -3.80319086E+00 -1.06845821E-05 -7.20333505E+00
  4.32753607E+00 -3.13211826E-06 -9.61056695E+00  2.89377936E-01 -1.39546682E-05
Force Field                                I                0
Int Atom Types                             I   N=          15
           0           0           0           0           0           0
           0           0           0           0           0           0
           0           0           0
MM charges                                 R   N=          15
  0.00000000E+00  0.00000000E+00  0.00000000E+00  0.00000000E+00  0.00000000E+00
  0.00000000E+00  0.00000000E+00  0.00000000E+00  0.00000000E+00  0.00000000E+00
  0.00000000E+00  0.00000000E+00  0.00000000E+00  0.00000000E+00  0.00000000E+00
Integer atomic weights                     I   N=          15
          79          79          79          12          12          12
          12          12          12          12           1           1
           1           1           1
Real atomic weights                        R   N=          15
  7.89183361E+01  7.89183361E+01  7.89183361E+01  1.20000000E+01  1.20000000E+01
  1.20000000E+01  1.20000000E+01  1.20000000E+01  1.20000000E+01  1.20000000E+01
  1.00782504E+00  1.00782504E+00  1.00782504E+00  1.00782504E+00  1.00782504E+00
Atom fragment info                         I   N=          15
           0           0           0           0           0           0
           0           0           0           0           0           0
           0           0           0
Atom residue num                           I   N=          15
           0           0           0           0           0           0
           0           0           0           0           0           0
           0           0           0
Nuclear spins                              I   N=          15
           3           3           3           0           0           0
           0           0           0           0           1           1
           1           1           1
Nuclear ZEff                               R   N=          15
 -2.45000000E+01 -2.45000000E+01 -2.45000000E+01 -3.60000000E+00 -3.60000000E+00
 -3.60000000E+00 -3.60000000E+00 -3.60000000E+00 -3.60000000E+00 -3.60000000E+00
 -1.00000000E+00 -1.00000000E+00 -1.00000000E+00 -1.00000000E+00 -1.00000000E+00
Nuclear QMom                               R   N=          15
  3.13000000E+01  3.13000000E+01  3.13000000E+01  0.00000000E+00  0.00000000E+00
  0.00000000E+00  0.00000000E+00  0.00000000E+00  0.00000000E+00  0.00000000E+00
  0.00000000E+00  0.00000000E+00  0.00000000E+00  0.00000000E+00  0.00000000E+00
Nuclear GFac                               R   N=          15
  2.10639900E+00  2.10639900E+00  2.10639900E+00  0.00000000E+00  0.00000000E+00
  0.00000000E+00  0.00000000E+00  0.00000000E+00  0.00000000E+00  0.00000000E+00
  2.79284600E+00  2.79284600E+00  2.79284600E+00  2.79284600E+00  2.79284600E+00
MicOpt                                     I   N=          15
          -1          -1          -1          -1          -1          -1
          -1          -1          -1          -1          -1          -1
          -1          -1          -1
Number of contracted shells                I               74
Number of primitive shells                 I              190
Pure/Cartesian d shells                    I                1
Pure/Cartesian f shells                    I                0
Highest angular momentum                   I                2
Largest degree of contraction              I                8
Shell types                                I   N=          74
           0           0           0           0           0           0
           1           1           1           1           2           2
           0           0           0           0           0           0
           1           1           1           1           2           2
           0           0           0           0           0           0
           1           1           1           1           2           2
           0          -1          -1           2           0          -1
          -1           2           0          -1          -1           2
           0          -1          -1           2           0          -1
          -1           2           0          -1          -1           2
           0          -1          -1           2           0           0
           0           0           0           0           0           0
           0           0
Number of primitives per shell             I   N=          74
           8           2           1           1           1           1
           6           3           1           1           5           1
           8           2           1           1           1           1
           6           3           1           1           5           1
           8           2           1           1           1           1
           6           3           1           1           5           1
           6           3           1           1           6           3
           1           1           6           3           1           1
           6           3           1           1           6           3
           1           1           6           3           1           1
           6           3           1           1           3           1
           3           1           3           1           3           1
           3           1
Shell to atom map                          I   N=          74
           1           1           1           1           1           1
           1           1           1           1           1           1
           2           2           2           2           2           2
           2           2           2           2           2           2
           3           3           3           3           3           3
           3           3           3           3           3           3
           4           4           4           4           5           5
           5           5           6           6           6           6
           7           7           7           7           8           8
           8           8           9           9           9           9
          10          10          10          10          11          11
          12          12          13          13          14          14
          15          15
Primitive exponents                        R   N=         190
  5.74300000E+05  8.90700000E+04  2.02100000E+04  5.73600000E+03  1.89900000E+03
  6.98700000E+02  2.77800000E+02  1.15200000E+02  3.59700000E+01  1.55000000E+01
  4.77100000E+00  2.07700000E+00  4.21100000E-01  1.61000000E-01  4.40600000E+03
  1.04200000E+03  3.32100000E+02  1.21900000E+02  4.92400000E+01  2.11600000E+01
  8.83600000E+00  3.82900000E+00  1.64300000E+00  4.65000000E-01  1.42700000E-01
  1.08400000E+02  3.07100000E+01  1.06600000E+01  3.85100000E+00  1.31700000E+00
  3.38000000E-01  5.74300000E+05  8.90700000E+04  2.02100000E+04  5.73600000E+03
  1.89900000E+03  6.98700000E+02  2.77800000E+02  1.15200000E+02  3.59700000E+01
  1.55000000E+01  4.77100000E+00  2.07700000E+00  4.21100000E-01  1.61000000E-01
  4.40600000E+03  1.04200000E+03  3.32100000E+02  1.21900000E+02  4.92400000E+01
  2.11600000E+01  8.83600000E+00  3.82900000E+00  1.64300000E+00  4.65000000E-01
  1.42700000E-01  1.08400000E+02  3.07100000E+01  1.06600000E+01  3.85100000E+00
  1.31700000E+00  3.38000000E-01  5.74300000E+05  8.90700000E+04  2.02100000E+04
  5.73600000E+03  1.89900000E+03  6.98700000E+02  2.77800000E+02  1.15200000E+02
  3.59700000E+01  1.55000000E+01  4.77100000E+00  2.07700000E+00  4.21100000E-01
  1.61000000E-01  4.40600000E+03  1.04200000E+03  3.32100000E+02  1.21900000E+02
  4.92400000E+01  2.11600000E+01  8.83600000E+00  3.82900000E+00  1.64300000E+00
  4.65000000E-01  1.42700000E-01  1.08400000E+02  3.07100000E+01  1.06600000E+01
  3.85100000E+00  1.31700000E+00  3.38000000E-01  3.04752488E+03  4.57369518E+02
  1.03948685E+02  2.92101553E+01  9.28666296E+00  3.16392696E+00  7.86827235E+00
  1.88128854E+00  5.44249258E-01  1.68714478E-01  8.00000000E-01  3.04752488E+03
  4.57369518E+02  1.03948685E+02  2.92101553E+01  9.28666296E+00  3.16392696E+00
  7.86827235E+00  1.88128854E+00  5.44249258E-01  1.68714478E-01  8.00000000E-01
  3.04752488E+03  4.57369518E+02  1.03948685E+02  2.92101553E+01  9.28666296E+00
  3.16392696E+00  7.86827235E+00  1.88128854E+00  5.44249258E-01  1.68714478E-01
  8.00000000E-01  3.04752488E+03  4.57369518E+02  1.03948685E+02  2.92101553E+01
  9.28666296E+00  3.16392696E+00  7.86827235E+00  1.88128854E+00  5.44249258E-01
  1.68714478E-01  8.00000000E-01  3.04752488E+03  4.57369518E+02  1.03948685E+02
  2.92101553E+01  9.28666296E+00  3.16392696E+00  7.86827235E+00  1.88128854E+00
  5.44249258E-01  1.68714478E-01  8.00000000E-01  3.04752488E+03  4.57369518E+02
  1.03948685E+02  2.92101553E+01  9.28666296E+00  3.16392696E+00  7.86827235E+00
  1.88128854E+00  5.44249258E-01  1.68714478E-01  8.00000000E-01  3.04752488E+03
  4.57369518E+02  1.03948685E+02  2.92101553E+01  9.28666296E+00  3.16392696E+00
  7.86827235E+00  1.88128854E+00  5.44249258E-01  1.68714478E-01  8.00000000E-01
  1.87311370E+01  2.82539436E+00  6.40121692E-01  1.61277759E-01  1.87311370E+01
  2.82539436E+00  6.40121692E-01  1.61277759E-01  1.87311370E+01  2.82539436E+00
  6.40121692E-01  1.61277759E-01  1.87311370E+01  2.82539436E+00  6.40121692E-01
  1.61277759E-01  1.87311370E+01  2.82539436E+00  6.40121692E-01  1.61277759E-01
Contraction coefficients                   R   N=         190
  2.10682753E-04  1.61271721E-03  8.36010959E-03  3.40275588E-02  1.08515001E-01
  2.67396944E-01  4.29567221E-01  2.86993117E-01  2.77772914E-01  7.47057636E-01
  1.00000000E+00  1.00000000E+00  1.00000000E+00  1.00000000E+00  1.39552623E-03
  1.23748283E-02  6.10175241E-02  2.26775547E-01  4.05975875E-01  4.50692322E-01
  2.92018585E-01  5.30220862E-01  2.75287404E-01  1.00000000E+00  1.00000000E+00
  2.15879371E-02  1.34176036E-01  3.67870647E-01  4.91895206E-01  2.68321979E-01
  1.00000000E+00  2.10682753E-04  1.61271721E-03  8.36010959E-03  3.40275588E-02
  1.08515001E-01  2.67396944E-01  4.29567221E-01  2.86993117E-01  2.77772914E-01
  7.47057636E-01  1.00000000E+00  1.00000000E+00  1.00000000E+00  1.00000000E+00
  1.39552623E-03  1.23748283E-02  6.10175241E-02  2.26775547E-01  4.05975875E-01
  4.50692322E-01  2.92018585E-01  5.30220862E-01  2.75287404E-01  1.00000000E+00
  1.00000000E+00  2.15879371E-02  1.34176036E-01  3.67870647E-01  4.91895206E-01
  2.68321979E-01  1.00000000E+00  2.10682753E-04  1.61271721E-03  8.36010959E-03
  3.40275588E-02  1.08515001E-01  2.67396944E-01  4.29567221E-01  2.86993117E-01
  2.77772914E-01  7.47057636E-01  1.00000000E+00  1.00000000E+00  1.00000000E+00
  1.00000000E+00  1.39552623E-03  1.23748283E-02  6.10175241E-02  2.26775547E-01
  4.05975875E-01  4.50692322E-01  2.92018585E-01  5.30220862E-01  2.75287404E-01
  1.00000000E+00  1.00000000E+00  2.15879371E-02  1.34176036E-01  3.67870647E-01
  4.91895206E-01  2.68321979E-01  1.00000000E+00  1.83473713E-03  1.40373228E-02
  6.88426223E-02  2.32184443E-01  4.67941348E-01  3.62311985E-01 -1.19332420E-01
 -1.60854152E-01  1.14345644E+00  1.00000000E+00  1.00000000E+00  1.83473713E-03
  1.40373228E-02  6.88426223E-02  2.32184443E-01  4.67941348E-01  3.62311985E-01
 -1.19332420E-01 -1.60854152E-01  1.14345644E+00  1.00000000E+00  1.00000000E+00
  1.83473713E-03  1.40373228E-02  6.88426223E-02  2.32184443E-01  4.67941348E-01
  3.62311985E-01 -1.19332420E-01 -1.60854152E-01  1.14345644E+00  1.00000000E+00
  1.00000000E+00  1.83473713E-03  1.40373228E-02  6.88426223E-02  2.32184443E-01
  4.67941348E-01  3.62311985E-01 -1.19332420E-01 -1.60854152E-01  1.14345644E+00
  1.00000000E+00  1.00000000E+00  1.83473713E-03  1.40373228E-02  6.88426223E-02
  2.32184443E-01  4.67941348E-01  3.62311985E-01 -1.19332420E-01 -1.60854152E-01
  1.14345644E+00  1.00000000E+00  1.00000000E+00  1.83473713E-03  1.40373228E-02
  6.88426223E-02  2.32184443E-01  4.67941348E-01  3.62311985E-01 -1.19332420E-01
 -1.60854152E-01  1.14345644E+00  1.00000000E+00  1.00000000E+00  1.83473713E-03
  1.40373228E-02  6.88426223E-02  2.32184443E-01  4.67941348E-01  3.62311985E-01
 -1.19332420E-01 -1.60854152E-01  1.14345644E+00  1.00000000E+00  1.00000000E+00
  3.34946043E-02  2.34726953E-01  8.13757326E-01  1.00000000E+00  3.34946043E-02
  2.34726953E-01  8.13757326E-01  1.00000000E+00  3.34946043E-02  2.34726953E-01
  8.13757326E-01  1.00000000E+00  3.34946043E-02  2.34726953E-01  8.13757326E-01
  1.00000000E+00  3.34946043E-02  2.34726953E-01  8.13757326E-01  1.00000000E+00
P(S=P) Contraction coefficients            R   N=         190
  0.00000000E+00  0.00000000E+00  0.00000000E+00  0.00000000E+00  0.00000000E+00
  0.00000000E+00  0.00000000E+00  0.00000000E+00  0.00000000E+00  0.00000000E+00
  0.00000000E+00  0.00000000E+00  0.00000000E+00  0.00000000E+00  0.00000000E+00
  0.00000000E+00  0.00000000E+00  0.00000000E+00  0.00000000E+00  0.00000000E+00
  0.00000000E+00  0.00000000E+00  0.00000000E+00  0.00000000E+00  0.00000000E+00
  0.00000000E+00  0.00000000E+00  0.00000000E+00  0.00000000E+00  0.00000000E+00
  0.00000000E+00  0.00000000E+00  0.00000000E+00  0.00000000E+00  0.00000000E+00
  0.00000000E+00  0.00000000E+00  0.00000000E+00  0.00000000E+00  0.00000000E+00
  0.00000000E+00  0.00000000E+00  0.00000000E+00  0.00000000E+00  0.00000000E+00
  0.00000000E+00  0.00000000E+00  0.00000000E+00  0.00000000E+00  0.00000000E+00
  0.00000000E+00  0.00000000E+00  0.00000000E+00  0.00000000E+00  0.00000000E+00
  0.00000000E+00  0.00000000E+00  0.00000000E+00  0.00000000E+00  0.00000000E+00
  0.00000000E+00  0.00000000E+00  0.00000000E+00  0.00000000E+00  0.00000000E+00
  0.00000000E+00  0.00000000E+00  0.00000000E+00  0.00000000E+00  0.00000000E+00
  0.00000000E+00  0.00000000E+00  0.00000000E+00  0.00000000E+00  0.00000000E+00
  0.00000000E+00  0.00000000E+00  0.00000000E+00  0.00000000E+00  0.00000000E+00
  0.00000000E+00  0.00000000E+00  0.00000000E+00  0.00000000E+00  0.00000000E+00
  0.00000000E+00  0.00000000E+00  0.00000000E+00  0.00000000E+00  0.00000000E+00
  0.00000000E+00  0.00000000E+00  0.00000000E+00  0.00000000E+00  0.00000000E+00
  0.00000000E+00  0.00000000E+00  0.00000000E+00  0.00000000E+00  6.89990666E-02
  3.16423961E-01  7.44308291E-01  1.00000000E+00  0.00000000E+00  0.00000000E+00
  0.00000000E+00  0.00000000E+00  0.00000000E+00  0.00000000E+00  0.00000000E+00
  6.89990666E-02  3.16423961E-01  7.44308291E-01  1.00000000E+00  0.00000000E+00
  0.00000000E+00  0.00000000E+00  0.00000000E+00  0.00000000E+00  0.00000000E+00
  0.00000000E+00  6.89990666E-02  3.16423961E-01  7.44308291E-01  1.00000000E+00
  0.00000000E+00  0.00000000E+00  0.00000000E+00  0.00000000E+00  0.00000000E+00
  0.00000000E+00  0.00000000E+00  6.89990666E-02  3.16423961E-01  7.44308291E-01
  1.00000000E+00  0.00000000E+00  0.00000000E+00  0.00000000E+00  0.00000000E+00
  0.00000000E+00  0.00000000E+00  0.00000000E+00  6.89990666E-02  3.16423961E-01
  7.44308291E-01  1.00000000E+00  0.00000000E+00  0.00000000E+00  0.00000000E+00
  0.00000000E+00  0.00000000E+00  0.00000000E+00  0.00000000E+00  6.89990666E-02
  3.16423961E-01  7.44308291E-01  1.00000000E+00  0.00000000E+00  0.00000000E+00
  0.00000000E+00  0.00000000E+00  0.00000000E+00  0.00000000E+00  0.00000000E+00
  6.89990666E-02  3.16423961E-01  7.44308291E-01  1.00000000E+00  0.00000000E+00
  0.00000000E+00  0.00000000E+00  0.00000000E+00  0.00000000E+00  0.00000000E+00
  0.00000000E+00  0.00000000E+00  0.00000000E+00  0.00000000E+00  0.00000000E+00
  0.00000000E+00  0.00000000E+00  0.00000000E+00  0.00000000E+00  0.00000000E+00
  0.00000000E+00  0.00000000E+00  0.00000000E+00  0.00000000E+00  0.00000000E+00
Coordinates of each shell                  R   N=         222
  1.73421362E+00 -1.80857848E+00  3.00860420E+00  1.73421362E+00 -1.80857848E+00
  3.00860420E+00  1.73421362E+00 -1.80857848E+00  3.00860420E+00  1.73421362E+00
 -1.80857848E+00  3.00860420E+00  1.73421362E+00 -1.80857848E+00  3.00860420E+00
  1.73421362E+00 -1.80857848E+00  3.00860420E+00  1.73421362E+00 -1.80857848E+00
  3.00860420E+00  1.73421362E+00 -1.80857848E+00  3.00860420E+00  1.73421362E+00
 -1.80857848E+00  3.00860420E+00  1.73421362E+00 -1.80857848E+00  3.00860420E+00
  1.73421362E+00 -1.80857848E+00  3.00860420E+00  1.73421362E+00 -1.80857848E+00
  3.00860420E+00  1.73423069E+00 -1.80865276E+00 -3.00855296E+00  1.73423069E+00
 -1.80865276E+00 -3.00855296E+00  1.73423069E+00 -1.80865276E+00 -3.00855296E+00
  1.73423069E+00 -1.80865276E+00 -3.00855296E+00  1.73423069E+00 -1.80865276E+00
 -3.00855296E+00  1.73423069E+00 -1.80865276E+00 -3.00855296E+00  1.73423069E+00
 -1.80865276E+00 -3.00855296E+00  1.73423069E+00 -1.80865276E+00 -3.00855296E+00
  1.73423069E+00 -1.80865276E+00 -3.00855296E+00  1.73423069E+00 -1.80865276E+00
 -3.00855296E+00  1.73423069E+00 -1.80865276E+00 -3.00855296E+00  1.73423069E+00
 -1.80865276E+00 -3.00855296E+00  2.31786715E+00  3.32066333E+00 -4.01518641E-05
  2.31786715E+00  3.32066333E+00 -4.01518641E-05  2.31786715E+00  3.32066333E+00
 -4.01518641E-05  2.31786715E+00  3.32066333E+00 -4.01518641E-05  2.31786715E+00
  3.32066333E+00 -4.01518641E-05  2.31786715E+00  3.32066333E+00 -4.01518641E-05
  2.31786715E+00  3.32066333E+00 -4.01518641E-05  2.31786715E+00  3.32066333E+00
 -4.01518641E-05  2.31786715E+00  3.32066333E+00 -4.01518641E-05  2.31786715E+00
  3.32066333E+00 -4.01518641E-05  2.31786715E+00  3.32066333E+00 -4.01518641E-05
  2.31786715E+00  3.32066333E+00 -4.01518641E-05 -2.26123264E+00  2.25268302E-01
 -1.19415529E-05 -2.26123264E+00  2.25268302E-01 -1.19415529E-05 -2.26123264E+00
  2.25268302E-01 -1.19415529E-05 -2.26123264E+00  2.25268302E-01 -1.19415529E-05
 -3.61991223E+00 -2.05685327E+00 -8.00014711E-06 -3.61991223E+00 -2.05685327E+00
 -8.00014711E-06 -3.61991223E+00 -2.05685327E+00 -8.00014711E-06 -3.61991223E+00
 -2.05685327E+00 -8.00014711E-06 -3.56672418E+00  2.52156538E+00 -4.07425722E-06
 -3.56672418E+00  2.52156538E+00 -4.07425722E-06 -3.56672418E+00  2.52156538E+00
 -4.07425722E-06 -3.56672418E+00  2.52156538E+00 -4.07425722E-06  5.80925827E-01
  5.51396801E-02 -8.97619524E-07  5.80925827E-01  5.51396801E-02 -8.97619524E-07
  5.80925827E-01  5.51396801E-02 -8.97619524E-07  5.80925827E-01  5.51396801E-02
 -8.97619524E-07 -6.24786355E+00 -2.02629833E+00 -1.42326047E-05 -6.24786355E+00
 -2.02629833E+00 -1.42326047E-05 -6.24786355E+00 -2.02629833E+00 -1.42326047E-05
 -6.24786355E+00 -2.02629833E+00 -1.42326047E-05 -6.20736150E+00  2.53082946E+00
 -9.94711184E-06 -6.20736150E+00  2.53082946E+00 -9.94711184E-06 -6.20736150E+00
  2.53082946E+00 -9.94711184E-06 -6.20736150E+00  2.53082946E+00 -9.94711184E-06
 -7.55648017E+00  2.69687896E-01 -7.23894060E-06 -7.55648017E+00  2.69687896E-01
 -7.23894060E-06 -7.55648017E+00  2.69687896E-01 -7.23894060E-06 -7.55648017E+00
  2.69687896E-01 -7.23894060E-06 -2.61227802E+00 -3.84628113E+00 -1.60358750E-05
 -2.61227802E+00 -3.84628113E+00 -1.60358750E-05 -2.54401460E+00  4.29639997E+00
 -6.40036831E-06 -2.54401460E+00  4.29639997E+00 -6.40036831E-06 -7.27881609E+00
 -3.80319086E+00 -1.06845821E-05 -7.27881609E+00 -3.80319086E+00 -1.06845821E-05
 -7.20333505E+00  4.32753607E+00 -3.13211826E-06 -7.20333505E+00  4.32753607E+00
 -3.13211826E-06 -9.61056695E+00  2.89377936E-01 -1.39546682E-05 -9.61056695E+00
  2.89377936E-01 -1.39546682E-05
Constraint Structure                       R   N=          45
  1.73421362E+00 -1.80857848E+00  3.00860420E+00  1.73423069E+00 -1.80865276E+00
 -3.00855296E+00  2.31786715E+00  3.32066333E+00 -4.01518641E-05 -2.26123264E+00
  2.25268302E-01 -1.19415529E-05 -3.61991223E+00 -2.05685327E+00 -8.00014711E-06
 -3.56672418E+00  2.52156538E+00 -4.07425722E-06  5.80925827E-01  5.51396801E-02
 -8.97619524E-07 -6.24786355E+00 -2.02629833E+00 -1.42326047E-05 -6.20736150E+00
  2.53082946E+00 -9.94711184E-06 -7.55648017E+00  2.69687896E-01 -7.23894060E-06
 -2.61227802E+00 -3.84628113E+00 -1.60358750E-05 -2.54401460E+00  4.29639997E+00
 -6.40036831E-06 -7.27881609E+00 -3.80319086E+00 -1.06845821E-05 -7.20333505E+00
  4.32753607E+00 -3.13211826E-06 -9.61056695E+00  2.89377936E-01 -1.39546682E-05
Num ILSW                                   I              100
ILSW                                       I   N=         100
           0           1           0           0           2           0
           0           0           0           0           0          -1
           0           0           0           0           0           0
           0           0           0           0           1           0
           1           0           0           0           0           0
           0           0      100000           0          -1           0
           0           0           0           0           0           0
           0           0           0           1           1           0
           0           0           1           0           0           0
           0           0           4          40           0           0
           0           0           0           0           0           0
           0           0           0           0           0           0
           0           0           0           0           0           0
           0           0           0           0           0           0
           0           0           0           0           0           0
           0           0           0           0           0           0
           0           0           0           0
Num RLSW                                   I               40
RLSW                                       R   N=          40
  1.00000000E+00  1.00000000E+00  1.00000000E+00  1.00000000E+00  1.00000000E+00
  0.00000000E+00  0.00000000E+00  1.00000000E+00  0.00000000E+00  0.00000000E+00
  0.00000000E+00  0.00000000E+00  1.00000000E+00  0.00000000E+00  0.00000000E+00
  0.00000000E+00  0.00000000E+00  1.00000000E+00  0.00000000E+00  0.00000000E+00
  0.00000000E+00  0.00000000E+00  1.00000000E+00  0.00000000E+00  0.00000000E+00
  0.00000000E+00  0.00000000E+00  1.00000000E+00  0.00000000E+00  0.00000000E+00
  0.00000000E+00  0.00000000E+00  0.00000000E+00  0.00000000E+00  0.00000000E+00
  0.00000000E+00  0.00000000E+00  0.00000000E+00  1.00000000E+00  1.00000000E+00
MxBond                                     I                4
NBond                                      I   N=          15
           1           1           1           3           3           3
           4           3           3           3           1           1
           1           1           1
IBond                                      I   N=          60
           7           0           0           0           7           0
           0           0           7           0           0           0
           5           6           7           0           4           8
          11           0           4           9          12           0
           1           2           3           4           5          10
          13           0           6          10          14           0
           8           9          15           0           5           0
           0           0           6           0           0           0
           8           0           0           0           9           0
           0           0          10           0           0           0
RBond                                      R   N=          60
  1.00000000E+00  0.00000000E+00  0.00000000E+00  0.00000000E+00  1.00000000E+00
  0.00000000E+00  0.00000000E+00  0.00000000E+00  1.00000000E+00  0.00000000E+00
  0.00000000E+00  0.00000000E+00  1.50000000E+00  1.50000000E+00  1.00000000E+00
  0.00000000E+00  1.50000000E+00  1.50000000E+00  1.00000000E+00  0.00000000E+00
  1.50000000E+00  1.50000000E+00  1.00000000E+00  0.00000000E+00  1.00000000E+00
  1.00000000E+00  1.00000000E+00  1.00000000E+00  1.50000000E+00  1.50000000E+00
  1.00000000E+00  0.00000000E+00  1.50000000E+00  1.50000000E+00  1.00000000E+00
  0.00000000E+00  1.50000000E+00  1.50000000E+00  1.00000000E+00  0.00000000E+00
  1.00000000E+00  0.00000000E+00  0.00000000E+00  0.00000000E+00  1.00000000E+00
  0.00000000E+00  0.00000000E+00  0.00000000E+00  1.00000000E+00  0.00000000E+00
  0.00000000E+00  0.00000000E+00  1.00000000E+00  0.00000000E+00  0.00000000E+00
  0.00000000E+00  1.00000000E+00  0.00000000E+00  0.00000000E+00  0.00000000E+00
Virial Ratio                               R      2.004458538523126E+00
SCF Energy                                 R     -7.977633574117614E+03
MP2 Energy                                 R     -7.978879322214954E+03
Total Energy                               R     -7.978879322214954E+03
Post-SCF wavefunction norm                 R      1.733770657030896E+00
RMS Force                                  R      5.522599330943578E-07
RMS Density                                R      7.440171380979789E-10
External E-field                           R   N=          35
  0.00000000E+00  0.00000000E+00  0.00000000E+00  0.00000000E+00  0.00000000E+00
  0.00000000E+00  0.00000000E+00  0.00000000E+00  0.00000000E+00  0.00000000E+00
  0.00000000E+00  0.00000000E+00  0.00000000E+00  0.00000000E+00  0.00000000E+00
  0.00000000E+00  0.00000000E+00  0.00000000E+00  0.00000000E+00  0.00000000E+00
  0.00000000E+00  0.00000000E+00  0.00000000E+00  0.00000000E+00  0.00000000E+00
  0.00000000E+00  0.00000000E+00  0.00000000E+00  0.00000000E+00  0.00000000E+00
  0.00000000E+00  0.00000000E+00  0.00000000E+00  0.00000000E+00  0.00000000E+00
IOpCl                                      I                0
IROHF                                      I                0
Alpha Orbital Energies                     R   N=         205
 -4.90086682E+02 -4.90080714E+02 -4.90080625E+02 -6.44980627E+01 -6.44924382E+01
 -6.44916163E+01 -5.86366641E+01 -5.86346231E+01 -5.86345257E+01 -5.86309529E+01
 -5.86308685E+01 -5.86289025E+01 -5.86289008E+01 -5.86288431E+01 -5.86287510E+01
 -1.14269535E+01 -1.12763712E+01 -1.12573107E+01 -1.12566947E+01 -1.12542968E+01
 -1.12513277E+01 -1.12508665E+01 -9.74545982E+00 -9.73983409E+00 -9.73958467E+00
 -7.49483900E+00 -7.48915726E+00 -7.48915699E+00 -7.48504980E+00 -7.48496033E+00
 -7.47937896E+00 -7.47937628E+00 -7.47923811E+00 -7.47923463E+00 -3.23389397E+00
 -3.22932177E+00 -3.22922546E+00 -3.22815764E+00 -3.22814452E+00 -3.22368723E+00
 -3.22368003E+00 -3.22351349E+00 -3.22350936E+00 -3.21771320E+00 -3.21770429E+00
 -3.21203773E+00 -3.21203535E+00 -3.21203499E+00 -3.21203136E+00 -1.18935936E+00
 -1.13305430E+00 -1.03348409E+00 -1.02748137E+00 -1.00502072E+00 -1.00360284E+00
 -8.78423517E-01 -8.41591744E-01 -7.78662519E-01 -7.07963643E-01 -6.46931920E-01
 -6.46286663E-01 -6.08260933E-01 -6.01709109E-01 -5.78776192E-01 -5.47774691E-01
 -5.21316184E-01 -5.07775148E-01 -5.07009159E-01 -4.49017858E-01 -4.43070040E-01
 -4.31205491E-01 -4.05723754E-01 -4.04403614E-01 -3.94519700E-01 -3.49412135E-01
 -3.40101608E-01  8.25769509E-02  8.70048169E-02  1.28467573E-01  1.41756487E-01
  1.86214852E-01  2.27841731E-01  2.81142582E-01  2.92794618E-01  3.14998738E-01
  3.23483966E-01  3.51603525E-01  3.52479143E-01  3.79399391E-01  4.37904905E-01
  4.46828159E-01  4.52692085E-01  4.56097806E-01  4.66021323E-01  4.95820718E-01
  5.38290876E-01  5.51814315E-01  5.63801363E-01  5.85392845E-01  5.98940850E-01
  6.12964063E-01  6.21989196E-01  6.27404719E-01  6.42259194E-01  6.44165584E-01
  6.56130441E-01  6.61935950E-01  6.64759394E-01  6.70994148E-01  6.72029415E-01
  6.91337286E-01  7.28061928E-01  7.31298056E-01  7.48279199E-01  7.52320166E-01
  7.70407646E-01  7.82583247E-01  8.06763391E-01  8.16129699E-01  8.23497520E-01