
    -----------------------------------------------------------------------
          Psi4: An Open-Source Ab Initio Electronic Structure Package
                               Psi4 1.3.2 release

                         Git: Rev {HEAD} ecbda83 


    R. M. Parrish, L. A. Burns, D. G. A. Smith, A. C. Simmonett,
    A. E. DePrince III, E. G. Hohenstein, U. Bozkaya, A. Yu. Sokolov,
    R. Di Remigio, R. M. Richard, J. F. Gonthier, A. M. James,
    H. R. McAlexander, A. Kumar, M. Saitow, X. Wang, B. P. Pritchard,
    P. Verma, H. F. Schaefer III, K. Patkowski, R. A. King, E. F. Valeev,
    F. A. Evangelista, J. M. Turney, T. D. Crawford, and C. D. Sherrill,
    J. Chem. Theory Comput. 13(7) pp 3185--3197 (2017).
    (doi: 10.1021/acs.jctc.7b00174)


                         Additional Contributions by
    P. Kraus, H. Kruse, M. H. Lechner, M. C. Schieber, R. A. Shaw,
    A. Alenaizan, R. Galvelis, Z. L. Glick, S. Lehtola, and J. P. Misiewicz

    -----------------------------------------------------------------------


    Psi4 started on: Friday, 12 February 2021 09:58AM

    Process ID: 68225
    Host:       node144.bme.utexas.edu
    PSIDATADIR: /home/xy3866/psi4conda/share/psi4
    Memory:     500.0 MiB
    Threads:    8
    
  ==> Input File <==

--------------------------------------------------------------------------
#psi4
#
memory 32 gb

molecule  {
0 1
  O       -0.8024720     1.2871770    -0.2968200
  N        0.3743340    -0.6973860    -0.1281030
  N       -1.9547761    -0.7241182    -0.2345175
  C        1.5987580    -0.0472160    -0.4975290
  C        2.3001670     0.7476450     0.5591710
  C        2.8599170    -0.5791270     0.1240600
  C       -0.7916110     0.0679730    -0.1462250
  C       -3.1892790     0.0185180     0.2391280
  H        1.6584990     0.3313320    -1.5170780
  H        1.8133820     0.7968280     1.5261570
  H        2.8068830     1.6562200     0.2533550
  H        3.7595130    -0.5939570    -0.4821470
  H        2.7562930    -1.4149420     0.8077760
  H        0.2670080    -1.6424170    -0.4848710
  H       -1.8163630    -1.5386920     0.5601430
  H       -3.2269270     0.5129170     1.2166470
  H       -4.0142600    -0.6916670     0.1589620
  H       -3.2950640     0.7803290    -0.5317260
units angstrom
no_reorient  #important for SAPT in psi4, default
symmetry c1  #important for SAPT in psi4, default
}

set PROPERTIES_ORIGIN ["COM"]
properties('MP2/aug-cc-pvtz', properties = ['dipole'])
--------------------------------------------------------------------------

  Memory set to  29.802 GiB by Python driver.
    SCF Algorithm Type (re)set to DF.

*** tstart() called on node144.bme.utexas.edu
*** at Fri Feb 12 09:58:37 2021

   => Loading Basis Set <=

    Name: AUG-CC-PVTZ
    Role: ORBITAL
    Keyword: BASIS
    atoms 1    entry O          line   327 file /home/xy3866/psi4conda/share/psi4/basis/aug-cc-pvtz.gbs 
    atoms 2-3  entry N          line   281 file /home/xy3866/psi4conda/share/psi4/basis/aug-cc-pvtz.gbs 
    atoms 4-8  entry C          line   235 file /home/xy3866/psi4conda/share/psi4/basis/aug-cc-pvtz.gbs 
    atoms 9-18 entry H          line    36 file /home/xy3866/psi4conda/share/psi4/basis/aug-cc-pvtz.gbs 


         ---------------------------------------------------------
                                   SCF
               by Justin Turney, Rob Parrish, Andy Simmonett
                          and Daniel G. A. Smith
                              RHF Reference
                        8 Threads,  30517 MiB Core
         ---------------------------------------------------------

  ==> Geometry <==

    Molecular point group: c1
    Full point group: C1

    Geometry (in Angstrom), charge = 0, multiplicity = 1:

       Center              X                  Y                   Z               Mass       
    ------------   -----------------  -----------------  -----------------  -----------------
         O           -0.794437386881     1.275271178266    -0.253313950598    15.994914619570
         N            0.382368613119    -0.709291821734    -0.084596950598    14.003074004430
         N           -1.946741486881    -0.736024021734    -0.191011450598    14.003074004430
         C            1.606792613119    -0.059121821734    -0.454022950598    12.000000000000
         C            2.308201613119     0.735739178266     0.602677049402    12.000000000000
         C            2.867951613119    -0.591032821734     0.167566049402    12.000000000000
         C           -0.783576386881     0.056067178266    -0.102718950598    12.000000000000
         C           -3.181244386881     0.006612178266     0.282634049402    12.000000000000
         H            1.666533613119     0.319426178266    -1.473571950598     1.007825032230
         H            1.821416613119     0.784922178266     1.569663049402     1.007825032230
         H            2.814917613119     1.644314178266     0.296861049402     1.007825032230
         H            3.767547613119    -0.605862821734    -0.438640950598     1.007825032230
         H            2.764327613119    -1.426847821734     0.851282049402     1.007825032230
         H            0.275042613119    -1.654322821734    -0.441364950598     1.007825032230
         H           -1.808328386881    -1.550597821734     0.603649049402     1.007825032230
         H           -3.218892386881     0.501011178266     1.260153049402     1.007825032230
         H           -4.006225386881    -0.703572821734     0.202468049402     1.007825032230
         H           -3.287029386881     0.768423178266    -0.488219950598     1.007825032230

  Running in c1 symmetry.

  Rotational constants: A =      0.20649  B =      0.03493  C =      0.03188 [cm^-1]
  Rotational constants: A =   6190.46584  B =   1047.27842  C =    955.76585 [MHz]
  Nuclear repulsion =  378.235226567882819

  Charge       = 0
  Multiplicity = 1
  Electrons    = 62
  Nalpha       = 31
  Nbeta        = 31

  ==> Algorithm <==

  SCF Algorithm Type is DF.
  DIIS enabled.
  MOM disabled.
  Fractional occupation disabled.
  Guess Type is SAD.
  Energy threshold   = 1.00e-10
  Density threshold  = 1.00e-10
  Integral threshold = 0.00e+00

  ==> Primary Basis <==

  Basis Set: AUG-CC-PVTZ
    Blend: AUG-CC-PVTZ
    Number of shells: 202
    Number of basis function: 598
    Number of Cartesian functions: 690
    Spherical Harmonics?: true
    Max angular momentum: 3

   => Loading Basis Set <=

    Name: (AUG-CC-PVTZ AUX)
    Role: JKFIT
    Keyword: DF_BASIS_SCF
    atoms 1    entry O          line   286 file /home/xy3866/psi4conda/share/psi4/basis/aug-cc-pvtz-jkfit.gbs 
    atoms 2-3  entry N          line   224 file /home/xy3866/psi4conda/share/psi4/basis/aug-cc-pvtz-jkfit.gbs 
    atoms 4-8  entry C          line   162 file /home/xy3866/psi4conda/share/psi4/basis/aug-cc-pvtz-jkfit.gbs 
    atoms 9-18 entry H          line    70 file /home/xy3866/psi4conda/share/psi4/basis/aug-cc-pvtz-jkfit.gbs 

  ==> Pre-Iterations <==

   -------------------------------------------------------
    Irrep   Nso     Nmo     Nalpha   Nbeta   Ndocc  Nsocc
   -------------------------------------------------------
     A        598     598       0       0       0       0
   -------------------------------------------------------
    Total     598     598      31      31      31       0
   -------------------------------------------------------

  ==> Integral Setup <==

  DFHelper Memory: AOs need 3.321 GiB; user supplied 22.352 GiB. Using in-core AOs.

  ==> MemDFJK: Density-Fitted J/K Matrices <==

    J tasked:                   Yes
    K tasked:                   Yes
    wK tasked:                   No
    OpenMP threads:               8
    Memory [MiB]:             22888
    Algorithm:                 Disk
    Schwarz Cutoff:           1E-12
    Mask sparsity (%):       6.5972
    Fitting Condition:        1E-10

   => Auxiliary Basis Set <=

  Basis Set: (AUG-CC-PVTZ AUX)
    Blend: AUG-CC-PVTZ-JKFIT
    Number of shells: 380
    Number of basis function: 1292
    Number of Cartesian functions: 1598
    Spherical Harmonics?: true
    Max angular momentum: 4

  Minimum eigenvalue in the overlap matrix is 4.2964238764E-06.
  Using Symmetric Orthogonalization.

  SCF Guess: Superposition of Atomic Densities via on-the-fly atomic UHF.

  ==> Iterations <==

                           Total Energy        Delta E     RMS |[F,P]|

   @DF-RHF iter SAD:  -378.27908640074503   -3.78279e+02   0.00000e+00 
   @DF-RHF iter   1:  -378.72425684171264   -4.45170e-01   1.25792e-03 DIIS
   @DF-RHF iter   2:  -378.94547292288547   -2.21216e-01   7.28250e-04 DIIS
   @DF-RHF iter   3:  -379.01697041910717   -7.14975e-02   1.42903e-04 DIIS
   @DF-RHF iter   4:  -379.02116736383022   -4.19694e-03   6.33343e-05 DIIS
   @DF-RHF iter   5:  -379.02198969875451   -8.22335e-04   1.20864e-05 DIIS
   @DF-RHF iter   6:  -379.02205304866743   -6.33499e-05   5.13170e-06 DIIS
   @DF-RHF iter   7:  -379.02206314351810   -1.00949e-05   1.76989e-06 DIIS
   @DF-RHF iter   8:  -379.02206472373069   -1.58021e-06   6.44166e-07 DIIS
   @DF-RHF iter   9:  -379.02206494508818   -2.21357e-07   2.23251e-07 DIIS
   @DF-RHF iter  10:  -379.02206496971291   -2.46247e-08   7.85914e-08 DIIS
   @DF-RHF iter  11:  -379.02206497228889   -2.57597e-09   2.26664e-08 DIIS
   @DF-RHF iter  12:  -379.02206497245822   -1.69337e-10   7.52148e-09 DIIS
   @DF-RHF iter  13:  -379.02206497247596   -1.77351e-11   2.02369e-09 DIIS
   @DF-RHF iter  14:  -379.02206497247766   -1.70530e-12   7.10432e-10 DIIS
   @DF-RHF iter  15:  -379.02206497247664    1.02318e-12   1.96869e-10 DIIS
   @DF-RHF iter  16:  -379.02206497247653    1.13687e-13   7.58903e-11 DIIS
  Energy and wave function converged.


  ==> Post-Iterations <==

    Orbital Energies [Eh]
    ---------------------

    Doubly Occupied:                                                      

       1A    -20.521002     2A    -15.601087     3A    -15.584089  
       4A    -11.374610     5A    -11.265798     6A    -11.258216  
       7A    -11.229965     8A    -11.224750     9A     -1.387833  
      10A     -1.244748    11A     -1.198033    12A     -1.114334  
      13A     -0.935556    14A     -0.831260    15A     -0.823153  
      16A     -0.765664    17A     -0.716100    18A     -0.697894  
      19A     -0.657367    20A     -0.624058    21A     -0.616635  
      22A     -0.592664    23A     -0.548701    24A     -0.540562  
      25A     -0.520479    26A     -0.516627    27A     -0.457503  
      28A     -0.443253    29A     -0.426169    30A     -0.418615  
      31A     -0.391434  

    Virtual:                                                              

      32A      0.023905    33A      0.032080    34A      0.037178  
      35A      0.039679    36A      0.049051    37A      0.051240  
      38A      0.054153    39A      0.062506    40A      0.064318  
      41A      0.069914    42A      0.095499    43A      0.099790  
      44A      0.107607    45A      0.110304    46A      0.113356  
      47A      0.119993    48A      0.126262    49A      0.131135  
      50A      0.132040    51A      0.137181    52A      0.139209  
      53A      0.142991    54A      0.146486    55A      0.154051  
      56A      0.159423    57A      0.164065    58A      0.171409  
      59A      0.174260    60A      0.180482    61A      0.190559  
      62A      0.199569    63A      0.211141    64A      0.216908  
      65A      0.221707    66A      0.228013    67A      0.237744  
      68A      0.245827    69A      0.248071    70A      0.253665  
      71A      0.259868    72A      0.267836    73A      0.274691  
      74A      0.278087    75A      0.284198    76A      0.295261  
      77A      0.298760    78A      0.307467    79A      0.312032  
      80A      0.314055    81A      0.319887    82A      0.328557  
      83A      0.329707    84A      0.336162    85A      0.342410  
      86A      0.343059    87A      0.347101    88A      0.351061  
      89A      0.359126    90A      0.364456    91A      0.369954  
      92A      0.375775    93A      0.377294    94A      0.382009  
      95A      0.389682    96A      0.395236    97A      0.400925  
      98A      0.402820    99A      0.404566   100A      0.411477  
     101A      0.415589   102A      0.422796   103A      0.427083  
     104A      0.428538   105A      0.429838   106A      0.438727  
     107A      0.452657   108A      0.455403   109A      0.462959  
     110A      0.464444   111A      0.467028   112A      0.470275  
     113A      0.473666   114A      0.479975   115A      0.489570  
     116A      0.495365   117A      0.499708   118A      0.502489  
     119A      0.511386   120A      0.519373   121A      0.523657  
     122A      0.525709   123A      0.528805   124A      0.537074  
     125A      0.539116   126A      0.545748   127A      0.555152  
     128A      0.555920   129A      0.563071   130A      0.568327  
     131A      0.574253   132A      0.581279   133A      0.585330  
     134A      0.590745   135A      0.595858   136A      0.608989  
     137A      0.619838   138A      0.623333   139A      0.629310  
     140A      0.634671   141A      0.638228   142A      0.643951  
     143A      0.654807   144A      0.669332   145A      0.674046  
     146A      0.684514   147A      0.697910   148A      0.709069  
     149A      0.715790   150A      0.732072   151A      0.742932  
     152A      0.748171   153A      0.762371   154A      0.771651  
     155A      0.778674   156A      0.789729   157A      0.795160  
     158A      0.799742   159A      0.810673   160A      0.816677  
     161A      0.825331   162A      0.828806   163A      0.846172  
     164A      0.854141   165A      0.860305   166A      0.864888  
     167A      0.874971   168A      0.878581   169A      0.889142  
     170A      0.898889   171A      0.900883   172A      0.904937  
     173A      0.909274   174A      0.916934   175A      0.922357  
     176A      0.923998   177A      0.934665   178A      0.939083  
     179A      0.954129   180A      0.957680   181A      0.961424  
     182A      0.965340   183A      0.970617   184A      0.973562  
     185A      0.986857   186A      0.988941   187A      0.997073  
     188A      1.005834   189A      1.012640   190A      1.017585  
     191A      1.026917   192A      1.031117   193A      1.032083  
     194A      1.036469   195A      1.042941   196A      1.053477  
     197A      1.062128   198A      1.067739   199A      1.072465  
     200A      1.082351   201A      1.094124   202A      1.101389  
     203A      1.105473   204A      1.113729   205A      1.118737  
     206A      1.124324   207A      1.130932   208A      1.136388  
     209A      1.149208   210A      1.155131   211A      1.160519  
     212A      1.164690   213A      1.179370   214A      1.183425  
     215A      1.195571   216A      1.198283   217A      1.203969  
     218A      1.212325   219A      1.221473   220A      1.224901  
     221A      1.238596   222A      1.245282   223A      1.255498  
     224A      1.261792   225A      1.266085   226A      1.275864  
     227A      1.283165   228A      1.288013   229A      1.298153  
     230A      1.307668   231A      1.314148   232A      1.319301  
     233A      1.328707   234A      1.335957   235A      1.344526  
     236A      1.358470   237A      1.367064   238A      1.372470  
     239A      1.380774   240A      1.391334   241A      1.393952  
     242A      1.399627   243A      1.407366   244A      1.425399  
     245A      1.436194   246A      1.441725   247A      1.450753  
     248A      1.465828   249A      1.471968   250A      1.487116  
     251A      1.491642   252A      1.499377   253A      1.504458  
     254A      1.521734   255A      1.527367   256A      1.533171  
     257A      1.542595   258A      1.550663   259A      1.570967  
     260A      1.574463   261A      1.583369   262A      1.595700  
     263A      1.609498   264A      1.619907   265A      1.623876  
     266A      1.629594   267A      1.636034   268A      1.644352  
     269A      1.651676   270A      1.659817   271A      1.664578  
     272A      1.682045   273A      1.682900   274A      1.696242  
     275A      1.704552   276A      1.711844   277A      1.713855  
     278A      1.722049   279A      1.728410   280A      1.740807  
     281A      1.748690   282A      1.762567   283A      1.768954  
     284A      1.782256   285A      1.791056   286A      1.812648  
     287A      1.820949   288A      1.830041   289A      1.849301  
     290A      1.862873   291A      1.867288   292A      1.880474  
     293A      1.886382   294A      1.895422   295A      1.908905  
     296A      1.912648   297A      1.932258   298A      1.935610  
     299A      1.942906   300A      1.954752   301A      1.962684  
     302A      1.980893   303A      1.982717   304A      2.007251  
     305A      2.012564   306A      2.031654   307A      2.035137  
     308A      2.043472   309A      2.054969   310A      2.064739  
     311A      2.072306   312A      2.080108   313A      2.085073  
     314A      2.097336   315A      2.099762   316A      2.122893  
     317A      2.131790   318A      2.138865   319A      2.151956  
     320A      2.171904   321A      2.201347   322A      2.215852  
     323A      2.219420   324A      2.223176   325A      2.228244  
     326A      2.244452   327A      2.253180   328A      2.269847  
     329A      2.283510   330A      2.297392   331A      2.301832  
     332A      2.322434   333A      2.328776   334A      2.339517  
     335A      2.371598   336A      2.392945   337A      2.398458  
     338A      2.413386   339A      2.419573   340A      2.434740  
     341A      2.440536   342A      2.452525   343A      2.467390  
     344A      2.488760   345A      2.497080   346A      2.508576  
     347A      2.539202   348A      2.551043   349A      2.565852  
     350A      2.574773   351A      2.578369   352A      2.599017  
     353A      2.624928   354A      2.638537   355A      2.649593  
     356A      2.687794   357A      2.693156   358A      2.705522  
     359A      2.732738   360A      2.741078   361A      2.745575  
     362A      2.769073   363A      2.794190   364A      2.820437  
     365A      2.849931   366A      2.878801   367A      2.904977  
     368A      2.935709   369A      2.948778   370A      2.978734  
     371A      2.999696   372A      3.029160   373A      3.039989  
     374A      3.063083   375A      3.112007   376A      3.135732  
     377A      3.205512   378A      3.260083   379A      3.303883  
     380A      3.314050   381A      3.339132   382A      3.366884  
     383A      3.386705   384A      3.401496   385A      3.416378  
     386A      3.442102   387A      3.453140   388A      3.473574  
     389A      3.495752   390A      3.499002   391A      3.512696  
     392A      3.532365   393A      3.563634   394A      3.568433  
     395A      3.592832   396A      3.597018   397A      3.641652  
     398A      3.656573   399A      3.665319   400A      3.673357  
     401A      3.684519   402A      3.685398   403A      3.704878  
     404A      3.712494   405A      3.728216   406A      3.732358  
     407A      3.739824   408A      3.750097   409A      3.766334  
     410A      3.778986   411A      3.800245   412A      3.803737  
     413A      3.811029   414A      3.844611   415A      3.850967  
     416A      3.873250   417A      3.879857   418A      3.900551  
     419A      3.916030   420A      3.921767   421A      3.931703  
     422A      3.941295   423A      3.943577   424A      3.966455  
     425A      3.977419   426A      3.989055   427A      4.005221  
     428A      4.025509   429A      4.047034   430A      4.053836  
     431A      4.066084   432A      4.084409   433A      4.089428  
     434A      4.105015   435A      4.122364   436A      4.124478  
     437A      4.140607   438A      4.145744   439A      4.158724  
     440A      4.177214   441A      4.188333   442A      4.196539  
     443A      4.211760   444A      4.233859   445A      4.242890  
     446A      4.254761   447A      4.267234   448A      4.270997  
     449A      4.291847   450A      4.317988   451A      4.326632  
     452A      4.333709   453A      4.356147   454A      4.364634  
     455A      4.373300   456A      4.386019   457A      4.401893  
     458A      4.403627   459A      4.411202   460A      4.434877  
     461A      4.448505   462A      4.453222   463A      4.481564  
     464A      4.501725   465A      4.505454   466A      4.537409  
     467A      4.553746   468A      4.577707   469A      4.580314  
     470A      4.623445   471A      4.635978   472A      4.641849  
     473A      4.648894   474A      4.673962   475A      4.709370  
     476A      4.725812   477A      4.739149   478A      4.761366  
     479A      4.773090   480A      4.792031   481A      4.804186  
     482A      4.816578   483A      4.843946   484A      4.850297  
     485A      4.881633   486A      4.890361   487A      4.896800  
     488A      4.909906   489A      4.920123   490A      4.929617  
     491A      4.959192   492A      4.973556   493A      4.985329  
     494A      5.002566   495A      5.023037   496A      5.040328  
     497A      5.052307   498A      5.064562   499A      5.077282  
     500A      5.089316   501A      5.107302   502A      5.124042  
     503A      5.133148   504A      5.162008   505A      5.186545  
     506A      5.199145   507A      5.204622   508A      5.216149  
     509A      5.250394   510A      5.266769   511A      5.276812  
     512A      5.284689   513A      5.328132   514A      5.341591  
     515A      5.368227   516A      5.370741   517A      5.435125  
     518A      5.445461   519A      5.462113   520A      5.477677  
     521A      5.492755   522A      5.520897   523A      5.550464  
     524A      5.572924   525A      5.581769   526A      5.590834  
     527A      5.616956   528A      5.628421   529A      5.636322  
     530A      5.656048   531A      5.682008   532A      5.682997  
     533A      5.721267   534A      5.730686   535A      5.774110  
     536A      5.776583   537A      5.784471   538A      5.824464  
     539A      5.844824   540A      5.890063   541A      5.899230  
     542A      5.919422   543A      5.957423   544A      5.971818  
     545A      5.997337   546A      6.026149   547A      6.061472  
     548A      6.094643   549A      6.107750   550A      6.120512  
     551A      6.161663   552A      6.195539   553A      6.220990  
     554A      6.230479   555A      6.287645   556A      6.298237  
     557A      6.322564   558A      6.377076   559A      6.420550  
     560A      6.483249   561A      6.528666   562A      6.538084  
     563A      6.560816   564A      6.585555   565A      6.635004  
     566A      6.639665   567A      6.692028   568A      6.700704  
     569A      6.764538   570A      6.767037   571A      6.786609  
     572A      6.810207   573A      6.851612   574A      6.889876  
     575A      6.912521   576A      6.959041   577A      6.999555  
     578A      7.026424   579A      7.098298   580A      7.249778  
     581A      7.320473   582A      7.333517   583A      7.482360  
     584A      7.495000   585A      7.630699   586A      7.720671  
     587A      7.758830   588A      7.788659   589A      7.970898  
     590A      8.090286   591A     15.172513   592A     16.216733  
     593A     16.467452   594A     17.709866   595A     17.874711  
     596A     18.120396   597A     18.852963   598A     20.611463  

    Final Occupation by Irrep:
              A 
    DOCC [    31 ]

  @DF-RHF Final Energy:  -379.02206497247653

   => Energetics <=

    Nuclear Repulsion Energy =            378.2352265678828189
    One-Electron Energy =               -1265.4582626160997734
    Two-Electron Energy =                 508.2009710757404264
    Total Energy =                       -379.0220649724765281

Computation Completed

*** tstop() called on node144.bme.utexas.edu at Fri Feb 12 09:59:30 2021
Module time:
	user time   =     234.12 seconds =       3.90 minutes
	system time =      31.00 seconds =       0.52 minutes
	total time  =         53 seconds =       0.88 minutes
Total time:
	user time   =     234.12 seconds =       3.90 minutes
	system time =      31.00 seconds =       0.52 minutes
	total time  =         53 seconds =       0.88 minutes
   => Loading Basis Set <=

    Name: (AUG-CC-PVTZ AUX)
    Role: RIFIT
    Keyword: DF_BASIS_MP2
    atoms 1    entry O          line   264 file /home/xy3866/psi4conda/share/psi4/basis/aug-cc-pvtz-ri.gbs 
    atoms 2-3  entry N          line   206 file /home/xy3866/psi4conda/share/psi4/basis/aug-cc-pvtz-ri.gbs 
    atoms 4-8  entry C          line   148 file /home/xy3866/psi4conda/share/psi4/basis/aug-cc-pvtz-ri.gbs 
    atoms 9-18 entry H          line    30 file /home/xy3866/psi4conda/share/psi4/basis/aug-cc-pvtz-ri.gbs 


*** tstart() called on node144.bme.utexas.edu
*** at Fri Feb 12 09:59:31 2021


  //>>>>>>>>>>>>>>>>>>>>>>>>>>>>>>>>>>>//
  //               DFMP2               //
  //<<<<<<<<<<<<<<<<<<<<<<<<<<<<<<<<<<<//

	 --------------------------------------------------------
	                          DF-MP2                         
	      2nd-Order Density-Fitted Moller-Plesset Theory     
	              RMP2 Wavefunction,   8 Threads             
	                                                         
	        Rob Parrish, Justin Turney, Andy Simmonett,      
	           Ed Hohenstein, and C. David Sherrill          
	 --------------------------------------------------------

   => Auxiliary Basis Set <=

  Basis Set: (AUG-CC-PVTZ AUX)
    Blend: AUG-CC-PVTZ-RI
    Number of shells: 364
    Number of basis function: 1308
    Number of Cartesian functions: 1638
    Spherical Harmonics?: true
    Max angular momentum: 4

	 --------------------------------------------------------
	                 NBF =   598, NAUX =  1308
	 --------------------------------------------------------
	   CLASS    FOCC     OCC    AOCC    AVIR     VIR    FVIR
	   PAIRS       0      31      31     567     567       0
	 --------------------------------------------------------

  DFHelper Memory: AOs need 3.321 GiB; user supplied 22.352 GiB. Using in-core AOs.


         ------------------------------------------------------------
                                     CPHF                           
                                  Rob Parrish                       
         ------------------------------------------------------------

  ==> Geometry <==

    Molecular point group: c1
    Full point group: C1

    Geometry (in Angstrom), charge = 0, multiplicity = 1:

       Center              X                  Y                   Z               Mass       
    ------------   -----------------  -----------------  -----------------  -----------------
         O           -0.794437386881     1.275271178266    -0.253313950598    15.994914619570
         N            0.382368613119    -0.709291821734    -0.084596950598    14.003074004430
         N           -1.946741486881    -0.736024021734    -0.191011450598    14.003074004430
         C            1.606792613119    -0.059121821734    -0.454022950598    12.000000000000
         C            2.308201613119     0.735739178266     0.602677049402    12.000000000000
         C            2.867951613119    -0.591032821734     0.167566049402    12.000000000000
         C           -0.783576386881     0.056067178266    -0.102718950598    12.000000000000
         C           -3.181244386881     0.006612178266     0.282634049402    12.000000000000
         H            1.666533613119     0.319426178266    -1.473571950598     1.007825032230
         H            1.821416613119     0.784922178266     1.569663049402     1.007825032230
         H            2.814917613119     1.644314178266     0.296861049402     1.007825032230
         H            3.767547613119    -0.605862821734    -0.438640950598     1.007825032230
         H            2.764327613119    -1.426847821734     0.851282049402     1.007825032230
         H            0.275042613119    -1.654322821734    -0.441364950598     1.007825032230
         H           -1.808328386881    -1.550597821734     0.603649049402     1.007825032230
         H           -3.218892386881     0.501011178266     1.260153049402     1.007825032230
         H           -4.006225386881    -0.703572821734     0.202468049402     1.007825032230
         H           -3.287029386881     0.768423178266    -0.488219950598     1.007825032230

  Nuclear repulsion =  378.235226567882819
  Reference energy  = -379.022064972476528

  ==> Basis Set <==

  Basis Set: AUG-CC-PVTZ
    Blend: AUG-CC-PVTZ
    Number of shells: 202
    Number of basis function: 598
    Number of Cartesian functions: 690
    Spherical Harmonics?: true
    Max angular momentum: 3

  ==> CGRSolver (by Rob Parrish) <==

   Number of roots    =         1
   Preconditioning    =    JACOBI
   Convergence cutoff =     1E-06
   Maximum iterations =       100

  ==> CPHFRHamiltonian (by Rob Parrish) <== 

  ==> MemDFJK: Density-Fitted J/K Matrices <==

    J tasked:                   Yes
    K tasked:                   Yes
    wK tasked:                   No
    OpenMP threads:               8
    Memory [MiB]:             22888
    Algorithm:                 Disk
    Schwarz Cutoff:           1E-12
    Mask sparsity (%):       6.5972
    Fitting Condition:        1E-10

   => Auxiliary Basis Set <=

  Basis Set: (AUG-CC-PVTZ AUX)
    Blend: AUG-CC-PVTZ-JKFIT
    Number of shells: 380
    Number of basis function: 1292
    Number of Cartesian functions: 1598
    Spherical Harmonics?: true
    Max angular momentum: 4

  ==> CPHF Iterations <==

  => Iterations <=

             Iter  Converged  Remaining    Residual
  CGR           1          0          1   1.145E-01
  CGR           2          0          1   3.335E-02
  CGR           3          0          1   1.230E-02
  CGR           4          0          1   3.171E-03
  CGR           5          0          1   1.228E-03
  CGR           6          0          1   6.014E-04
  CGR           7          0          1   1.886E-04
  CGR           8          0          1   6.019E-05
  CGR           9          0          1   2.071E-05
  CGR          10          0          1   7.730E-06
  CGR          11          0          1   2.342E-06
  CGR          12          1          0   9.180E-07

    CGRSolver converged.

	-----------------------------------------------------------
	 ==================> DF-MP2 Energies <==================== 
	-----------------------------------------------------------
	 Reference Energy          =    -379.0220649724765281 [Eh]
	 Singles Energy            =      -0.0000000000000000 [Eh]
	 Same-Spin Energy          =      -0.3921667867739235 [Eh]
	 Opposite-Spin Energy      =      -1.2655667004001065 [Eh]
	 Correlation Energy        =      -1.6577334871740301 [Eh]
	 Total Energy              =    -380.6797984596505557 [Eh]
	-----------------------------------------------------------
	 ================> DF-SCS-MP2 Energies <================== 
	-----------------------------------------------------------
	 SCS Same-Spin Scale       =       0.3333333333333333 [-]
	 SCS Opposite-Spin Scale   =       1.2000000000000000 [-]
	 SCS Same-Spin Energy      =      -0.1307222622579745 [Eh]
	 SCS Opposite-Spin Energy  =      -1.5186800404801277 [Eh]
	 SCS Correlation Energy    =      -1.6494023027381022 [Eh]
	 SCS Total Energy          =    -380.6714672752146384 [Eh]
	-----------------------------------------------------------



Properties will be evaluated at   0.000000,   0.000000,   0.000000 [a0]

Properties computed using the MP2 density matrix

  Nuclear Dipole Moment: [e a0]
     X:     0.7407      Y:    -1.7925      Z:     1.8204

  Electronic Dipole Moment: [e a0]
     X:    -0.6655      Y:     0.6896      Z:    -1.4976

  Dipole Moment: [e a0]
     X:     0.0751      Y:    -1.1029      Z:     0.3228     Total:     1.1516

  Dipole Moment: [D]
     X:     0.1910      Y:    -2.8033      Z:     0.8205     Total:     2.9271


*** tstop() called on node144.bme.utexas.edu at Fri Feb 12 10:01:32 2021
Module time:
	user time   =     672.28 seconds =      11.20 minutes
	system time =      35.70 seconds =       0.60 minutes
	total time  =        121 seconds =       2.02 minutes
Total time:
	user time   =     906.58 seconds =      15.11 minutes
	system time =      66.70 seconds =       1.11 minutes
	total time  =        175 seconds =       2.92 minutes

    Psi4 stopped on: Friday, 12 February 2021 10:01AM
    Psi4 wall time for execution: 0:02:55.28

*** Psi4 exiting successfully. Buy a developer a beer!
