
    -----------------------------------------------------------------------
          Psi4: An Open-Source Ab Initio Electronic Structure Package
                               Psi4 1.3.2 release

                         Git: Rev {HEAD} ecbda83 


    R. M. Parrish, L. A. Burns, D. G. A. Smith, A. C. Simmonett,
    A. E. DePrince III, E. G. Hohenstein, U. Bozkaya, A. Yu. Sokolov,
    R. Di Remigio, R. M. Richard, J. F. Gonthier, A. M. James,
    H. R. McAlexander, A. Kumar, M. Saitow, X. Wang, B. P. Pritchard,
    P. Verma, H. F. Schaefer III, K. Patkowski, R. A. King, E. F. Valeev,
    F. A. Evangelista, J. M. Turney, T. D. Crawford, and C. D. Sherrill,
    J. Chem. Theory Comput. 13(7) pp 3185--3197 (2017).
    (doi: 10.1021/acs.jctc.7b00174)


                         Additional Contributions by
    P. Kraus, H. Kruse, M. H. Lechner, M. C. Schieber, R. A. Shaw,
    A. Alenaizan, R. Galvelis, Z. L. Glick, S. Lehtola, and J. P. Misiewicz

    -----------------------------------------------------------------------


    Psi4 started on: Tuesday, 03 November 2020 11:13PM

    Process ID: 72042
    Host:       node101.bme.utexas.edu
    PSIDATADIR: /home/xy3866/psi4conda/share/psi4
    Memory:     500.0 MiB
    Threads:    8
    
  ==> Input File <==

--------------------------------------------------------------------------
#psi4
#
memory 32 gb

molecule  {
0 1
 Cl       -1.7654740    -0.3100940    -0.0000140
  O        0.1603623     1.5104674     0.0000153
  C        0.9469290    -0.7644920     0.0000410
  C        2.3654940    -0.2123180    -0.0000340
  C       -0.0820610     0.3337550     0.0000080
  H        0.7528550    -1.3956680     0.8744030
  H        0.7528050    -1.3957990    -0.8742120
  H        2.5431970     0.4048060    -0.8827890
  H        2.5432490     0.4048980     0.8826450
  H        3.0855950    -1.0339960    -0.0000140
units angstrom
no_reorient  #important for SAPT in psi4, default
symmetry c1  #important for SAPT in psi4, default
}

set PROPERTIES_ORIGIN ["COM"]
properties('MP2/aug-cc-pvtz', properties = ['dipole'])
--------------------------------------------------------------------------

  Memory set to  29.802 GiB by Python driver.
    SCF Algorithm Type (re)set to DF.

*** tstart() called on node101.bme.utexas.edu
*** at Tue Nov  3 23:13:45 2020

   => Loading Basis Set <=

    Name: AUG-CC-PVTZ
    Role: ORBITAL
    Keyword: BASIS
    atoms 1    entry CL         line   984 file /home/xy3866/psi4conda/share/psi4/basis/aug-cc-pvtz.gbs 
    atoms 2    entry O          line   327 file /home/xy3866/psi4conda/share/psi4/basis/aug-cc-pvtz.gbs 
    atoms 3-5  entry C          line   235 file /home/xy3866/psi4conda/share/psi4/basis/aug-cc-pvtz.gbs 
    atoms 6-10 entry H          line    36 file /home/xy3866/psi4conda/share/psi4/basis/aug-cc-pvtz.gbs 


         ---------------------------------------------------------
                                   SCF
               by Justin Turney, Rob Parrish, Andy Simmonett
                          and Daniel G. A. Smith
                              RHF Reference
                        8 Threads,  30517 MiB Core
         ---------------------------------------------------------

  ==> Geometry <==

    Molecular point group: c1
    Full point group: C1

    Geometry (in Angstrom), charge = 0, multiplicity = 1:

       Center              X                  Y                   Z               Mass       
    ------------   -----------------  -----------------  -----------------  -----------------
         CL          -1.649674971124    -0.337920823866    -0.000013656712    34.968852682000
         O            0.276161328876     1.482640576134     0.000015643288    15.994914619570
         C            1.062728028876    -0.792318823866     0.000041343288    12.000000000000
         C            2.481293028876    -0.240144823866    -0.000033656712    12.000000000000
         C            0.033738028876     0.305928176134     0.000008343288    12.000000000000
         H            0.868654028876    -1.423494823866     0.874403343288     1.007825032230
         H            0.868604028876    -1.423625823866    -0.874211656712     1.007825032230
         H            2.658996028876     0.376979176134    -0.882788656712     1.007825032230
         H            2.659048028876     0.377071176134     0.882645343288     1.007825032230
         H            3.201394028876    -1.061822823866    -0.000013656712     1.007825032230

  Running in c1 symmetry.

  Rotational constants: A =      0.29596  B =      0.07907  C =      0.06387 [cm^-1]
  Rotational constants: A =   8872.56880  B =   2370.36730  C =   1914.72032 [MHz]
  Nuclear repulsion =  212.773876139940540

  Charge       = 0
  Multiplicity = 1
  Electrons    = 48
  Nalpha       = 24
  Nbeta        = 24

  ==> Algorithm <==

  SCF Algorithm Type is DF.
  DIIS enabled.
  MOM disabled.
  Fractional occupation disabled.
  Guess Type is SAD.
  Energy threshold   = 1.00e-10
  Density threshold  = 1.00e-10
  Integral threshold = 0.00e+00

  ==> Primary Basis <==

  Basis Set: AUG-CC-PVTZ
    Blend: AUG-CC-PVTZ
    Number of shells: 117
    Number of basis function: 349
    Number of Cartesian functions: 404
    Spherical Harmonics?: true
    Max angular momentum: 3

   => Loading Basis Set <=

    Name: (AUG-CC-PVTZ AUX)
    Role: JKFIT
    Keyword: DF_BASIS_SCF
    atoms 1    entry CL         line   816 file /home/xy3866/psi4conda/share/psi4/basis/aug-cc-pvtz-jkfit.gbs 
    atoms 2    entry O          line   286 file /home/xy3866/psi4conda/share/psi4/basis/aug-cc-pvtz-jkfit.gbs 
    atoms 3-5  entry C          line   162 file /home/xy3866/psi4conda/share/psi4/basis/aug-cc-pvtz-jkfit.gbs 
    atoms 6-10 entry H          line    70 file /home/xy3866/psi4conda/share/psi4/basis/aug-cc-pvtz-jkfit.gbs 

  ==> Pre-Iterations <==

   -------------------------------------------------------
    Irrep   Nso     Nmo     Nalpha   Nbeta   Ndocc  Nsocc
   -------------------------------------------------------
     A        349     349       0       0       0       0
   -------------------------------------------------------
    Total     349     349      24      24      24       0
   -------------------------------------------------------

  ==> Integral Setup <==

  DFHelper Memory: AOs need 0.749 GiB; user supplied 22.352 GiB. Using in-core AOs.

  ==> MemDFJK: Density-Fitted J/K Matrices <==

    J tasked:                   Yes
    K tasked:                   Yes
    wK tasked:                   No
    OpenMP threads:               8
    Memory [MiB]:             22888
    Algorithm:                 Core
    Schwarz Cutoff:           1E-12
    Mask sparsity (%):       0.8851
    Fitting Condition:        1E-10

   => Auxiliary Basis Set <=

  Basis Set: (AUG-CC-PVTZ AUX)
    Blend: AUG-CC-PVTZ-JKFIT
    Number of shells: 232
    Number of basis function: 792
    Number of Cartesian functions: 979
    Spherical Harmonics?: true
    Max angular momentum: 4

  Minimum eigenvalue in the overlap matrix is 1.8117554874E-05.
  Using Symmetric Orthogonalization.

  SCF Guess: Superposition of Atomic Densities via on-the-fly atomic UHF.

  ==> Iterations <==

                           Total Energy        Delta E     RMS |[F,P]|

   @DF-RHF iter SAD:  -650.22687338306025   -6.50227e+02   0.00000e+00 
   @DF-RHF iter   1:  -650.78627117209760   -5.59398e-01   1.74867e-03 DIIS
   @DF-RHF iter   2:  -650.90548924084669   -1.19218e-01   1.22168e-03 DIIS
   @DF-RHF iter   3:  -650.97126648330436   -6.57772e-02   2.17967e-04 DIIS
   @DF-RHF iter   4:  -650.97491200748209   -3.64552e-03   8.71325e-05 DIIS
   @DF-RHF iter   5:  -650.97569333764989   -7.81330e-04   1.95952e-05 DIIS
   @DF-RHF iter   6:  -650.97577072642093   -7.73888e-05   8.73311e-06 DIIS
   @DF-RHF iter   7:  -650.97578602455928   -1.52981e-05   3.57564e-06 DIIS
   @DF-RHF iter   8:  -650.97578875430952   -2.72975e-06   1.19955e-06 DIIS
   @DF-RHF iter   9:  -650.97578898995198   -2.35642e-07   3.18607e-07 DIIS
   @DF-RHF iter  10:  -650.97578900428925   -1.43373e-08   8.18188e-08 DIIS
   @DF-RHF iter  11:  -650.97578900537007   -1.08082e-09   2.49720e-08 DIIS
   @DF-RHF iter  12:  -650.97578900547626   -1.06184e-10   7.54636e-09 DIIS
   @DF-RHF iter  13:  -650.97578900548683   -1.05729e-11   2.59120e-09 DIIS
   @DF-RHF iter  14:  -650.97578900548740   -5.68434e-13   1.12600e-09 DIIS
   @DF-RHF iter  15:  -650.97578900548717    2.27374e-13   2.86466e-10 DIIS
   @DF-RHF iter  16:  -650.97578900548967   -2.50111e-12   5.02892e-11 DIIS
  Energy and wave function converged.


  ==> Post-Iterations <==

    Orbital Energies [Eh]
    ---------------------

    Doubly Occupied:                                                      

       1A   -104.852144     2A    -20.592927     3A    -11.410616  
       4A    -11.269446     5A    -11.236870     6A    -10.576516  
       7A     -8.043149     8A     -8.041465     9A     -8.041316  
      10A     -1.436548    11A     -1.138364    12A     -1.071089  
      13A     -0.911500    14A     -0.763929    15A     -0.683844  
      16A     -0.660818    17A     -0.655462    18A     -0.570288  
      19A     -0.562256    20A     -0.539298    21A     -0.516313  
      22A     -0.468482    23A     -0.467907    24A     -0.451442  

    Virtual:                                                              

      25A      0.025746    26A      0.039224    27A      0.040459  
      28A      0.047123    29A      0.063053    30A      0.075624  
      31A      0.087880    32A      0.099115    33A      0.104251  
      34A      0.110086    35A      0.116191    36A      0.126918  
      37A      0.131173    38A      0.135076    39A      0.137591  
      40A      0.145478    41A      0.149940    42A      0.161934  
      43A      0.177415    44A      0.191746    45A      0.195960  
      46A      0.207100    47A      0.214385    48A      0.217714  
      49A      0.237727    50A      0.238747    51A      0.258497  
      52A      0.275048    53A      0.276609    54A      0.282135  
      55A      0.291946    56A      0.305429    57A      0.323109  
      58A      0.326171    59A      0.337509    60A      0.346294  
      61A      0.353397    62A      0.356938    63A      0.358768  
      64A      0.367122    65A      0.382298    66A      0.387418  
      67A      0.400882    68A      0.406421    69A      0.422545  
      70A      0.426108    71A      0.426202    72A      0.436263  
      73A      0.440231    74A      0.447438    75A      0.448307  
      76A      0.465976    77A      0.482875    78A      0.492048  
      79A      0.496490    80A      0.506163    81A      0.507571  
      82A      0.513240    83A      0.516556    84A      0.524712  
      85A      0.538980    86A      0.565550    87A      0.570490  
      88A      0.579313    89A      0.591071    90A      0.605724  
      91A      0.616946    92A      0.618293    93A      0.665253  
      94A      0.679430    95A      0.723147    96A      0.728008  
      97A      0.739851    98A      0.745765    99A      0.753212  
     100A      0.778332   101A      0.801357   102A      0.812010  
     103A      0.816295   104A      0.825084   105A      0.825704  
     106A      0.838130   107A      0.848723   108A      0.854973  
     109A      0.871254   110A      0.883339   111A      0.889247  
     112A      0.900207   113A      0.904583   114A      0.905552  
     115A      0.922658   116A      0.936266   117A      0.944123  
     118A      0.949743   119A      0.961564   120A      0.968417  
     121A      0.979534   122A      0.999708   123A      1.013391  
     124A      1.014863   125A      1.024832   126A      1.043832  
     127A      1.068784   128A      1.070532   129A      1.073571  
     130A      1.081652   131A      1.086485   132A      1.088393  
     133A      1.109748   134A      1.116746   135A      1.133556  
     136A      1.146715   137A      1.156385   138A      1.165984  
     139A      1.186296   140A      1.188647   141A      1.205038  
     142A      1.217596   143A      1.246021   144A      1.259835  
     145A      1.280353   146A      1.281922   147A      1.284099  
     148A      1.289937   149A      1.315792   150A      1.321327  
     151A      1.363075   152A      1.366027   153A      1.384339  
     154A      1.412303   155A      1.432582   156A      1.448433  
     157A      1.453780   158A      1.485909   159A      1.499374  
     160A      1.526789   161A      1.553604   162A      1.569806  
     163A      1.572492   164A      1.578101   165A      1.592459  
     166A      1.601281   167A      1.610664   168A      1.630519  
     169A      1.644048   170A      1.651612   171A      1.681117  
     172A      1.681786   173A      1.689075   174A      1.700381  
     175A      1.709350   176A      1.740394   177A      1.755470  
     178A      1.776079   179A      1.783827   180A      1.790908  
     181A      1.818162   182A      1.833206   183A      1.858689  
     184A      1.880441   185A      1.883670   186A      1.890774  
     187A      1.893654   188A      1.921243   189A      1.928224  
     190A      1.938897   191A      1.981474   192A      1.992329  
     193A      2.001572   194A      2.064448   195A      2.107689  
     196A      2.133841   197A      2.138805   198A      2.188526  
     199A      2.206116   200A      2.224717   201A      2.228643  
     202A      2.257568   203A      2.266182   204A      2.289012  
     205A      2.319375   206A      2.363202   207A      2.371611  
     208A      2.393722   209A      2.468659   210A      2.469105  
     211A      2.508891   212A      2.550719   213A      2.571022  
     214A      2.608885   215A      2.610581   216A      2.643357  
     217A      2.662814   218A      2.665885   219A      2.690011  
     220A      2.713807   221A      2.757411   222A      2.778879  
     223A      2.811537   224A      2.824715   225A      2.906308  
     226A      2.957300   227A      2.970596   228A      3.066691  
     229A      3.067184   230A      3.104018   231A      3.131356  
     232A      3.138975   233A      3.170128   234A      3.177990  
     235A      3.193037   236A      3.230888   237A      3.240465  
     238A      3.256538   239A      3.304441   240A      3.339335  
     241A      3.366593   242A      3.388170   243A      3.433273  
     244A      3.434005   245A      3.445566   246A      3.498590  
     247A      3.526243   248A      3.554736   249A      3.586651  
     250A      3.615386   251A      3.642346   252A      3.664777  
     253A      3.668183   254A      3.691343   255A      3.696954  
     256A      3.730215   257A      3.732163   258A      3.741566  
     259A      3.790511   260A      3.797992   261A      3.844565  
     262A      3.869715   263A      3.878030   264A      3.911466  
     265A      3.930530   266A      3.939112   267A      3.950056  
     268A      3.989576   269A      4.006344   270A      4.042504  
     271A      4.061041   272A      4.119962   273A      4.151225  
     274A      4.151664   275A      4.159640   276A      4.170165  
     277A      4.189444   278A      4.228528   279A      4.246051  
     280A      4.256219   281A      4.342048   282A      4.342502  
     283A      4.413232   284A      4.416895   285A      4.473157  
     286A      4.521910   287A      4.563782   288A      4.581212  
     289A      4.581945   290A      4.636969   291A      4.692748  
     292A      4.715612   293A      4.727305   294A      4.796444  
     295A      4.821725   296A      4.825789   297A      4.837211  
     298A      4.884936   299A      4.959134   300A      4.974063  
     301A      5.026647   302A      5.029539   303A      5.065213  
     304A      5.081802   305A      5.142071   306A      5.160587  
     307A      5.176482   308A      5.237146   309A      5.319766  
     310A      5.332781   311A      5.370603   312A      5.412230  
     313A      5.454286   314A      5.481174   315A      5.571747  
     316A      5.585225   317A      5.586266   318A      5.671824  
     319A      5.687066   320A      5.821345   321A      5.821373  
     322A      5.976862   323A      6.039123   324A      6.069314  
     325A      6.109545   326A      6.165853   327A      6.198470  
     328A      6.312770   329A      6.384859   330A      6.673460  
     331A      6.716869   332A      6.730536   333A      6.789501  
     334A      6.805913   335A      6.974251   336A      7.034514  
     337A      7.188724   338A      7.298701   339A      7.357165  
     340A      7.364218   341A      7.504058   342A      7.659411  
     343A      7.666865   344A      7.807896   345A      7.890632  
     346A     15.018476   347A     16.120951   348A     18.017533  
     349A     18.581363  

    Final Occupation by Irrep:
              A 
    DOCC [    24 ]

  @DF-RHF Final Energy:  -650.97578900548967

   => Energetics <=

    Nuclear Repulsion Energy =            212.7738761399405405
    One-Electron Energy =               -1317.5753541903463884
    Two-Electron Energy =                 453.8256890449162029
    Total Energy =                       -650.9757890054896734

Computation Completed

*** tstop() called on node101.bme.utexas.edu at Tue Nov  3 23:13:52 2020
Module time:
	user time   =      44.47 seconds =       0.74 minutes
	system time =       1.31 seconds =       0.02 minutes
	total time  =          7 seconds =       0.12 minutes
Total time:
	user time   =      44.47 seconds =       0.74 minutes
	system time =       1.31 seconds =       0.02 minutes
	total time  =          7 seconds =       0.12 minutes
   => Loading Basis Set <=

    Name: (AUG-CC-PVTZ AUX)
    Role: RIFIT
    Keyword: DF_BASIS_MP2
    atoms 1    entry CL         line   742 file /home/xy3866/psi4conda/share/psi4/basis/aug-cc-pvtz-ri.gbs 
    atoms 2    entry O          line   264 file /home/xy3866/psi4conda/share/psi4/basis/aug-cc-pvtz-ri.gbs 
    atoms 3-5  entry C          line   148 file /home/xy3866/psi4conda/share/psi4/basis/aug-cc-pvtz-ri.gbs 
    atoms 6-10 entry H          line    30 file /home/xy3866/psi4conda/share/psi4/basis/aug-cc-pvtz-ri.gbs 


*** tstart() called on node101.bme.utexas.edu
*** at Tue Nov  3 23:13:52 2020


  //>>>>>>>>>>>>>>>>>>>>>>>>>>>>>>>>>>>//
  //               DFMP2               //
  //<<<<<<<<<<<<<<<<<<<<<<<<<<<<<<<<<<<//

	 --------------------------------------------------------
	                          DF-MP2                         
	      2nd-Order Density-Fitted Moller-Plesset Theory     
	              RMP2 Wavefunction,   8 Threads             
	                                                         
	        Rob Parrish, Justin Turney, Andy Simmonett,      
	           Ed Hohenstein, and C. David Sherrill          
	 --------------------------------------------------------

   => Auxiliary Basis Set <=

  Basis Set: (AUG-CC-PVTZ AUX)
    Blend: AUG-CC-PVTZ-RI
    Number of shells: 219
    Number of basis function: 801
    Number of Cartesian functions: 1010
    Spherical Harmonics?: true
    Max angular momentum: 4

	 --------------------------------------------------------
	                 NBF =   349, NAUX =   801
	 --------------------------------------------------------
	   CLASS    FOCC     OCC    AOCC    AVIR     VIR    FVIR
	   PAIRS       0      24      24     325     325       0
	 --------------------------------------------------------

  DFHelper Memory: AOs need 0.749 GiB; user supplied 22.352 GiB. Using in-core AOs.


         ------------------------------------------------------------
                                     CPHF                           
                                  Rob Parrish                       
         ------------------------------------------------------------

  ==> Geometry <==

    Molecular point group: c1
    Full point group: C1

    Geometry (in Angstrom), charge = 0, multiplicity = 1:

       Center              X                  Y                   Z               Mass       
    ------------   -----------------  -----------------  -----------------  -----------------
         CL          -1.649674971124    -0.337920823866    -0.000013656712    34.968852682000
         O            0.276161328876     1.482640576134     0.000015643288    15.994914619570
         C            1.062728028876    -0.792318823866     0.000041343288    12.000000000000
         C            2.481293028876    -0.240144823866    -0.000033656712    12.000000000000
         C            0.033738028876     0.305928176134     0.000008343288    12.000000000000
         H            0.868654028876    -1.423494823866     0.874403343288     1.007825032230
         H            0.868604028876    -1.423625823866    -0.874211656712     1.007825032230
         H            2.658996028876     0.376979176134    -0.882788656712     1.007825032230
         H            2.659048028876     0.377071176134     0.882645343288     1.007825032230
         H            3.201394028876    -1.061822823866    -0.000013656712     1.007825032230

  Nuclear repulsion =  212.773876139940540
  Reference energy  = -650.975789005489673

  ==> Basis Set <==

  Basis Set: AUG-CC-PVTZ
    Blend: AUG-CC-PVTZ
    Number of shells: 117
    Number of basis function: 349
    Number of Cartesian functions: 404
    Spherical Harmonics?: true
    Max angular momentum: 3

  ==> CGRSolver (by Rob Parrish) <==

   Number of roots    =         1
   Preconditioning    =    JACOBI
   Convergence cutoff =     1E-06
   Maximum iterations =       100

  ==> CPHFRHamiltonian (by Rob Parrish) <== 

  ==> MemDFJK: Density-Fitted J/K Matrices <==

    J tasked:                   Yes
    K tasked:                   Yes
    wK tasked:                   No
    OpenMP threads:               8
    Memory [MiB]:             22888
    Algorithm:                 Core
    Schwarz Cutoff:           1E-12
    Mask sparsity (%):       0.8851
    Fitting Condition:        1E-10

   => Auxiliary Basis Set <=

  Basis Set: (AUG-CC-PVTZ AUX)
    Blend: AUG-CC-PVTZ-JKFIT
    Number of shells: 232
    Number of basis function: 792
    Number of Cartesian functions: 979
    Spherical Harmonics?: true
    Max angular momentum: 4

  ==> CPHF Iterations <==

  => Iterations <=

             Iter  Converged  Remaining    Residual
  CGR           1          0          1   1.278E-01
  CGR           2          0          1   3.767E-02
  CGR           3          0          1   1.407E-02
  CGR           4          0          1   4.873E-03
  CGR           5          0          1   1.743E-03
  CGR           6          0          1   6.898E-04
  CGR           7          0          1   2.078E-04
  CGR           8          0          1   8.342E-05
  CGR           9          0          1   2.320E-05
  CGR          10          0          1   6.648E-06
  CGR          11          0          1   1.686E-06
  CGR          12          1          0   4.594E-07

    CGRSolver converged.

	-----------------------------------------------------------
	 ==================> DF-MP2 Energies <==================== 
	-----------------------------------------------------------
	 Reference Energy          =    -650.9757890054896734 [Eh]
	 Singles Energy            =      -0.0000000000000000 [Eh]
	 Same-Spin Energy          =      -0.2528974525458239 [Eh]
	 Opposite-Spin Energy      =      -0.8000177951508549 [Eh]
	 Correlation Energy        =      -1.0529152476966788 [Eh]
	 Total Energy              =    -652.0287042531863335 [Eh]
	-----------------------------------------------------------
	 ================> DF-SCS-MP2 Energies <================== 
	-----------------------------------------------------------
	 SCS Same-Spin Scale       =       0.3333333333333333 [-]
	 SCS Opposite-Spin Scale   =       1.2000000000000000 [-]
	 SCS Same-Spin Energy      =      -0.0842991508486080 [Eh]
	 SCS Opposite-Spin Energy  =      -0.9600213541810259 [Eh]
	 SCS Correlation Energy    =      -1.0443205050296338 [Eh]
	 SCS Total Energy          =    -652.0201095105193190 [Eh]
	-----------------------------------------------------------



Properties will be evaluated at  -0.000000,  -0.000000,  -0.000000 [a0]

Properties computed using the MP2 density matrix

  Nuclear Dipole Moment: [e a0]
     X:    11.1268      Y:    -2.6411      Z:     0.0000

  Electronic Dipole Moment: [e a0]
     X:   -10.4063      Y:     1.8441      Z:    -0.0000

  Dipole Moment: [e a0]
     X:     0.7206      Y:    -0.7971      Z:     0.0000     Total:     1.0745

  Dipole Moment: [D]
     X:     1.8315      Y:    -2.0259      Z:     0.0000     Total:     2.7310


*** tstop() called on node101.bme.utexas.edu at Tue Nov  3 23:14:12 2020
Module time:
	user time   =     123.40 seconds =       2.06 minutes
	system time =       3.41 seconds =       0.06 minutes
	total time  =         20 seconds =       0.33 minutes
Total time:
	user time   =     168.65 seconds =       2.81 minutes
	system time =       4.75 seconds =       0.08 minutes
	total time  =         27 seconds =       0.45 minutes

    Psi4 stopped on: Tuesday, 03 November 2020 11:14PM
    Psi4 wall time for execution: 0:00:27.37

*** Psi4 exiting successfully. Buy a developer a beer!
