
    -----------------------------------------------------------------------
          Psi4: An Open-Source Ab Initio Electronic Structure Package
                               Psi4 1.3.2 release

                         Git: Rev {HEAD} ecbda83 


    R. M. Parrish, L. A. Burns, D. G. A. Smith, A. C. Simmonett,
    A. E. DePrince III, E. G. Hohenstein, U. Bozkaya, A. Yu. Sokolov,
    R. Di Remigio, R. M. Richard, J. F. Gonthier, A. M. James,
    H. R. McAlexander, A. Kumar, M. Saitow, X. Wang, B. P. Pritchard,
    P. Verma, H. F. Schaefer III, K. Patkowski, R. A. King, E. F. Valeev,
    F. A. Evangelista, J. M. Turney, T. D. Crawford, and C. D. Sherrill,
    J. Chem. Theory Comput. 13(7) pp 3185--3197 (2017).
    (doi: 10.1021/acs.jctc.7b00174)


                         Additional Contributions by
    P. Kraus, H. Kruse, M. H. Lechner, M. C. Schieber, R. A. Shaw,
    A. Alenaizan, R. Galvelis, Z. L. Glick, S. Lehtola, and J. P. Misiewicz

    -----------------------------------------------------------------------


    Psi4 started on: Tuesday, 03 November 2020 11:12PM

    Process ID: 72011
    Host:       node101.bme.utexas.edu
    PSIDATADIR: /home/xy3866/psi4conda/share/psi4
    Memory:     500.0 MiB
    Threads:    8
    
  ==> Input File <==

--------------------------------------------------------------------------
#psi4
#
memory 32 gb

molecule  {
0 1
 Cl       -1.7654740    -0.3100940    -0.0000140
  O        0.1191480     1.5182110     0.0000140
  C        0.9469290    -0.7644920     0.0000410
  C        2.3654940    -0.2123180    -0.0000340
  C        0.1047423     0.4052010     0.0000104
  H        0.7528550    -1.3956680     0.8744030
  H        0.7528050    -1.3957990    -0.8742120
  H        2.5431970     0.4048060    -0.8827890
  H        2.5432490     0.4048980     0.8826450
  H        3.0855950    -1.0339960    -0.0000140
units angstrom
no_reorient  #important for SAPT in psi4, default
symmetry c1  #important for SAPT in psi4, default
}

set PROPERTIES_ORIGIN ["COM"]
properties('MP2/aug-cc-pvtz', properties = ['dipole'])
--------------------------------------------------------------------------

  Memory set to  29.802 GiB by Python driver.
    SCF Algorithm Type (re)set to DF.

*** tstart() called on node101.bme.utexas.edu
*** at Tue Nov  3 23:12:44 2020

   => Loading Basis Set <=

    Name: AUG-CC-PVTZ
    Role: ORBITAL
    Keyword: BASIS
    atoms 1    entry CL         line   984 file /home/xy3866/psi4conda/share/psi4/basis/aug-cc-pvtz.gbs 
    atoms 2    entry O          line   327 file /home/xy3866/psi4conda/share/psi4/basis/aug-cc-pvtz.gbs 
    atoms 3-5  entry C          line   235 file /home/xy3866/psi4conda/share/psi4/basis/aug-cc-pvtz.gbs 
    atoms 6-10 entry H          line    36 file /home/xy3866/psi4conda/share/psi4/basis/aug-cc-pvtz.gbs 


         ---------------------------------------------------------
                                   SCF
               by Justin Turney, Rob Parrish, Andy Simmonett
                          and Daniel G. A. Smith
                              RHF Reference
                        8 Threads,  30517 MiB Core
         ---------------------------------------------------------

  ==> Geometry <==

    Molecular point group: c1
    Full point group: C1

    Geometry (in Angstrom), charge = 0, multiplicity = 1:

       Center              X                  Y                   Z               Mass       
    ------------   -----------------  -----------------  -----------------  -----------------
         CL          -1.666874652004    -0.348585817048    -0.000013743737    34.968852682000
         O            0.217747347996     1.479719182952     0.000014256263    15.994914619570
         C            1.045528347996    -0.802983817048     0.000041256263    12.000000000000
         C            2.464093347996    -0.250809817048    -0.000033743737    12.000000000000
         C            0.203341647996     0.366709182952     0.000010656263    12.000000000000
         H            0.851454347996    -1.434159817048     0.874403256263     1.007825032230
         H            0.851404347996    -1.434290817048    -0.874211743737     1.007825032230
         H            2.641796347996     0.366314182952    -0.882788743737     1.007825032230
         H            2.641848347996     0.366406182952     0.882645256263     1.007825032230
         H            3.184194347996    -1.072487817048    -0.000013743737     1.007825032230

  Running in c1 symmetry.

  Rotational constants: A =      0.29111  B =      0.07899  C =      0.06359 [cm^-1]
  Rotational constants: A =   8727.22569  B =   2368.13645  C =   1906.41804 [MHz]
  Nuclear repulsion =  212.731132956272774

  Charge       = 0
  Multiplicity = 1
  Electrons    = 48
  Nalpha       = 24
  Nbeta        = 24

  ==> Algorithm <==

  SCF Algorithm Type is DF.
  DIIS enabled.
  MOM disabled.
  Fractional occupation disabled.
  Guess Type is SAD.
  Energy threshold   = 1.00e-10
  Density threshold  = 1.00e-10
  Integral threshold = 0.00e+00

  ==> Primary Basis <==

  Basis Set: AUG-CC-PVTZ
    Blend: AUG-CC-PVTZ
    Number of shells: 117
    Number of basis function: 349
    Number of Cartesian functions: 404
    Spherical Harmonics?: true
    Max angular momentum: 3

   => Loading Basis Set <=

    Name: (AUG-CC-PVTZ AUX)
    Role: JKFIT
    Keyword: DF_BASIS_SCF
    atoms 1    entry CL         line   816 file /home/xy3866/psi4conda/share/psi4/basis/aug-cc-pvtz-jkfit.gbs 
    atoms 2    entry O          line   286 file /home/xy3866/psi4conda/share/psi4/basis/aug-cc-pvtz-jkfit.gbs 
    atoms 3-5  entry C          line   162 file /home/xy3866/psi4conda/share/psi4/basis/aug-cc-pvtz-jkfit.gbs 
    atoms 6-10 entry H          line    70 file /home/xy3866/psi4conda/share/psi4/basis/aug-cc-pvtz-jkfit.gbs 

  ==> Pre-Iterations <==

   -------------------------------------------------------
    Irrep   Nso     Nmo     Nalpha   Nbeta   Ndocc  Nsocc
   -------------------------------------------------------
     A        349     349       0       0       0       0
   -------------------------------------------------------
    Total     349     349      24      24      24       0
   -------------------------------------------------------

  ==> Integral Setup <==

  DFHelper Memory: AOs need 0.749 GiB; user supplied 22.352 GiB. Using in-core AOs.

  ==> MemDFJK: Density-Fitted J/K Matrices <==

    J tasked:                   Yes
    K tasked:                   Yes
    wK tasked:                   No
    OpenMP threads:               8
    Memory [MiB]:             22888
    Algorithm:                 Core
    Schwarz Cutoff:           1E-12
    Mask sparsity (%):       0.8949
    Fitting Condition:        1E-10

   => Auxiliary Basis Set <=

  Basis Set: (AUG-CC-PVTZ AUX)
    Blend: AUG-CC-PVTZ-JKFIT
    Number of shells: 232
    Number of basis function: 792
    Number of Cartesian functions: 979
    Spherical Harmonics?: true
    Max angular momentum: 4

  Minimum eigenvalue in the overlap matrix is 1.5313029647E-05.
  Using Symmetric Orthogonalization.

  SCF Guess: Superposition of Atomic Densities via on-the-fly atomic UHF.

  ==> Iterations <==

                           Total Energy        Delta E     RMS |[F,P]|

   @DF-RHF iter SAD:  -650.31688314916096   -6.50317e+02   0.00000e+00 
   @DF-RHF iter   1:  -650.80270049609749   -4.85817e-01   1.59996e-03 DIIS
   @DF-RHF iter   2:  -650.91932137459480   -1.16621e-01   9.26364e-04 DIIS
   @DF-RHF iter   3:  -650.95643196206061   -3.71106e-02   1.94284e-04 DIIS
   @DF-RHF iter   4:  -650.95916907530375   -2.73711e-03   7.65440e-05 DIIS
   @DF-RHF iter   5:  -650.95969980460814   -5.30729e-04   1.56677e-05 DIIS
   @DF-RHF iter   6:  -650.95974245732805   -4.26527e-05   6.71415e-06 DIIS
   @DF-RHF iter   7:  -650.95975045039097   -7.99306e-06   2.76888e-06 DIIS
   @DF-RHF iter   8:  -650.95975241295082   -1.96256e-06   8.56776e-07 DIIS
   @DF-RHF iter   9:  -650.95975257888495   -1.65934e-07   2.17774e-07 DIIS
   @DF-RHF iter  10:  -650.95975258489432   -6.00937e-09   6.76705e-08 DIIS
   @DF-RHF iter  11:  -650.95975258542114   -5.26825e-10   1.44154e-08 DIIS
   @DF-RHF iter  12:  -650.95975258546173   -4.05862e-11   4.42505e-09 DIIS
   @DF-RHF iter  13:  -650.95975258546741   -5.68434e-12   1.45126e-09 DIIS
   @DF-RHF iter  14:  -650.95975258546594    1.47793e-12   5.01712e-10 DIIS
   @DF-RHF iter  15:  -650.95975258546605   -1.13687e-13   1.93438e-10 DIIS
   @DF-RHF iter  16:  -650.95975258546684   -7.95808e-13   4.29567e-11 DIIS
  Energy and wave function converged.


  ==> Post-Iterations <==

    Orbital Energies [Eh]
    ---------------------

    Doubly Occupied:                                                      

       1A   -104.790841     2A    -20.633783     3A    -11.423135  
       4A    -11.288204     5A    -11.253796     6A    -10.515710  
       7A     -7.982054     8A     -7.980893     9A     -7.980838  
      10A     -1.530170    11A     -1.129170    12A     -1.047081  
      13A     -0.927722    14A     -0.791822    15A     -0.728729  
      16A     -0.695426    17A     -0.675375    18A     -0.612942  
      19A     -0.578705    20A     -0.564555    21A     -0.539688  
      22A     -0.427028    23A     -0.424416    24A     -0.419961  

    Virtual:                                                              

      25A      0.021143    26A      0.036367    27A      0.037197  
      28A      0.044514    29A      0.059588    30A      0.080145  
      31A      0.089521    32A      0.094462    33A      0.100247  
      34A      0.109424    35A      0.119744    36A      0.120722  
      37A      0.128389    38A      0.129962    39A      0.136430  
      40A      0.146600    41A      0.148136    42A      0.169544  
      43A      0.181064    44A      0.185575    45A      0.195479  
      46A      0.201934    47A      0.205258    48A      0.211289  
      49A      0.230707    50A      0.234778    51A      0.256242  
      52A      0.265818    53A      0.270661    54A      0.282714  
      55A      0.290160    56A      0.303739    57A      0.312343  
      58A      0.321767    59A      0.335013    60A      0.339186  
      61A      0.345476    62A      0.349700    63A      0.350798  
      64A      0.369771    65A      0.371148    66A      0.382318  
      67A      0.391832    68A      0.404665    69A      0.417050  
      70A      0.420117    71A      0.424893    72A      0.435262  
      73A      0.438011    74A      0.452773    75A      0.456532  
      76A      0.472713    77A      0.481554    78A      0.488882  
      79A      0.496368    80A      0.502366    81A      0.503348  
      82A      0.512770    83A      0.515378    84A      0.522519  
      85A      0.535535    86A      0.564553    87A      0.568020  
      88A      0.578987    89A      0.585354    90A      0.598871  
      91A      0.613549    92A      0.614434    93A      0.664069  
      94A      0.686704    95A      0.717027    96A      0.722134  
      97A      0.739473    98A      0.756069    99A      0.760772  
     100A      0.789313   101A      0.790219   102A      0.798903  
     103A      0.811493   104A      0.814525   105A      0.822152  
     106A      0.841921   107A      0.850445   108A      0.855044  
     109A      0.872066   110A      0.879087   111A      0.879411  
     112A      0.882478   113A      0.905292   114A      0.906030  
     115A      0.917144   116A      0.934866   117A      0.942613  
     118A      0.962434   119A      0.969654   120A      0.973331  
     121A      0.986149   122A      0.994007   123A      1.012342  
     124A      1.014345   125A      1.029209   126A      1.035384  
     127A      1.052282   128A      1.054715   129A      1.064656  
     130A      1.079710   131A      1.084497   132A      1.093334  
     133A      1.104399   134A      1.113163   135A      1.138992  
     136A      1.139222   137A      1.149003   138A      1.156880  
     139A      1.185029   140A      1.185043   141A      1.188405  
     142A      1.208080   143A      1.231322   144A      1.261050  
     145A      1.262556   146A      1.277045   147A      1.287325  
     148A      1.296770   149A      1.312157   150A      1.324036  
     151A      1.346846   152A      1.360320   153A      1.373280  
     154A      1.387517   155A      1.414230   156A      1.425274  
     157A      1.449332   158A      1.488846   159A      1.501056  
     160A      1.509541   161A      1.520485   162A      1.562282  
     163A      1.568712   164A      1.572409   165A      1.574752  
     166A      1.591868   167A      1.612346   168A      1.615833  
     169A      1.637221   170A      1.650942   171A      1.655904  
     172A      1.673892   173A      1.680148   174A      1.689743  
     175A      1.712730   176A      1.726597   177A      1.742130  
     178A      1.755794   179A      1.768373   180A      1.768515  
     181A      1.807106   182A      1.829886   183A      1.850377  
     184A      1.855257   185A      1.882127   186A      1.893085  
     187A      1.913181   188A      1.921302   189A      1.944730  
     190A      1.954141   191A      1.973935   192A      1.980905  
     193A      2.005438   194A      2.053543   195A      2.096570  
     196A      2.129532   197A      2.140566   198A      2.177244  
     199A      2.185834   200A      2.213384   201A      2.227430  
     202A      2.238852   203A      2.255942   204A      2.288933  
     205A      2.304825   206A      2.351239   207A      2.359493  
     208A      2.394466   209A      2.420916   210A      2.460730  
     211A      2.502524   212A      2.529611   213A      2.544024  
     214A      2.589195   215A      2.617886   216A      2.640602  
     217A      2.695053   218A      2.704438   219A      2.713481  
     220A      2.715554   221A      2.746310   222A      2.817296  
     223A      2.832319   224A      2.886463   225A      2.886678  
     226A      2.961967   227A      2.985722   228A      3.019564  
     229A      3.058854   230A      3.112764   231A      3.153997  
     232A      3.156743   233A      3.170410   234A      3.181126  
     235A      3.245326   236A      3.264594   237A      3.266440  
     238A      3.300314   239A      3.302836   240A      3.340440  
     241A      3.359544   242A      3.375287   243A      3.377295  
     244A      3.399396   245A      3.466077   246A      3.470765  
     247A      3.491781   248A      3.512646   249A      3.541021  
     250A      3.608148   251A      3.615509   252A      3.643425  
     253A      3.649966   254A      3.697049   255A      3.697920  
     256A      3.704020   257A      3.708896   258A      3.756625  
     259A      3.779778   260A      3.780015   261A      3.824720  
     262A      3.828292   263A      3.869987   264A      3.896602  
     265A      3.901426   266A      3.925474   267A      3.936324  
     268A      3.972682   269A      3.978373   270A      4.022219  
     271A      4.032641   272A      4.102239   273A      4.124758  
     274A      4.131903   275A      4.159031   276A      4.186245  
     277A      4.193179   278A      4.214752   279A      4.274833  
     280A      4.291073   281A      4.328914   282A      4.396053  
     283A      4.399539   284A      4.412454   285A      4.447098  
     286A      4.480715   287A      4.595203   288A      4.600610  
     289A      4.616148   290A      4.653197   291A      4.695577  
     292A      4.730384   293A      4.781575   294A      4.804321  
     295A      4.808888   296A      4.837600   297A      4.852577  
     298A      4.895832   299A      4.953538   300A      4.964632  
     301A      5.041106   302A      5.041772   303A      5.081199  
     304A      5.084341   305A      5.121249   306A      5.179940  
     307A      5.250777   308A      5.317904   309A      5.360743  
     310A      5.388265   311A      5.400717   312A      5.402727  
     313A      5.515716   314A      5.519379   315A      5.546687  
     316A      5.610720   317A      5.651015   318A      5.692777  
     319A      5.732022   320A      5.816853   321A      5.906458  
     322A      5.981442   323A      6.013172   324A      6.050638  
     325A      6.103372   326A      6.184502   327A      6.185413  
     328A      6.311271   329A      6.473724   330A      6.623613  
     331A      6.671350   332A      6.697035   333A      6.758449  
     334A      6.791675   335A      6.969186   336A      7.046328  
     337A      7.280800   338A      7.306974   339A      7.409517  
     340A      7.485257   341A      7.573310   342A      7.632675  
     343A      7.686901   344A      7.768704   345A      7.944961  
     346A     16.716291   347A     18.014083   348A     18.616521  
     349A     18.909791  

    Final Occupation by Irrep:
              A 
    DOCC [    24 ]

  @DF-RHF Final Energy:  -650.95975258546684

   => Energetics <=

    Nuclear Repulsion Energy =            212.7311329562727735
    One-Electron Energy =               -1317.4976784800587666
    Two-Electron Energy =                 453.8067929383191199
    Total Energy =                       -650.9597525854667310

Computation Completed

*** tstop() called on node101.bme.utexas.edu at Tue Nov  3 23:12:52 2020
Module time:
	user time   =      45.65 seconds =       0.76 minutes
	system time =       1.22 seconds =       0.02 minutes
	total time  =          8 seconds =       0.13 minutes
Total time:
	user time   =      45.65 seconds =       0.76 minutes
	system time =       1.22 seconds =       0.02 minutes
	total time  =          8 seconds =       0.13 minutes
   => Loading Basis Set <=

    Name: (AUG-CC-PVTZ AUX)
    Role: RIFIT
    Keyword: DF_BASIS_MP2
    atoms 1    entry CL         line   742 file /home/xy3866/psi4conda/share/psi4/basis/aug-cc-pvtz-ri.gbs 
    atoms 2    entry O          line   264 file /home/xy3866/psi4conda/share/psi4/basis/aug-cc-pvtz-ri.gbs 
    atoms 3-5  entry C          line   148 file /home/xy3866/psi4conda/share/psi4/basis/aug-cc-pvtz-ri.gbs 
    atoms 6-10 entry H          line    30 file /home/xy3866/psi4conda/share/psi4/basis/aug-cc-pvtz-ri.gbs 


*** tstart() called on node101.bme.utexas.edu
*** at Tue Nov  3 23:12:52 2020


  //>>>>>>>>>>>>>>>>>>>>>>>>>>>>>>>>>>>//
  //               DFMP2               //
  //<<<<<<<<<<<<<<<<<<<<<<<<<<<<<<<<<<<//

	 --------------------------------------------------------
	                          DF-MP2                         
	      2nd-Order Density-Fitted Moller-Plesset Theory     
	              RMP2 Wavefunction,   8 Threads             
	                                                         
	        Rob Parrish, Justin Turney, Andy Simmonett,      
	           Ed Hohenstein, and C. David Sherrill          
	 --------------------------------------------------------

   => Auxiliary Basis Set <=

  Basis Set: (AUG-CC-PVTZ AUX)
    Blend: AUG-CC-PVTZ-RI
    Number of shells: 219
    Number of basis function: 801
    Number of Cartesian functions: 1010
    Spherical Harmonics?: true
    Max angular momentum: 4

	 --------------------------------------------------------
	                 NBF =   349, NAUX =   801
	 --------------------------------------------------------
	   CLASS    FOCC     OCC    AOCC    AVIR     VIR    FVIR
	   PAIRS       0      24      24     325     325       0
	 --------------------------------------------------------

  DFHelper Memory: AOs need 0.749 GiB; user supplied 22.352 GiB. Using in-core AOs.


         ------------------------------------------------------------
                                     CPHF                           
                                  Rob Parrish                       
         ------------------------------------------------------------

  ==> Geometry <==

    Molecular point group: c1
    Full point group: C1

    Geometry (in Angstrom), charge = 0, multiplicity = 1:

       Center              X                  Y                   Z               Mass       
    ------------   -----------------  -----------------  -----------------  -----------------
         CL          -1.666874652004    -0.348585817048    -0.000013743737    34.968852682000
         O            0.217747347996     1.479719182952     0.000014256263    15.994914619570
         C            1.045528347996    -0.802983817048     0.000041256263    12.000000000000
         C            2.464093347996    -0.250809817048    -0.000033743737    12.000000000000
         C            0.203341647996     0.366709182952     0.000010656263    12.000000000000
         H            0.851454347996    -1.434159817048     0.874403256263     1.007825032230
         H            0.851404347996    -1.434290817048    -0.874211743737     1.007825032230
         H            2.641796347996     0.366314182952    -0.882788743737     1.007825032230
         H            2.641848347996     0.366406182952     0.882645256263     1.007825032230
         H            3.184194347996    -1.072487817048    -0.000013743737     1.007825032230

  Nuclear repulsion =  212.731132956272774
  Reference energy  = -650.959752585466845

  ==> Basis Set <==

  Basis Set: AUG-CC-PVTZ
    Blend: AUG-CC-PVTZ
    Number of shells: 117
    Number of basis function: 349
    Number of Cartesian functions: 404
    Spherical Harmonics?: true
    Max angular momentum: 3

  ==> CGRSolver (by Rob Parrish) <==

   Number of roots    =         1
   Preconditioning    =    JACOBI
   Convergence cutoff =     1E-06
   Maximum iterations =       100

  ==> CPHFRHamiltonian (by Rob Parrish) <== 

  ==> MemDFJK: Density-Fitted J/K Matrices <==

    J tasked:                   Yes
    K tasked:                   Yes
    wK tasked:                   No
    OpenMP threads:               8
    Memory [MiB]:             22888
    Algorithm:                 Core
    Schwarz Cutoff:           1E-12
    Mask sparsity (%):       0.8949
    Fitting Condition:        1E-10

   => Auxiliary Basis Set <=

  Basis Set: (AUG-CC-PVTZ AUX)
    Blend: AUG-CC-PVTZ-JKFIT
    Number of shells: 232
    Number of basis function: 792
    Number of Cartesian functions: 979
    Spherical Harmonics?: true
    Max angular momentum: 4

  ==> CPHF Iterations <==

  => Iterations <=

             Iter  Converged  Remaining    Residual
  CGR           1          0          1   1.175E-01
  CGR           2          0          1   3.637E-02
  CGR           3          0          1   1.569E-02
  CGR           4          0          1   6.279E-03
  CGR           5          0          1   2.082E-03
  CGR           6          0          1   6.336E-04
  CGR           7          0          1   1.468E-04
  CGR           8          0          1   3.977E-05
  CGR           9          0          1   9.300E-06
  CGR          10          0          1   2.491E-06
  CGR          11          1          0   6.754E-07

    CGRSolver converged.

	-----------------------------------------------------------
	 ==================> DF-MP2 Energies <==================== 
	-----------------------------------------------------------
	 Reference Energy          =    -650.9597525854668447 [Eh]
	 Singles Energy            =      -0.0000000000000000 [Eh]
	 Same-Spin Energy          =      -0.2517330407807169 [Eh]
	 Opposite-Spin Energy      =      -0.7961785560858841 [Eh]
	 Correlation Energy        =      -1.0479115968666011 [Eh]
	 Total Energy              =    -652.0076641823334285 [Eh]
	-----------------------------------------------------------
	 ================> DF-SCS-MP2 Energies <================== 
	-----------------------------------------------------------
	 SCS Same-Spin Scale       =       0.3333333333333333 [-]
	 SCS Opposite-Spin Scale   =       1.2000000000000000 [-]
	 SCS Same-Spin Energy      =      -0.0839110135935723 [Eh]
	 SCS Opposite-Spin Energy  =      -0.9554142673030608 [Eh]
	 SCS Correlation Energy    =      -1.0393252808966331 [Eh]
	 SCS Total Energy          =    -651.9990778663634501 [Eh]
	-----------------------------------------------------------



Properties will be evaluated at  -0.000000,  -0.000000,  -0.000000 [a0]

Properties computed using the MP2 density matrix

  Nuclear Dipole Moment: [e a0]
     X:    11.0617      Y:    -2.6814      Z:     0.0000

  Electronic Dipole Moment: [e a0]
     X:    -9.4144      Y:     2.1982      Z:    -0.0000

  Dipole Moment: [e a0]
     X:     1.6472      Y:    -0.4831      Z:     0.0000     Total:     1.7166

  Dipole Moment: [D]
     X:     4.1869      Y:    -1.2280      Z:     0.0001     Total:     4.3632


*** tstop() called on node101.bme.utexas.edu at Tue Nov  3 23:13:12 2020
Module time:
	user time   =     124.63 seconds =       2.08 minutes
	system time =       3.32 seconds =       0.06 minutes
	total time  =         20 seconds =       0.33 minutes
Total time:
	user time   =     171.05 seconds =       2.85 minutes
	system time =       4.57 seconds =       0.08 minutes
	total time  =         28 seconds =       0.47 minutes

    Psi4 stopped on: Tuesday, 03 November 2020 11:13PM
    Psi4 wall time for execution: 0:00:27.98

*** Psi4 exiting successfully. Buy a developer a beer!
