
    -----------------------------------------------------------------------
          Psi4: An Open-Source Ab Initio Electronic Structure Package
                               Psi4 1.4a3.dev225 

                         Git: Rev {master} 7105e37 


    D. G. A. Smith, L. A. Burns, A. C. Simmonett, R. M. Parrish,
    M. C. Schieber, R. Galvelis, P. Kraus, H. Kruse, R. Di Remigio,
    A. Alenaizan, A. M. James, S. Lehtola, J. P. Misiewicz, M. Scheurer,
    R. A. Shaw, J. B. Schriber, Y. Xie, Z. L. Glick, D. A. Sirianni,
    J. S. O'Brien, J. M. Waldrop, A. Kumar, E. G. Hohenstein,
    B. P. Pritchard, B. R. Brooks, H. F. Schaefer III, A. Yu. Sokolov,
    K. Patkowski, A. E. DePrince III, U. Bozkaya, R. A. King,
    F. A. Evangelista, J. M. Turney, T. D. Crawford, C. D. Sherrill,
    J. Chem. Phys. 152(18) 184108 (2020). https://doi.org/10.1063/5.0006002

                            Additional Code Authors
    E. T. Seidl, C. L. Janssen, E. F. Valeev, M. L. Leininger,
    J. F. Gonthier, R. M. Richard, H. R. McAlexander, M. Saitow, X. Wang,
    P. Verma, and M. H. Lechner

             Previous Authors, Complete List of Code Contributors,
                       and Citations for Specific Modules
    https://github.com/psi4/psi4/blob/master/codemeta.json
    https://github.com/psi4/psi4/graphs/contributors
    http://psicode.org/psi4manual/master/introduction.html#citing-psifour

    -----------------------------------------------------------------------


    Psi4 started on: Thursday, 01 April 2021 03:30AM

    Process ID: 133137
    Host:       c435-033.stampede2.tacc.utexas.edu
    PSIDATADIR: /home1/07844/xy3866/miniconda3/envs/p4env/share/psi4
    Memory:     500.0 MiB
    Threads:    8
    
  ==> Input File <==

--------------------------------------------------------------------------
#psi4
#
memory 32 gb

molecule  {
0 1
  S       -1.0050790    -1.7376190    -0.0151270
  O        2.1293390     1.6156530    -0.0602560
  N        1.4328010    -0.5712990    -0.0002240
  C       -2.0712570     0.6114660     0.0102110
  C        0.0482060    -0.3546190     0.0027700
  C       -0.6600310     0.8254930     0.0130800
  C       -2.4003070    -0.7218620    -0.0026000
  C       -3.0748160     1.7280810     0.0214760
  C        2.3846560     0.4642693    -0.0265648
  C        3.8156290    -0.1071950     0.0454080
  H       -0.1788490     1.7941090     0.0202490
  H       -3.3868100    -1.1685230    -0.0043580
  H        1.7501540    -1.5327770     0.0300190
  H       -2.9559420     2.3719740    -0.8556620
  H       -4.0955650     1.3361040     0.0184570
  H       -2.9548850     2.3555760     0.9102830
  H        3.9313990    -1.0827470    -0.4343570
  H        4.1211000    -0.1952360     1.0924070
  H        4.4689380     0.6162650    -0.4426230
units angstrom
no_reorient  #important for SAPT in psi4, default
symmetry c1  #important for SAPT in psi4, default
}

set PROPERTIES_ORIGIN ["COM"]
properties('MP2/aug-cc-pvtz', properties = ['dipole'])
--------------------------------------------------------------------------

  Memory set to  29.802 GiB by Python driver.
    SCF Algorithm Type (re)set to DF.

*** tstart() called on c435-033.stampede2.tacc.utexas.edu
*** at Thu Apr  1 03:30:23 2021

   => Loading Basis Set <=

    Name: AUG-CC-PVTZ
    Role: ORBITAL
    Keyword: BASIS
    atoms 1     entry S          line   906 file /home1/07844/xy3866/miniconda3/envs/p4env/share/psi4/basis/aug-cc-pvtz.gbs 
    atoms 2     entry O          line   331 file /home1/07844/xy3866/miniconda3/envs/p4env/share/psi4/basis/aug-cc-pvtz.gbs 
    atoms 3     entry N          line   285 file /home1/07844/xy3866/miniconda3/envs/p4env/share/psi4/basis/aug-cc-pvtz.gbs 
    atoms 4-10  entry C          line   239 file /home1/07844/xy3866/miniconda3/envs/p4env/share/psi4/basis/aug-cc-pvtz.gbs 
    atoms 11-19 entry H          line    40 file /home1/07844/xy3866/miniconda3/envs/p4env/share/psi4/basis/aug-cc-pvtz.gbs 


         ---------------------------------------------------------
                                   SCF
               by Justin Turney, Rob Parrish, Andy Simmonett
                          and Daniel G. A. Smith
                              RHF Reference
                        8 Threads,  30517 MiB Core
         ---------------------------------------------------------

  ==> Geometry <==

    Molecular point group: c1
    Full point group: C1

    Geometry (in Angstrom), charge = 0, multiplicity = 1:

       Center              X                  Y                   Z               Mass       
    ------------   -----------------  -----------------  -----------------  -----------------
         S           -0.999904419550    -1.712880477019    -0.012881305424    31.972071174400
         O            2.134513580450     1.640391522981    -0.058010305424    15.994914619570
         N            1.437975580450    -0.546560477019     0.002021694576    14.003074004430
         C           -2.066082419550     0.636204522981     0.012456694576    12.000000000000
         C            0.053380580450    -0.329880477019     0.005015694576    12.000000000000
         C           -0.654856419550     0.850231522981     0.015325694576    12.000000000000
         C           -2.395132419550    -0.697123477019    -0.000354305424    12.000000000000
         C           -3.069641419550     1.752819522981     0.023721694576    12.000000000000
         C            2.389830580450     0.489007822981    -0.024319105424    12.000000000000
         C            3.820803580450    -0.082456477019     0.047653694576    12.000000000000
         H           -0.173674419550     1.818847522981     0.022494694576     1.007825032230
         H           -3.381635419550    -1.143784477019    -0.002112305424     1.007825032230
         H            1.755328580450    -1.508038477019     0.032264694576     1.007825032230
         H           -2.950767419550     2.396712522981    -0.853416305424     1.007825032230
         H           -4.090390419550     1.360842522981     0.020702694576     1.007825032230
         H           -2.949710419550     2.380314522981     0.912528694576     1.007825032230
         H            3.936573580450    -1.058008477019    -0.432111305424     1.007825032230
         H            4.126274580450    -0.170497477019     1.094652694576     1.007825032230
         H            4.474112580450     0.641003522981    -0.440377305424     1.007825032230

  Running in c1 symmetry.

  Rotational constants: A =      0.07469  B =      0.02335  C =      0.01791 [cm^-1]
  Rotational constants: A =   2239.12900  B =    699.88523  C =    536.92344 [MHz]
  Nuclear repulsion =  585.087286829694563

  Charge       = 0
  Multiplicity = 1
  Electrons    = 82
  Nalpha       = 41
  Nbeta        = 41

  ==> Algorithm <==

  SCF Algorithm Type is DF.
  DIIS enabled.
  MOM disabled.
  Fractional occupation disabled.
  Guess Type is SAD.
  Energy threshold   = 1.00e-10
  Density threshold  = 1.00e-10
  Integral threshold = 1.00e-12

  ==> Primary Basis <==

  Basis Set: AUG-CC-PVTZ
    Blend: AUG-CC-PVTZ
    Number of shells: 223
    Number of basis functions: 671
    Number of Cartesian functions: 779
    Spherical Harmonics?: true
    Max angular momentum: 3

   => Loading Basis Set <=

    Name: (AUG-CC-PVTZ AUX)
    Role: JKFIT
    Keyword: DF_BASIS_SCF
    atoms 1     entry S          line   730 file /home1/07844/xy3866/miniconda3/envs/p4env/share/psi4/basis/aug-cc-pvtz-jkfit.gbs 
    atoms 2     entry O          line   286 file /home1/07844/xy3866/miniconda3/envs/p4env/share/psi4/basis/aug-cc-pvtz-jkfit.gbs 
    atoms 3     entry N          line   224 file /home1/07844/xy3866/miniconda3/envs/p4env/share/psi4/basis/aug-cc-pvtz-jkfit.gbs 
    atoms 4-10  entry C          line   162 file /home1/07844/xy3866/miniconda3/envs/p4env/share/psi4/basis/aug-cc-pvtz-jkfit.gbs 
    atoms 11-19 entry H          line    70 file /home1/07844/xy3866/miniconda3/envs/p4env/share/psi4/basis/aug-cc-pvtz-jkfit.gbs 

  ==> Integral Setup <==

  DFHelper Memory: AOs need 4.473 GiB; user supplied 22.352 GiB. Using in-core AOs.

  ==> MemDFJK: Density-Fitted J/K Matrices <==

    J tasked:                   Yes
    K tasked:                   Yes
    wK tasked:                   No
    OpenMP threads:               8
    Memory [MiB]:             22888
    Algorithm:                 Core
    Schwarz Cutoff:           1E-12
    Mask sparsity (%):      13.5368
    Fitting Condition:        1E-10

   => Auxiliary Basis Set <=

  Basis Set: (AUG-CC-PVTZ AUX)
    Blend: AUG-CC-PVTZ-JKFIT
    Number of shells: 438
    Number of basis functions: 1496
    Number of Cartesian functions: 1854
    Spherical Harmonics?: true
    Max angular momentum: 4

  Minimum eigenvalue in the overlap matrix is 2.0316464263E-06.
  Reciprocal condition number of the overlap matrix is 1.1756707242E-07.
    Using symmetric orthogonalization.

  ==> Pre-Iterations <==

  SCF Guess: Superposition of Atomic Densities via on-the-fly atomic UHF (no occupation information).

   -------------------------
    Irrep   Nso     Nmo    
   -------------------------
     A        671     671 
   -------------------------
    Total     671     671
   -------------------------

  ==> Iterations <==

                           Total Energy        Delta E     RMS |[F,P]|

   @DF-RHF iter SAD:  -796.78446864519458   -7.96784e+02   0.00000e+00 
   @DF-RHF iter   1:  -796.93765464128614   -1.53186e-01   1.22505e-03 DIIS
   @DF-RHF iter   2:  -797.18276619915514   -2.45112e-01   7.89079e-04 DIIS
   @DF-RHF iter   3:  -797.31050155491585   -1.27735e-01   1.51526e-04 DIIS
   @DF-RHF iter   4:  -797.31772580950962   -7.22425e-03   6.18779e-05 DIIS
   @DF-RHF iter   5:  -797.31906077571614   -1.33497e-03   1.64432e-05 DIIS
   @DF-RHF iter   6:  -797.31921668254267   -1.55907e-04   8.01988e-06 DIIS
   @DF-RHF iter   7:  -797.31926829444581   -5.16119e-05   3.31095e-06 DIIS
   @DF-RHF iter   8:  -797.31927820025055   -9.90580e-06   1.25977e-06 DIIS
   @DF-RHF iter   9:  -797.31927963548992   -1.43524e-06   4.28816e-07 DIIS
   @DF-RHF iter  10:  -797.31927978260762   -1.47118e-07   1.41505e-07 DIIS
   @DF-RHF iter  11:  -797.31927980107469   -1.84671e-08   6.44910e-08 DIIS
   @DF-RHF iter  12:  -797.31927980457112   -3.49644e-09   3.03197e-08 DIIS
   @DF-RHF iter  13:  -797.31927980546288   -8.91760e-10   1.35643e-08 DIIS
   @DF-RHF iter  14:  -797.31927980565399   -1.91108e-10   5.09664e-09 DIIS
   @DF-RHF iter  15:  -797.31927980567139   -1.73941e-11   1.86977e-09 DIIS
   @DF-RHF iter  16:  -797.31927980567582   -4.43379e-12   6.81255e-10 DIIS
   @DF-RHF iter  17:  -797.31927980567434    1.47793e-12   2.55695e-10 DIIS
   @DF-RHF iter  18:  -797.31927980567798   -3.63798e-12   6.79474e-11 DIIS
  Energy and wave function converged.


  ==> Post-Iterations <==

    Orbital Energies [Eh]
    ---------------------

    Doubly Occupied:                                                      

       1A    -91.981957     2A    -20.543801     3A    -15.612567  
       4A    -11.369153     5A    -11.309780     6A    -11.248103  
       7A    -11.246684     8A    -11.243539     9A    -11.225114  
      10A    -11.219535    11A     -8.982508    12A     -6.663676  
      13A     -6.663113    14A     -6.662227    15A     -1.423407  
      16A     -1.261390    17A     -1.156238    18A     -1.032902  
      19A     -1.007880    20A     -0.969114    21A     -0.909294  
      22A     -0.819450    23A     -0.782260    24A     -0.728634  
      25A     -0.687999    26A     -0.677395    27A     -0.634453  
      28A     -0.620367    29A     -0.598662    30A     -0.579512  
      31A     -0.575515    32A     -0.558060    33A     -0.555892  
      34A     -0.523777    35A     -0.514834    36A     -0.513267  
      37A     -0.471461    38A     -0.447592    39A     -0.434963  
      40A     -0.338968    41A     -0.292433  

    Virtual:                                                              

      42A      0.023324    43A      0.031532    44A      0.037481  
      45A      0.041784    46A      0.044009    47A      0.050999  
      48A      0.053148    49A      0.063845    50A      0.069452  
      51A      0.083485    52A      0.090092    53A      0.096037  
      54A      0.098206    55A      0.104494    56A      0.105296  
      57A      0.109794    58A      0.115255    59A      0.118522  
      60A      0.124046    61A      0.127545    62A      0.129926  
      63A      0.132992    64A      0.136916    65A      0.141103  
      66A      0.143251    67A      0.145120    68A      0.151784  
      69A      0.157146    70A      0.158585    71A      0.163561  
      72A      0.166504    73A      0.176413    74A      0.181111  
      75A      0.183318    76A      0.191239    77A      0.194267  
      78A      0.204247    79A      0.207040    80A      0.213474  
      81A      0.216939    82A      0.229902    83A      0.231647  
      84A      0.237451    85A      0.240175    86A      0.243448  
      87A      0.249415    88A      0.251662    89A      0.259959  
      90A      0.266224    91A      0.270888    92A      0.274717  
      93A      0.283368    94A      0.284185    95A      0.296421  
      96A      0.298352    97A      0.305461    98A      0.309309  
      99A      0.316720   100A      0.323534   101A      0.325602  
     102A      0.327695   103A      0.335857   104A      0.337407  
     105A      0.339743   106A      0.344115   107A      0.354453  
     108A      0.355652   109A      0.361693   110A      0.365919  
     111A      0.367842   112A      0.370779   113A      0.375445  
     114A      0.382817   115A      0.390946   116A      0.394774  
     117A      0.399209   118A      0.404515   119A      0.404858  
     120A      0.408849   121A      0.413882   122A      0.415769  
     123A      0.422883   124A      0.427605   125A      0.429306  
     126A      0.443078   127A      0.445694   128A      0.445930  
     129A      0.455094   130A      0.456981   131A      0.458176  
     132A      0.460452   133A      0.472156   134A      0.474764  
     135A      0.477334   136A      0.482382   137A      0.489439  
     138A      0.490290   139A      0.492766   140A      0.496135  
     141A      0.501424   142A      0.502423   143A      0.507898  
     144A      0.514843   145A      0.517175   146A      0.523056  
     147A      0.526640   148A      0.532375   149A      0.539506  
     150A      0.544244   151A      0.549902   152A      0.552516  
     153A      0.553843   154A      0.561682   155A      0.565044  
     156A      0.573491   157A      0.580736   158A      0.582820  
     159A      0.590995   160A      0.592931   161A      0.598301  
     162A      0.606498   163A      0.610826   164A      0.621505  
     165A      0.628619   166A      0.636963   167A      0.643617  
     168A      0.651040   169A      0.663298   170A      0.672688  
     171A      0.674794   172A      0.683166   173A      0.692072  
     174A      0.707654   175A      0.715915   176A      0.719614  
     177A      0.735566   178A      0.744549   179A      0.747129  
     180A      0.757375   181A      0.763340   182A      0.769052  
     183A      0.774713   184A      0.775699   185A      0.793524  
     186A      0.797574   187A      0.804506   188A      0.810239  
     189A      0.816675   190A      0.818058   191A      0.820048  
     192A      0.828225   193A      0.830319   194A      0.844596  
     195A      0.850618   196A      0.856425   197A      0.869111  
     198A      0.874418   199A      0.876858   200A      0.878515  
     201A      0.889045   202A      0.892645   203A      0.897614  
     204A      0.905790   205A      0.911730   206A      0.914256  
     207A      0.918301   208A      0.923838   209A      0.930934  
     210A      0.939432   211A      0.940822   212A      0.943998  
     213A      0.953014   214A      0.955398   215A      0.963079  
     216A      0.967248   217A      0.968730   218A      0.975569  
     219A      0.980721   220A      0.989667   221A      0.996046  
     222A      1.000599   223A      1.008355   224A      1.010944  
     225A      1.015075   226A      1.022082   227A      1.026870  
     228A      1.032913   229A      1.041282   230A      1.045158  
     231A      1.051726   232A      1.053398   233A      1.062883  
     234A      1.068326   235A      1.069060   236A      1.077774  
     237A      1.083081   238A      1.088645   239A      1.093808  
     240A      1.096639   241A      1.105245   242A      1.108714  
     243A      1.109827   244A      1.118417   245A      1.125815  
     246A      1.128469   247A      1.131788   248A      1.136672  
     249A      1.138529   250A      1.158091   251A      1.160683  
     252A      1.166806   253A      1.167759   254A      1.174667  
     255A      1.179280   256A      1.183457   257A      1.189284  
     258A      1.196070   259A      1.204418   260A      1.215084  
     261A      1.217678   262A      1.223252   263A      1.228646  
     264A      1.236494   265A      1.246572   266A      1.249659  
     267A      1.255450   268A      1.264345   269A      1.271441  
     270A      1.277398   271A      1.283083   272A      1.286072  
     273A      1.294793   274A      1.302854   275A      1.312717  
     276A      1.318050   277A      1.337969   278A      1.347424  
     279A      1.351234   280A      1.357150   281A      1.370369  
     282A      1.375178   283A      1.379678   284A      1.386756  
     285A      1.393616   286A      1.397479   287A      1.416786  
     288A      1.431369   289A      1.435030   290A      1.437933  
     291A      1.456419   292A      1.460284   293A      1.468812  
     294A      1.476544   295A      1.480427   296A      1.482005  
     297A      1.489638   298A      1.494230   299A      1.501606  
     300A      1.511839   301A      1.521363   302A      1.532177  
     303A      1.538590   304A      1.551294   305A      1.561166  
     306A      1.570189   307A      1.590441   308A      1.594611  
     309A      1.614772   310A      1.619823   311A      1.622434  
     312A      1.636765   313A      1.643808   314A      1.649336  
     315A      1.651031   316A      1.652931   317A      1.661345  
     318A      1.666199   319A      1.672095   320A      1.685952  
     321A      1.690121   322A      1.702372   323A      1.712760  
     324A      1.715271   325A      1.730341   326A      1.731361  
     327A      1.742785   328A      1.753479   329A      1.759128  
     330A      1.769974   331A      1.777234   332A      1.784647  
     333A      1.792397   334A      1.796709   335A      1.809921  
     336A      1.829221   337A      1.835313   338A      1.840132  
     339A      1.851998   340A      1.859444   341A      1.869588  
     342A      1.882327   343A      1.891255   344A      1.898730  
     345A      1.911257   346A      1.917023   347A      1.922380  
     348A      1.942321   349A      1.948125   350A      1.954379  
     351A      1.967852   352A      1.970859   353A      1.980700  
     354A      1.990333   355A      1.997704   356A      2.003597  
     357A      2.014569   358A      2.020174   359A      2.033653  
     360A      2.042189   361A      2.053261   362A      2.079613  
     363A      2.083670   364A      2.097879   365A      2.104637  
     366A      2.129618   367A      2.133251   368A      2.139595  
     369A      2.145499   370A      2.169804   371A      2.177401  
     372A      2.184474   373A      2.187032   374A      2.197988  
     375A      2.207255   376A      2.213394   377A      2.218788  
     378A      2.226886   379A      2.244289   380A      2.252075  
     381A      2.263631   382A      2.275397   383A      2.283761  
     384A      2.300571   385A      2.311416   386A      2.326326  
     387A      2.329168   388A      2.341384   389A      2.352059  
     390A      2.360080   391A      2.380678   392A      2.389329  
     393A      2.397734   394A      2.405111   395A      2.420543  
     396A      2.437766   397A      2.445183   398A      2.456592  
     399A      2.472580   400A      2.483182   401A      2.493225  
     402A      2.500417   403A      2.523922   404A      2.548168  
     405A      2.552826   406A      2.560493   407A      2.568895  
     408A      2.578569   409A      2.611127   410A      2.620167  
     411A      2.641165   412A      2.651198   413A      2.668333  
     414A      2.672012   415A      2.688641   416A      2.704052  
     417A      2.709242   418A      2.734427   419A      2.765645  
     420A      2.786930   421A      2.791445   422A      2.820991  
     423A      2.849954   424A      2.867613   425A      2.881104  
     426A      2.893528   427A      2.923210   428A      2.945517  
     429A      2.977570   430A      2.988464   431A      2.997229  
     432A      3.012901   433A      3.045420   434A      3.073808  
     435A      3.083932   436A      3.112964   437A      3.156677  
     438A      3.174580   439A      3.192718   440A      3.206825  
     441A      3.221549   442A      3.240624   443A      3.258472  
     444A      3.262976   445A      3.289622   446A      3.312975  
     447A      3.327154   448A      3.379106   449A      3.389448  
     450A      3.391548   451A      3.406751   452A      3.427866  
     453A      3.442364   454A      3.448014   455A      3.461896  
     456A      3.475004   457A      3.488075   458A      3.508422  
     459A      3.518293   460A      3.531285   461A      3.545489  
     462A      3.558312   463A      3.573078   464A      3.579795  
     465A      3.593849   466A      3.604738   467A      3.616758  
     468A      3.635993   469A      3.638249   470A      3.638852  
     471A      3.644806   472A      3.653277   473A      3.658293  
     474A      3.674476   475A      3.683227   476A      3.697786  
     477A      3.715357   478A      3.722117   479A      3.750623  
     480A      3.762261   481A      3.766668   482A      3.777062  
     483A      3.792642   484A      3.800147   485A      3.822017  
     486A      3.835019   487A      3.841594   488A      3.865525  
     489A      3.874152   490A      3.878838   491A      3.881204  
     492A      3.887216   493A      3.896643   494A      3.902277  
     495A      3.907119   496A      3.929625   497A      3.936018  
     498A      3.956972   499A      3.963809   500A      3.965866  
     501A      3.978494   502A      4.003280   503A      4.008957  
     504A      4.015155   505A      4.029970   506A      4.046702  
     507A      4.052387   508A      4.065510   509A      4.081906  
     510A      4.091542   511A      4.101260   512A      4.111062  
     513A      4.114943   514A      4.121723   515A      4.129300  
     516A      4.149909   517A      4.154470   518A      4.171327  
     519A      4.186910   520A      4.204564   521A      4.214601  
     522A      4.220827   523A      4.232019   524A      4.234060  
     525A      4.251372   526A      4.272995   527A      4.292092  
     528A      4.306394   529A      4.319887   530A      4.324524  
     531A      4.333955   532A      4.363656   533A      4.367828  
     534A      4.379174   535A      4.387186   536A      4.408676  
     537A      4.411333   538A      4.438072   539A      4.457524  
     540A      4.463160   541A      4.483199   542A      4.494180  
     543A      4.498013   544A      4.506955   545A      4.512823  
     546A      4.529610   547A      4.536137   548A      4.547595  
     549A      4.560461   550A      4.581999   551A      4.601664  
     552A      4.615864   553A      4.637185   554A      4.653459  
     555A      4.668589   556A      4.689415   557A      4.707606  
     558A      4.710163   559A      4.716672   560A      4.754054  
     561A      4.774725   562A      4.784541   563A      4.786874  
     564A      4.811184   565A      4.814153   566A      4.828221  
     567A      4.853895   568A      4.862999   569A      4.872212  
     570A      4.890405   571A      4.907481   572A      4.936546  
     573A      4.961429   574A      4.989282   575A      4.997578  
     576A      5.012151   577A      5.023187   578A      5.034049  
     579A      5.045858   580A      5.081750   581A      5.087263  
     582A      5.090623   583A      5.111725   584A      5.134092  
     585A      5.156465   586A      5.163986   587A      5.199864  
     588A      5.215668   589A      5.228985   590A      5.231986  
     591A      5.253088   592A      5.281523   593A      5.291874  
     594A      5.308858   595A      5.347487   596A      5.351576  
     597A      5.357456   598A      5.364138   599A      5.412809  
     600A      5.456455   601A      5.468970   602A      5.485512  
     603A      5.504381   604A      5.551665   605A      5.557734  
     606A      5.574166   607A      5.594592   608A      5.603873  
     609A      5.631320   610A      5.639098   611A      5.659203  
     612A      5.686772   613A      5.713958   614A      5.737943  
     615A      5.744520   616A      5.761689   617A      5.783551  
     618A      5.806202   619A      5.853371   620A      5.878803  
     621A      5.913873   622A      5.995565   623A      6.014133  
     624A      6.039577   625A      6.090291   626A      6.097199  
     627A      6.114257   628A      6.128063   629A      6.146145  
     630A      6.156072   631A      6.172748   632A      6.223404  
     633A      6.278846   634A      6.303230   635A      6.367978  
     636A      6.433556   637A      6.539102   638A      6.618584  
     639A      6.669055   640A      6.717796   641A      6.739353  
     642A      6.744694   643A      6.766273   644A      6.787085  
     645A      6.847504   646A      6.849977   647A      6.854634  
     648A      6.977156   649A      6.998034   650A      7.041578  
     651A      7.158783   652A      7.269039   653A      7.300979  
     654A      7.425609   655A      7.444366   656A      7.629107  
     657A      7.690651   658A      7.733093   659A      7.839542  
     660A      7.970177   661A      8.059186   662A      9.139369  
     663A     15.805144   664A     16.507401   665A     17.256745  
     666A     17.388531   667A     18.057666   668A     18.194736  
     669A     19.847264   670A     19.975927   671A     20.302030  

    Final Occupation by Irrep:
              A 
    DOCC [    41 ]

  @DF-RHF Final Energy:  -797.31927980567798

   => Energetics <=

    Nuclear Repulsion Energy =            585.0872868296945626
    One-Electron Energy =               -2254.6381824566815339
    Two-Electron Energy =                 872.2316158213088784
    Total Energy =                       -797.3192798056779793

Computation Completed

*** tstop() called on c435-033.stampede2.tacc.utexas.edu at Thu Apr  1 03:31:36 2021
Module time:
	user time   =     438.45 seconds =       7.31 minutes
	system time =      12.29 seconds =       0.20 minutes
	total time  =         73 seconds =       1.22 minutes
Total time:
	user time   =     438.45 seconds =       7.31 minutes
	system time =      12.29 seconds =       0.20 minutes
	total time  =         73 seconds =       1.22 minutes
   => Loading Basis Set <=

    Name: (AUG-CC-PVTZ AUX)
    Role: RIFIT
    Keyword: DF_BASIS_MP2
    atoms 1     entry S          line   666 file /home1/07844/xy3866/miniconda3/envs/p4env/share/psi4/basis/aug-cc-pvtz-ri.gbs 
    atoms 2     entry O          line   264 file /home1/07844/xy3866/miniconda3/envs/p4env/share/psi4/basis/aug-cc-pvtz-ri.gbs 
    atoms 3     entry N          line   206 file /home1/07844/xy3866/miniconda3/envs/p4env/share/psi4/basis/aug-cc-pvtz-ri.gbs 
    atoms 4-10  entry C          line   148 file /home1/07844/xy3866/miniconda3/envs/p4env/share/psi4/basis/aug-cc-pvtz-ri.gbs 
    atoms 11-19 entry H          line    30 file /home1/07844/xy3866/miniconda3/envs/p4env/share/psi4/basis/aug-cc-pvtz-ri.gbs 


*** tstart() called on c435-033.stampede2.tacc.utexas.edu
*** at Thu Apr  1 03:31:37 2021


  //>>>>>>>>>>>>>>>>>>>>>>>>>>>>>>>>>>>//
  //               DFMP2               //
  //<<<<<<<<<<<<<<<<<<<<<<<<<<<<<<<<<<<//

	 --------------------------------------------------------
	                          DF-MP2                         
	      2nd-Order Density-Fitted Moller-Plesset Theory     
	              RMP2 Wavefunction,   8 Threads             
	                                                         
	        Rob Parrish, Justin Turney, Andy Simmonett,      
	           Ed Hohenstein, and C. David Sherrill          
	 --------------------------------------------------------

   => Auxiliary Basis Set <=

  Basis Set: (AUG-CC-PVTZ AUX)
    Blend: AUG-CC-PVTZ-RI
    Number of shells: 415
    Number of basis functions: 1515
    Number of Cartesian functions: 1910
    Spherical Harmonics?: true
    Max angular momentum: 4

	 --------------------------------------------------------
	                 NBF =   671, NAUX =  1515
	 --------------------------------------------------------
	   CLASS    FOCC     OCC    AOCC    AVIR     VIR    FVIR
	   PAIRS       0      41      41     630     630       0
	 --------------------------------------------------------

  DFHelper Memory: AOs need 4.696 GiB; user supplied 22.352 GiB. Using in-core AOs.


         ------------------------------------------------------------
                                     CPHF                           
                                  Rob Parrish                       
         ------------------------------------------------------------

  ==> Geometry <==

    Molecular point group: c1
    Full point group: C1

    Geometry (in Angstrom), charge = 0, multiplicity = 1:

       Center              X                  Y                   Z               Mass       
    ------------   -----------------  -----------------  -----------------  -----------------
         S           -0.999904419550    -1.712880477019    -0.012881305424    31.972071174400
         O            2.134513580450     1.640391522981    -0.058010305424    15.994914619570
         N            1.437975580450    -0.546560477019     0.002021694576    14.003074004430
         C           -2.066082419550     0.636204522981     0.012456694576    12.000000000000
         C            0.053380580450    -0.329880477019     0.005015694576    12.000000000000
         C           -0.654856419550     0.850231522981     0.015325694576    12.000000000000
         C           -2.395132419550    -0.697123477019    -0.000354305424    12.000000000000
         C           -3.069641419550     1.752819522981     0.023721694576    12.000000000000
         C            2.389830580450     0.489007822981    -0.024319105424    12.000000000000
         C            3.820803580450    -0.082456477019     0.047653694576    12.000000000000
         H           -0.173674419550     1.818847522981     0.022494694576     1.007825032230
         H           -3.381635419550    -1.143784477019    -0.002112305424     1.007825032230
         H            1.755328580450    -1.508038477019     0.032264694576     1.007825032230
         H           -2.950767419550     2.396712522981    -0.853416305424     1.007825032230
         H           -4.090390419550     1.360842522981     0.020702694576     1.007825032230
         H           -2.949710419550     2.380314522981     0.912528694576     1.007825032230
         H            3.936573580450    -1.058008477019    -0.432111305424     1.007825032230
         H            4.126274580450    -0.170497477019     1.094652694576     1.007825032230
         H            4.474112580450     0.641003522981    -0.440377305424     1.007825032230

  Nuclear repulsion =  585.087286829694563
  Reference energy  = -797.319279805677979

  ==> Basis Set <==

  Basis Set: AUG-CC-PVTZ
    Blend: AUG-CC-PVTZ
    Number of shells: 223
    Number of basis functions: 671
    Number of Cartesian functions: 779
    Spherical Harmonics?: true
    Max angular momentum: 3

  ==> CGRSolver (by Rob Parrish) <==

   Number of roots    =         1
   Preconditioning    =    JACOBI
   Convergence cutoff =     1E-06
   Maximum iterations =       100

  ==> CPHFRHamiltonian (by Rob Parrish) <== 

  ==> MemDFJK: Density-Fitted J/K Matrices <==

    J tasked:                   Yes
    K tasked:                   Yes
    wK tasked:                   No
    OpenMP threads:               8
    Memory [MiB]:             22888
    Algorithm:                 Core
    Schwarz Cutoff:           1E-12
    Mask sparsity (%):       9.0987
    Fitting Condition:        1E-10

   => Auxiliary Basis Set <=

  Basis Set: (AUG-CC-PVTZ AUX)
    Blend: AUG-CC-PVTZ-JKFIT
    Number of shells: 438
    Number of basis functions: 1496
    Number of Cartesian functions: 1854
    Spherical Harmonics?: true
    Max angular momentum: 4

  ==> CPHF Iterations <==

  => Iterations <=

             Iter  Converged  Remaining    Residual
  CGR           1          0          1   1.292E-01
  CGR           2          0          1   4.244E-02
  CGR           3          0          1   2.301E-02
  CGR           4          0          1   7.904E-03
  CGR           5          0          1   3.285E-03
  CGR           6          0          1   1.545E-03
  CGR           7          0          1   5.939E-04
  CGR           8          0          1   2.672E-04
  CGR           9          0          1   9.777E-05
  CGR          10          0          1   3.653E-05
  CGR          11          0          1   1.149E-05
  CGR          12          0          1   3.192E-06
  CGR          13          0          1   1.224E-06
  CGR          14          1          0   3.698E-07

    CGRSolver converged.

	-----------------------------------------------------------
	 ==================> DF-MP2 Energies <==================== 
	-----------------------------------------------------------
	 Reference Energy          =    -797.3192798056779793 [Eh]
	 Singles Energy            =      -0.0000000000000000 [Eh]
	 Same-Spin Energy          =      -0.4843839273936671 [Eh]
	 Opposite-Spin Energy      =      -1.4995088131217242 [Eh]
	 Correlation Energy        =      -1.9838927405153914 [Eh]
	 Total Energy              =    -799.3031725461934229 [Eh]
	-----------------------------------------------------------
	 ================> DF-SCS-MP2 Energies <================== 
	-----------------------------------------------------------
	 SCS Same-Spin Scale       =       0.3333333333333333 [-]
	 SCS Opposite-Spin Scale   =       1.2000000000000000 [-]
	 SCS Same-Spin Energy      =      -0.1614613091312224 [Eh]
	 SCS Opposite-Spin Energy  =      -1.7994105757460690 [Eh]
	 SCS Correlation Energy    =      -1.9608718848772915 [Eh]
	 SCS Total Energy          =    -799.2801516905552717 [Eh]
	-----------------------------------------------------------



Properties will be evaluated at  -0.000000,  -0.000000,   0.000000 [a0]

Properties computed using the MP2 density matrix

  Nuclear Dipole Moment: [e a0]
     X:     0.6791      Y:     4.3867      Z:     0.3318

  Electronic Dipole Moment: [e a0]
     X:    -0.4365      Y:    -5.2470      Z:    -0.2682

  Dipole Moment: [e a0]
     X:     0.2426      Y:    -0.8603      Z:     0.0637     Total:     0.8961

  Dipole Moment: [D]
     X:     0.6167      Y:    -2.1866      Z:     0.1618     Total:     2.2777


*** tstop() called on c435-033.stampede2.tacc.utexas.edu at Thu Apr  1 03:36:28 2021
Module time:
	user time   =    1734.09 seconds =      28.90 minutes
	system time =      25.85 seconds =       0.43 minutes
	total time  =        291 seconds =       4.85 minutes
Total time:
	user time   =    2173.48 seconds =      36.22 minutes
	system time =      38.16 seconds =       0.64 minutes
	total time  =        365 seconds =       6.08 minutes

    Psi4 stopped on: Thursday, 01 April 2021 03:36AM
    Psi4 wall time for execution: 0:06:05.85

*** Psi4 exiting successfully. Buy a developer a beer!
