210_3-Nitrotoluene Gaussian SP Calculation on node58.bme.utexas.edu     
Freq      RMP2-FC                                                     6-31G(d)            
Number of atoms                            I               17
Info1-9                                    I   N=           9
          28          27        1002           0           0         100
           6           2           1
Charge                                     I                0
Multiplicity                               I                1
Number of electrons                        I               72
Number of alpha electrons                  I               36
Number of beta electrons                   I               36
Number of basis functions                  I              164
Number of independent functions            I              164
Number of point charges in /Mol/           I                0
Number of translation vectors              I                0
Atomic numbers                             I   N=          17
           8           8           7           6           6           6
           6           6           6           6           1           1
           1           1           1           1           1
Nuclear charges                            R   N=          17
  8.00000000E+00  8.00000000E+00  7.00000000E+00  6.00000000E+00  6.00000000E+00
  6.00000000E+00  6.00000000E+00  6.00000000E+00  6.00000000E+00  6.00000000E+00
  1.00000000E+00  1.00000000E+00  1.00000000E+00  1.00000000E+00  1.00000000E+00
  1.00000000E+00  1.00000000E+00
Current cartesian coordinates              R   N=          51
  5.48224381E+00  9.47121306E-01  3.47207707E-02  4.14697311E+00 -2.99062165E+00
 -2.94286016E-02  3.78028442E+00 -6.70932148E-01  1.48176393E-03 -3.29565751E+00
 -7.37722582E-01 -2.53620013E-02 -7.84125745E-01 -1.56098832E+00 -1.30483552E-02
  1.14862909E+00  2.23540469E-01 -7.85806200E-05 -3.78309034E+00  1.86676482E+00
 -1.84719997E-02  6.98933490E-01  2.81539858E+00  5.64908341E-03 -1.81068357E+00
  3.61873793E+00 -6.44084018E-03 -5.42968349E+00 -2.62008800E+00  3.20288942E-02
 -3.15710801E-01 -3.55812570E+00 -2.42452578E-02 -5.73065647E+00  2.52887376E+00
 -3.57884434E-02  2.26701736E+00  4.13352547E+00  9.75511131E-03 -2.22762555E+00
  5.63012914E+00 -9.73230927E-03 -4.84816765E+00 -4.42579162E+00 -7.84972822E-01
 -6.04613320E+00 -2.97381919E+00  1.97556612E+00 -7.06038150E+00 -1.92412147E+00
 -1.02894930E+00
Force Field                                I                0
Int Atom Types                             I   N=          17
           0           0           0           0           0           0
           0           0           0           0           0           0
           0           0           0           0           0
MM charges                                 R   N=          17
  0.00000000E+00  0.00000000E+00  0.00000000E+00  0.00000000E+00  0.00000000E+00
  0.00000000E+00  0.00000000E+00  0.00000000E+00  0.00000000E+00  0.00000000E+00
  0.00000000E+00  0.00000000E+00  0.00000000E+00  0.00000000E+00  0.00000000E+00
  0.00000000E+00  0.00000000E+00
Integer atomic weights                     I   N=          17
          16          16          14          12          12          12
          12          12          12          12           1           1
           1           1           1           1           1
Real atomic weights                        R   N=          17
  1.59949146E+01  1.59949146E+01  1.40030740E+01  1.20000000E+01  1.20000000E+01
  1.20000000E+01  1.20000000E+01  1.20000000E+01  1.20000000E+01  1.20000000E+01
  1.00782504E+00  1.00782504E+00  1.00782504E+00  1.00782504E+00  1.00782504E+00
  1.00782504E+00  1.00782504E+00
Atom fragment info                         I   N=          17
           0           0           0           0           0           0
           0           0           0           0           0           0
           0           0           0           0           0
Atom residue num                           I   N=          17
           0           0           0           0           0           0
           0           0           0           0           0           0
           0           0           0           0           0
Nuclear spins                              I   N=          17
           0           0           2           0           0           0
           0           0           0           0           1           1
           1           1           1           1           1
Nuclear ZEff                               R   N=          17
 -5.60000000E+00 -5.60000000E+00 -4.55000000E+00 -3.60000000E+00 -3.60000000E+00
 -3.60000000E+00 -3.60000000E+00 -3.60000000E+00 -3.60000000E+00 -3.60000000E+00
 -1.00000000E+00 -1.00000000E+00 -1.00000000E+00 -1.00000000E+00 -1.00000000E+00
 -1.00000000E+00 -1.00000000E+00
Nuclear QMom                               R   N=          17
  0.00000000E+00  0.00000000E+00  2.04400000E+00  0.00000000E+00  0.00000000E+00
  0.00000000E+00  0.00000000E+00  0.00000000E+00  0.00000000E+00  0.00000000E+00
  0.00000000E+00  0.00000000E+00  0.00000000E+00  0.00000000E+00  0.00000000E+00
  0.00000000E+00  0.00000000E+00
Nuclear GFac                               R   N=          17
  0.00000000E+00  0.00000000E+00  4.03761000E-01  0.00000000E+00  0.00000000E+00
  0.00000000E+00  0.00000000E+00  0.00000000E+00  0.00000000E+00  0.00000000E+00
  2.79284600E+00  2.79284600E+00  2.79284600E+00  2.79284600E+00  2.79284600E+00
  2.79284600E+00  2.79284600E+00
MicOpt                                     I   N=          17
          -1          -1          -1          -1          -1          -1
          -1          -1          -1          -1          -1          -1
          -1          -1          -1          -1          -1
Number of contracted shells                I               54
Number of primitive shells                 I              138
Pure/Cartesian d shells                    I                1
Pure/Cartesian f shells                    I                0
Highest angular momentum                   I                2
Largest degree of contraction              I                6
Shell types                                I   N=          54
           0          -1          -1           2           0          -1
          -1           2           0          -1          -1           2
           0          -1          -1           2           0          -1
          -1           2           0          -1          -1           2
           0          -1          -1           2           0          -1
          -1           2           0          -1          -1           2
           0          -1          -1           2           0           0
           0           0           0           0           0           0
           0           0           0           0           0           0
Number of primitives per shell             I   N=          54
           6           3           1           1           6           3
           1           1           6           3           1           1
           6           3           1           1           6           3
           1           1           6           3           1           1
           6           3           1           1           6           3
           1           1           6           3           1           1
           6           3           1           1           3           1
           3           1           3           1           3           1
           3           1           3           1           3           1
Shell to atom map                          I   N=          54
           1           1           1           1           2           2
           2           2           3           3           3           3
           4           4           4           4           5           5
           5           5           6           6           6           6
           7           7           7           7           8           8
           8           8           9           9           9           9
          10          10          10          10          11          11
          12          12          13          13          14          14
          15          15          16          16          17          17
Primitive exponents                        R   N=         138
  5.48467166E+03  8.25234946E+02  1.88046958E+02  5.29645000E+01  1.68975704E+01
  5.79963534E+00  1.55396162E+01  3.59993359E+00  1.01376175E+00  2.70005823E-01
  8.00000000E-01  5.48467166E+03  8.25234946E+02  1.88046958E+02  5.29645000E+01
  1.68975704E+01  5.79963534E+00  1.55396162E+01  3.59993359E+00  1.01376175E+00
  2.70005823E-01  8.00000000E-01  4.17351146E+03  6.27457911E+02  1.42902093E+02
  4.02343293E+01  1.28202129E+01  4.39043701E+00  1.16263619E+01  2.71627981E+00
  7.72218397E-01  2.12031498E-01  8.00000000E-01  3.04752488E+03  4.57369518E+02
  1.03948685E+02  2.92101553E+01  9.28666296E+00  3.16392696E+00  7.86827235E+00
  1.88128854E+00  5.44249258E-01  1.68714478E-01  8.00000000E-01  3.04752488E+03
  4.57369518E+02  1.03948685E+02  2.92101553E+01  9.28666296E+00  3.16392696E+00
  7.86827235E+00  1.88128854E+00  5.44249258E-01  1.68714478E-01  8.00000000E-01
  3.04752488E+03  4.57369518E+02  1.03948685E+02  2.92101553E+01  9.28666296E+00
  3.16392696E+00  7.86827235E+00  1.88128854E+00  5.44249258E-01  1.68714478E-01
  8.00000000E-01  3.04752488E+03  4.57369518E+02  1.03948685E+02  2.92101553E+01
  9.28666296E+00  3.16392696E+00  7.86827235E+00  1.88128854E+00  5.44249258E-01
  1.68714478E-01  8.00000000E-01  3.04752488E+03  4.57369518E+02  1.03948685E+02
  2.92101553E+01  9.28666296E+00  3.16392696E+00  7.86827235E+00  1.88128854E+00
  5.44249258E-01  1.68714478E-01  8.00000000E-01  3.04752488E+03  4.57369518E+02
  1.03948685E+02  2.92101553E+01  9.28666296E+00  3.16392696E+00  7.86827235E+00
  1.88128854E+00  5.44249258E-01  1.68714478E-01  8.00000000E-01  3.04752488E+03
  4.57369518E+02  1.03948685E+02  2.92101553E+01  9.28666296E+00  3.16392696E+00
  7.86827235E+00  1.88128854E+00  5.44249258E-01  1.68714478E-01  8.00000000E-01
  1.87311370E+01  2.82539436E+00  6.40121692E-01  1.61277759E-01  1.87311370E+01
  2.82539436E+00  6.40121692E-01  1.61277759E-01  1.87311370E+01  2.82539436E+00
  6.40121692E-01  1.61277759E-01  1.87311370E+01  2.82539436E+00  6.40121692E-01
  1.61277759E-01  1.87311370E+01  2.82539436E+00  6.40121692E-01  1.61277759E-01
  1.87311370E+01  2.82539436E+00  6.40121692E-01  1.61277759E-01  1.87311370E+01
  2.82539436E+00  6.40121692E-01  1.61277759E-01
Contraction coefficients                   R   N=         138
  1.83107443E-03  1.39501722E-02  6.84450781E-02  2.32714336E-01  4.70192898E-01
  3.58520853E-01 -1.10777550E-01 -1.48026263E-01  1.13076702E+00  1.00000000E+00
  1.00000000E+00  1.83107443E-03  1.39501722E-02  6.84450781E-02  2.32714336E-01
  4.70192898E-01  3.58520853E-01 -1.10777550E-01 -1.48026263E-01  1.13076702E+00
  1.00000000E+00  1.00000000E+00  1.83477216E-03  1.39946270E-02  6.85865518E-02
  2.32240873E-01  4.69069948E-01  3.60455199E-01 -1.14961182E-01 -1.69117479E-01
  1.14585195E+00  1.00000000E+00  1.00000000E+00  1.83473713E-03  1.40373228E-02
  6.88426223E-02  2.32184443E-01  4.67941348E-01  3.62311985E-01 -1.19332420E-01
 -1.60854152E-01  1.14345644E+00  1.00000000E+00  1.00000000E+00  1.83473713E-03
  1.40373228E-02  6.88426223E-02  2.32184443E-01  4.67941348E-01  3.62311985E-01
 -1.19332420E-01 -1.60854152E-01  1.14345644E+00  1.00000000E+00  1.00000000E+00
  1.83473713E-03  1.40373228E-02  6.88426223E-02  2.32184443E-01  4.67941348E-01
  3.62311985E-01 -1.19332420E-01 -1.60854152E-01  1.14345644E+00  1.00000000E+00
  1.00000000E+00  1.83473713E-03  1.40373228E-02  6.88426223E-02  2.32184443E-01
  4.67941348E-01  3.62311985E-01 -1.19332420E-01 -1.60854152E-01  1.14345644E+00
  1.00000000E+00  1.00000000E+00  1.83473713E-03  1.40373228E-02  6.88426223E-02
  2.32184443E-01  4.67941348E-01  3.62311985E-01 -1.19332420E-01 -1.60854152E-01
  1.14345644E+00  1.00000000E+00  1.00000000E+00  1.83473713E-03  1.40373228E-02
  6.88426223E-02  2.32184443E-01  4.67941348E-01  3.62311985E-01 -1.19332420E-01
 -1.60854152E-01  1.14345644E+00  1.00000000E+00  1.00000000E+00  1.83473713E-03
  1.40373228E-02  6.88426223E-02  2.32184443E-01  4.67941348E-01  3.62311985E-01
 -1.19332420E-01 -1.60854152E-01  1.14345644E+00  1.00000000E+00  1.00000000E+00
  3.34946043E-02  2.34726953E-01  8.13757326E-01  1.00000000E+00  3.34946043E-02
  2.34726953E-01  8.13757326E-01  1.00000000E+00  3.34946043E-02  2.34726953E-01
  8.13757326E-01  1.00000000E+00  3.34946043E-02  2.34726953E-01  8.13757326E-01
  1.00000000E+00  3.34946043E-02  2.34726953E-01  8.13757326E-01  1.00000000E+00
  3.34946043E-02  2.34726953E-01  8.13757326E-01  1.00000000E+00  3.34946043E-02
  2.34726953E-01  8.13757326E-01  1.00000000E+00
P(S=P) Contraction coefficients            R   N=         138
  0.00000000E+00  0.00000000E+00  0.00000000E+00  0.00000000E+00  0.00000000E+00
  0.00000000E+00  7.08742682E-02  3.39752839E-01  7.27158577E-01  1.00000000E+00
  0.00000000E+00  0.00000000E+00  0.00000000E+00  0.00000000E+00  0.00000000E+00
  0.00000000E+00  0.00000000E+00  7.08742682E-02  3.39752839E-01  7.27158577E-01
  1.00000000E+00  0.00000000E+00  0.00000000E+00  0.00000000E+00  0.00000000E+00
  0.00000000E+00  0.00000000E+00  0.00000000E+00  6.75797439E-02  3.23907296E-01
  7.40895140E-01  1.00000000E+00  0.00000000E+00  0.00000000E+00  0.00000000E+00
  0.00000000E+00  0.00000000E+00  0.00000000E+00  0.00000000E+00  6.89990666E-02
  3.16423961E-01  7.44308291E-01  1.00000000E+00  0.00000000E+00  0.00000000E+00
  0.00000000E+00  0.00000000E+00  0.00000000E+00  0.00000000E+00  0.00000000E+00
  6.89990666E-02  3.16423961E-01  7.44308291E-01  1.00000000E+00  0.00000000E+00
  0.00000000E+00  0.00000000E+00  0.00000000E+00  0.00000000E+00  0.00000000E+00
  0.00000000E+00  6.89990666E-02  3.16423961E-01  7.44308291E-01  1.00000000E+00
  0.00000000E+00  0.00000000E+00  0.00000000E+00  0.00000000E+00  0.00000000E+00
  0.00000000E+00  0.00000000E+00  6.89990666E-02  3.16423961E-01  7.44308291E-01
  1.00000000E+00  0.00000000E+00  0.00000000E+00  0.00000000E+00  0.00000000E+00
  0.00000000E+00  0.00000000E+00  0.00000000E+00  6.89990666E-02  3.16423961E-01
  7.44308291E-01  1.00000000E+00  0.00000000E+00  0.00000000E+00  0.00000000E+00
  0.00000000E+00  0.00000000E+00  0.00000000E+00  0.00000000E+00  6.89990666E-02
  3.16423961E-01  7.44308291E-01  1.00000000E+00  0.00000000E+00  0.00000000E+00
  0.00000000E+00  0.00000000E+00  0.00000000E+00  0.00000000E+00  0.00000000E+00
  6.89990666E-02  3.16423961E-01  7.44308291E-01  1.00000000E+00  0.00000000E+00
  0.00000000E+00  0.00000000E+00  0.00000000E+00  0.00000000E+00  0.00000000E+00
  0.00000000E+00  0.00000000E+00  0.00000000E+00  0.00000000E+00  0.00000000E+00
  0.00000000E+00  0.00000000E+00  0.00000000E+00  0.00000000E+00  0.00000000E+00
  0.00000000E+00  0.00000000E+00  0.00000000E+00  0.00000000E+00  0.00000000E+00
  0.00000000E+00  0.00000000E+00  0.00000000E+00  0.00000000E+00  0.00000000E+00
  0.00000000E+00  0.00000000E+00  0.00000000E+00
Coordinates of each shell                  R   N=         162
  5.48224381E+00  9.47121306E-01  3.47207707E-02  5.48224381E+00  9.47121306E-01
  3.47207707E-02  5.48224381E+00  9.47121306E-01  3.47207707E-02  5.48224381E+00
  9.47121306E-01  3.47207707E-02  4.14697311E+00 -2.99062165E+00 -2.94286016E-02
  4.14697311E+00 -2.99062165E+00 -2.94286016E-02  4.14697311E+00 -2.99062165E+00
 -2.94286016E-02  4.14697311E+00 -2.99062165E+00 -2.94286016E-02  3.78028442E+00
 -6.70932148E-01  1.48176393E-03  3.78028442E+00 -6.70932148E-01  1.48176393E-03
  3.78028442E+00 -6.70932148E-01  1.48176393E-03  3.78028442E+00 -6.70932148E-01
  1.48176393E-03 -3.29565751E+00 -7.37722582E-01 -2.53620013E-02 -3.29565751E+00
 -7.37722582E-01 -2.53620013E-02 -3.29565751E+00 -7.37722582E-01 -2.53620013E-02
 -3.29565751E+00 -7.37722582E-01 -2.53620013E-02 -7.84125745E-01 -1.56098832E+00
 -1.30483552E-02 -7.84125745E-01 -1.56098832E+00 -1.30483552E-02 -7.84125745E-01
 -1.56098832E+00 -1.30483552E-02 -7.84125745E-01 -1.56098832E+00 -1.30483552E-02
  1.14862909E+00  2.23540469E-01 -7.85806200E-05  1.14862909E+00  2.23540469E-01
 -7.85806200E-05  1.14862909E+00  2.23540469E-01 -7.85806200E-05  1.14862909E+00
  2.23540469E-01 -7.85806200E-05 -3.78309034E+00  1.86676482E+00 -1.84719997E-02
 -3.78309034E+00  1.86676482E+00 -1.84719997E-02 -3.78309034E+00  1.86676482E+00
 -1.84719997E-02 -3.78309034E+00  1.86676482E+00 -1.84719997E-02  6.98933490E-01
  2.81539858E+00  5.64908341E-03  6.98933490E-01  2.81539858E+00  5.64908341E-03
  6.98933490E-01  2.81539858E+00  5.64908341E-03  6.98933490E-01  2.81539858E+00
  5.64908341E-03 -1.81068357E+00  3.61873793E+00 -6.44084018E-03 -1.81068357E+00
  3.61873793E+00 -6.44084018E-03 -1.81068357E+00  3.61873793E+00 -6.44084018E-03
 -1.81068357E+00  3.61873793E+00 -6.44084018E-03 -5.42968349E+00 -2.62008800E+00
  3.20288942E-02 -5.42968349E+00 -2.62008800E+00  3.20288942E-02 -5.42968349E+00
 -2.62008800E+00  3.20288942E-02 -5.42968349E+00 -2.62008800E+00  3.20288942E-02
 -3.15710801E-01 -3.55812570E+00 -2.42452578E-02 -3.15710801E-01 -3.55812570E+00
 -2.42452578E-02 -5.73065647E+00  2.52887376E+00 -3.57884434E-02 -5.73065647E+00
  2.52887376E+00 -3.57884434E-02  2.26701736E+00  4.13352547E+00  9.75511131E-03
  2.26701736E+00  4.13352547E+00  9.75511131E-03 -2.22762555E+00  5.63012914E+00
 -9.73230927E-03 -2.22762555E+00  5.63012914E+00 -9.73230927E-03 -4.84816765E+00
 -4.42579162E+00 -7.84972822E-01 -4.84816765E+00 -4.42579162E+00 -7.84972822E-01
 -6.04613320E+00 -2.97381919E+00  1.97556612E+00 -6.04613320E+00 -2.97381919E+00
  1.97556612E+00 -7.06038150E+00 -1.92412147E+00 -1.02894930E+00 -7.06038150E+00
 -1.92412147E+00 -1.02894930E+00
Constraint Structure                       R   N=          51
  5.48224381E+00  9.47121306E-01  3.47207707E-02  4.14697311E+00 -2.99062165E+00
 -2.94286016E-02  3.78028442E+00 -6.70932148E-01  1.48176393E-03 -3.29565751E+00
 -7.37722582E-01 -2.53620013E-02 -7.84125745E-01 -1.56098832E+00 -1.30483552E-02
  1.14862909E+00  2.23540469E-01 -7.85806200E-05 -3.78309034E+00  1.86676482E+00
 -1.84719997E-02  6.98933490E-01  2.81539858E+00  5.64908341E-03 -1.81068357E+00
  3.61873793E+00 -6.44084018E-03 -5.42968349E+00 -2.62008800E+00  3.20288942E-02
 -3.15710801E-01 -3.55812570E+00 -2.42452578E-02 -5.73065647E+00  2.52887376E+00
 -3.57884434E-02  2.26701736E+00  4.13352547E+00  9.75511131E-03 -2.22762555E+00
  5.63012914E+00 -9.73230927E-03 -4.84816765E+00 -4.42579162E+00 -7.84972822E-01
 -6.04613320E+00 -2.97381919E+00  1.97556612E+00 -7.06038150E+00 -1.92412147E+00
 -1.02894930E+00
Num ILSW                                   I              100
ILSW                                       I   N=         100
           0           1           0           0           2           0
           0           0           0           0           0          -1
           0           0           0           0           0           0
           0           0           0           0           1           0
           1           0           0           0           0           0
           0           0      100000           0          -1           0
           0           0           0           0           0           0
           0           0           0           1           1           0
           0           0           1           0           0           0
           0           0           4          40           0           0
           0           0           0           0           0           0
           0           0           0           0           0           0
           0           0           0           0           0           0
           0           0           0           0           0           0
           0           0           0           0           0           0
           0           0           0           0           0           0
           0           0           0           0
Num RLSW                                   I               40
RLSW                                       R   N=          40
  1.00000000E+00  1.00000000E+00  1.00000000E+00  1.00000000E+00  1.00000000E+00
  0.00000000E+00  0.00000000E+00  1.00000000E+00  0.00000000E+00  0.00000000E+00
  0.00000000E+00  0.00000000E+00  1.00000000E+00  0.00000000E+00  0.00000000E+00
  0.00000000E+00  0.00000000E+00  1.00000000E+00  0.00000000E+00  0.00000000E+00
  0.00000000E+00  0.00000000E+00  1.00000000E+00  0.00000000E+00  0.00000000E+00
  0.00000000E+00  0.00000000E+00  1.00000000E+00  0.00000000E+00  0.00000000E+00
  0.00000000E+00  0.00000000E+00  0.00000000E+00  0.00000000E+00  0.00000000E+00
  0.00000000E+00  0.00000000E+00  0.00000000E+00  1.00000000E+00  1.00000000E+00
MxBond                                     I                4
NBond                                      I   N=          17
           1           1           3           3           3           3
           3           3           3           4           1           1
           1           1           1           1           1
IBond                                      I   N=          68
           3           0           0           0           3           0
           0           0           1           2           6           0
           5           7          10           0           4           6
          11           0           3           5           8           0
           4           9          12           0           6           9
          13           0           7           8          14           0
           4          15          16          17           5           0
           0           0           7           0           0           0
           8           0           0           0           9           0
           0           0          10           0           0           0
          10           0           0           0          10           0
           0           0
RBond                                      R   N=          68
  2.00000000E+00  0.00000000E+00  0.00000000E+00  0.00000000E+00  2.00000000E+00
  0.00000000E+00  0.00000000E+00  0.00000000E+00  2.00000000E+00  2.00000000E+00
  1.00000000E+00  0.00000000E+00  1.50000000E+00  1.50000000E+00  1.00000000E+00
  0.00000000E+00  1.50000000E+00  1.50000000E+00  1.00000000E+00  0.00000000E+00
  1.00000000E+00  1.50000000E+00  1.50000000E+00  0.00000000E+00  1.50000000E+00
  1.50000000E+00  1.00000000E+00  0.00000000E+00  1.50000000E+00  1.50000000E+00
  1.00000000E+00  0.00000000E+00  1.50000000E+00  1.50000000E+00  1.00000000E+00
  0.00000000E+00  1.00000000E+00  1.00000000E+00  1.00000000E+00  1.00000000E+00
  1.00000000E+00  0.00000000E+00  0.00000000E+00  0.00000000E+00  1.00000000E+00
  0.00000000E+00  0.00000000E+00  0.00000000E+00  1.00000000E+00  0.00000000E+00
  0.00000000E+00  0.00000000E+00  1.00000000E+00  0.00000000E+00  0.00000000E+00
  0.00000000E+00  1.00000000E+00  0.00000000E+00  0.00000000E+00  0.00000000E+00
  1.00000000E+00  0.00000000E+00  0.00000000E+00  0.00000000E+00  1.00000000E+00
  0.00000000E+00  0.00000000E+00  0.00000000E+00
Virial Ratio                               R      2.002957210873360E+00
SCF Energy                                 R     -4.732031634250467E+02
MP2 Energy                                 R     -4.746401121243625E+02
Total Energy                               R     -4.746401121243625E+02
Post-SCF wavefunction norm                 R      1.731405307330760E+00
RMS Force                                  R      5.288849900164601E-08
RMS Density                                R      5.308344075495680E-09
External E-field                           R   N=          35
  0.00000000E+00  0.00000000E+00  0.00000000E+00  0.00000000E+00  0.00000000E+00
  0.00000000E+00  0.00000000E+00  0.00000000E+00  0.00000000E+00  0.00000000E+00
  0.00000000E+00  0.00000000E+00  0.00000000E+00  0.00000000E+00  0.00000000E+00
  0.00000000E+00  0.00000000E+00  0.00000000E+00  0.00000000E+00  0.00000000E+00
  0.00000000E+00  0.00000000E+00  0.00000000E+00  0.00000000E+00  0.00000000E+00
  0.00000000E+00  0.00000000E+00  0.00000000E+00  0.00000000E+00  0.00000000E+00
  0.00000000E+00  0.00000000E+00  0.00000000E+00  0.00000000E+00  0.00000000E+00
IOpCl                                      I                0
IROHF                                      I                0
Alpha Orbital Energies                     R   N=         164
 -2.06065571E+01 -2.06064972E+01 -1.58556538E+01 -1.13098910E+01 -1.12725724E+01
 -1.12724750E+01 -1.12707925E+01 -1.12689070E+01 -1.12652509E+01 -1.12447373E+01
 -1.58388133E+00 -1.38160272E+00 -1.19558218E+00 -1.09807456E+00 -1.06309376E+00
 -9.66300836E-01 -9.52482066E-01 -8.45552339E-01 -8.12198477E-01 -7.58357277E-01
 -7.15864437E-01 -7.02446205E-01 -7.00001934E-01 -6.60632178E-01 -6.33120627E-01
 -6.01190479E-01 -5.96066646E-01 -5.63856269E-01 -5.40785183E-01 -5.18362614E-01
 -5.17321263E-01 -4.86808634E-01 -4.83923411E-01 -4.43689749E-01 -3.69943001E-01
 -3.52682933E-01  4.72510678E-02  1.16460184E-01  1.63580448E-01  2.19144934E-01
  2.46981277E-01  2.71371842E-01  2.89134446E-01  3.06925547E-01  3.17640846E-01
  3.26206376E-01  3.65493086E-01  3.75089804E-01  3.92921598E-01  4.45209811E-01
  4.74311900E-01  4.81396574E-01  4.91958711E-01  5.20116708E-01  5.80423742E-01
  6.45034149E-01  6.87727744E-01  7.06718156E-01  7.15015859E-01  7.41025994E-01
  7.49132579E-01  7.84776919E-01  7.89286629E-01  8.03175463E-01  8.08559351E-01
  8.16577276E-01  8.50368423E-01  8.59117464E-01  8.82789306E-01  9.15341958E-01
  9.29526936E-01  9.43853172E-01  9.78804678E-01  9.99578235E-01  1.02101934E+00
  1.02286004E+00  1.05514182E+00  1.07277887E+00  1.07696863E+00  1.09309544E+00
  1.11967745E+00  1.13969073E+00  1.15472877E+00  1.18048346E+00  1.18911023E+00
  1.21779021E+00  1.22202613E+00  1.24077198E+00  1.24213160E+00  1.28557100E+00
  1.30345788E+00  1.32143034E+00  1.33542013E+00  1.38407199E+00  1.40861649E+00
  1.47228052E+00  1.47448818E+00  1.52592301E+00  1.52840583E+00  1.56352074E+00
  1.61414605E+00  1.63175842E+00  1.65189918E+00  1.68449182E+00  1.71799933E+00
  1.73195359E+00  1.73674727E+00  1.74314592E+00  1.80111043E+00  1.95753667E+00
  1.99998000E+00  2.02350698E+00  2.04749656E+00  2.05978921E+00  2.10258625E+00
  2.11344220E+00  2.13713826E+00  2.15703300E+00  2.18009356E+00  2.18707665E+00
  2.21599079E+00  2.23936628E+00  2.26028027E+00  2.32136835E+00  2.37267118E+00
  2.37826429E+00  2.42243730E+00  2.43322826E+00  2.44597445E+00  2.47663729E+00
  2.48832831E+00  2.54545993E+00  2.57514241E+00  2.59549118E+00  2.62439910E+00
  2.67042531E+00  2.70821017E+00  2.71605303E+00  2.83939340E+00  2.84861337E+00
  2.92229161E+00  2.94541959E+00  2.95206326E+00  3.04011850E+00  3.04256922E+00
  3.09625659E+00  3.11193950E+00  3.18304335E+00  3.23824416E+00  3.25575302E+00
  3.30809117E+00  3.41661454E+00  3.54309977E+00  3.77997215E+00  4.12390793E+00
  4.29928406E+00  4.35969323E+00  4.49003561E+00  4.51505545E+00  4.53312601E+00
  4.64040267E+00  4.75178482E+00  4.81163998E+00  5.12067201E+00
Alpha MO coefficients                      R   N=       26896
  8.78709308E-01  1.85106399E-02 -1.11787762E-03 -1.04814971E-03 -2.18950790E-05
  3.61275956E-03  1.83106172E-04  1.56559594E-04  2.49943898E-06 -3.32919129E-03
 -3.24806236E-03 -3.47303443E-03  1.74331721E-06  1.02124430E-06  3.83604203E-06
 -4.66270158E-01 -9.85391143E-03  1.08603576E-04 -8.14744764E-04 -1.11215758E-05
 -1.86404723E-03 -4.56492575E-05  1.89085990E-04  1.97171117E-06  1.75627475E-03
  1.74920123E-03  1.78589239E-03 -1.04962603E-04 -1.74150281E-06 -1.35590122E-06
  1.12067130E-05  1.55377041E-04  1.03126676E-04  1.98737687E-04  3.30990909E-06
  5.51172837E-05 -4.17051381E-04 -5.76729214E-04 -8.78990699E-06 -3.07740459E-04
 -9.77525997E-06 -4.32551555E-06 -4.40590437E-04 -8.46577319E-06 -2.70046525E-06
  2.75253331E-06  1.61728419E-05  4.34145265E-06  1.15829541E-05 -1.39243803E-08
 -9.75421747E-05 -1.13771392E-04 -2.51947148E-04  7.40730990E-08 -4.08382527E-06
  4.90891882E-08  5.60981766E-06 -2.65842853E-06 -2.11492139E-07 -2.35188740E-07
 -3.04835974E-06 -2.71579551E-05  2.10549415E-05  4.86889575E-06  1.80375839E-07
  5.39739533E-04  2.84865059E-04  3.23369196E-04  1.08749185E-06  1.48405849E-05
  2.49340714E-05 -4.07177934E-06  2.14162067E-05  2.07567868E-07 -3.04367330E-08
 -1.83942159E-06 -3.65396705E-06 -2.93354557E-05 -3.47139622E-05 -6.75383379E-07
 -3.44275198E-06  1.13262302E-04  9.10154607E-04  5.22539870E-06 -8.52064752E-05
  6.54845587E-05 -1.07398166E-05 -8.56427407E-05 -1.23105415E-06  3.91035926E-07
  1.36490236E-07  5.99292807E-07 -2.88707891E-06 -1.03350892E-05 -1.77014258E-07
 -2.73490715E-06 -1.46482541E-05 -1.39862545E-04 -4.53717685E-07 -2.83077893E-06
  2.61651599E-06  7.58070667E-07 -6.92867751E-06 -1.21494074E-07 -1.38514561E-08
  3.00876606E-06  3.87151452E-05 -1.34088046E-05  1.25994589E-05  2.68541057E-07
 -5.23689965E-04 -3.41969948E-05  5.81244961E-04 -5.25243159E-07 -6.53258141E-06
 -5.27699984E-05  6.05574258E-06  1.84843657E-06 -1.11002963E-07  4.77570927E-08
 -8.34831123E-07 -6.11151257E-06  1.11048055E-05  5.03068041E-06  7.02867228E-08
  2.95389595E-05 -1.53096751E-04 -1.94001493E-04 -6.45277718E-07 -3.12895527E-08
  4.57740428E-06 -7.43035910E-07 -3.10612575E-06  4.44726087E-08 -7.24773531E-09
 -2.25287959E-08  2.87018595E-06 -8.36284675E-06 -7.43049347E-07 -1.23963078E-07
 -1.21241134E-04 -2.80318152E-05 -4.71597818E-05  4.64598262E-06 -1.41351693E-06
 -1.24982623E-06 -2.53415451E-06 -1.90487036E-06 -1.07778543E-06  1.32507121E-06
 -7.47462508E-06  1.36082083E-04  2.55994363E-06  1.27457034E-05  1.84642945E-05
 -2.49264259E-04  1.32432724E-05  5.97219162E-05  4.48876848E-07 -5.46559023E-06