161_BenzylAlcohol Gaussian SP Calculation on g2-node38.bme.utexas.edu   
Freq      RMP2-FC                                                     6-31G(d)            
Number of atoms                            I               16
Info1-9                                    I   N=           9
          27          26        1002           0           0         100
           6           2           1
Charge                                     I                0
Multiplicity                               I                1
Number of electrons                        I               58
Number of alpha electrons                  I               29
Number of beta electrons                   I               29
Number of basis functions                  I              136
Number of independent functions            I              136
Number of point charges in /Mol/           I                0
Number of translation vectors              I                0
Atomic numbers                             I   N=          16
           8           6           6           6           6           6
           6           6           1           1           1           1
           1           1           1           1
Nuclear charges                            R   N=          16
  8.00000000E+00  6.00000000E+00  6.00000000E+00  6.00000000E+00  6.00000000E+00
  6.00000000E+00  6.00000000E+00  6.00000000E+00  1.00000000E+00  1.00000000E+00
  1.00000000E+00  1.00000000E+00  1.00000000E+00  1.00000000E+00  1.00000000E+00
  1.00000000E+00
Current cartesian coordinates              R   N=          48
  5.19539926E+00 -8.39809182E-01 -6.15231186E-01  8.46220812E-01  4.79135460E-01
  2.68757476E-01  3.63343098E+00  1.01165737E+00  5.74441801E-01 -8.89214231E-01
  2.45194509E+00 -2.45179305E-02 -3.42114279E-02 -2.01606037E+00  3.34319216E-01
 -3.47016457E+00  1.94586210E+00 -2.38863868E-01 -2.61085750E+00 -2.52499899E+00
  1.06364171E-01 -4.33617149E+00 -5.45615384E-01 -1.74179727E-01  4.06449883E+00
  2.92206065E+00 -1.24990513E-01  4.17212558E+00  9.51484493E-01  2.57041102E+00
 -2.18554579E-01  4.39662535E+00 -9.82072762E-02  1.32055200E+00 -3.54607211E+00
  5.45815986E-01 -4.80168177E+00  3.49387877E+00 -4.71907073E-01 -3.27684274E+00
 -4.46883290E+00  1.54937375E-01 -6.34415810E+00 -9.44142245E-01 -3.50864856E-01
  4.68667127E+00 -8.98080209E-01 -2.38127200E+00
Force Field                                I                0
Int Atom Types                             I   N=          16
           0           0           0           0           0           0
           0           0           0           0           0           0
           0           0           0           0
MM charges                                 R   N=          16
  0.00000000E+00  0.00000000E+00  0.00000000E+00  0.00000000E+00  0.00000000E+00
  0.00000000E+00  0.00000000E+00  0.00000000E+00  0.00000000E+00  0.00000000E+00
  0.00000000E+00  0.00000000E+00  0.00000000E+00  0.00000000E+00  0.00000000E+00
  0.00000000E+00
Integer atomic weights                     I   N=          16
          16          12          12          12          12          12
          12          12           1           1           1           1
           1           1           1           1
Real atomic weights                        R   N=          16
  1.59949146E+01  1.20000000E+01  1.20000000E+01  1.20000000E+01  1.20000000E+01
  1.20000000E+01  1.20000000E+01  1.20000000E+01  1.00782504E+00  1.00782504E+00
  1.00782504E+00  1.00782504E+00  1.00782504E+00  1.00782504E+00  1.00782504E+00
  1.00782504E+00
Atom fragment info                         I   N=          16
           0           0           0           0           0           0
           0           0           0           0           0           0
           0           0           0           0
Atom residue num                           I   N=          16
           0           0           0           0           0           0
           0           0           0           0           0           0
           0           0           0           0
Nuclear spins                              I   N=          16
           0           0           0           0           0           0
           0           0           1           1           1           1
           1           1           1           1
Nuclear ZEff                               R   N=          16
 -5.60000000E+00 -3.60000000E+00 -3.60000000E+00 -3.60000000E+00 -3.60000000E+00
 -3.60000000E+00 -3.60000000E+00 -3.60000000E+00 -1.00000000E+00 -1.00000000E+00
 -1.00000000E+00 -1.00000000E+00 -1.00000000E+00 -1.00000000E+00 -1.00000000E+00
 -1.00000000E+00
Nuclear QMom                               R   N=          16
  0.00000000E+00  0.00000000E+00  0.00000000E+00  0.00000000E+00  0.00000000E+00
  0.00000000E+00  0.00000000E+00  0.00000000E+00  0.00000000E+00  0.00000000E+00
  0.00000000E+00  0.00000000E+00  0.00000000E+00  0.00000000E+00  0.00000000E+00
  0.00000000E+00
Nuclear GFac                               R   N=          16
  0.00000000E+00  0.00000000E+00  0.00000000E+00  0.00000000E+00  0.00000000E+00
  0.00000000E+00  0.00000000E+00  0.00000000E+00  2.79284600E+00  2.79284600E+00
  2.79284600E+00  2.79284600E+00  2.79284600E+00  2.79284600E+00  2.79284600E+00
  2.79284600E+00
MicOpt                                     I   N=          16
          -1          -1          -1          -1          -1          -1
          -1          -1          -1          -1          -1          -1
          -1          -1          -1          -1
Number of contracted shells                I               48
Number of primitive shells                 I              120
Pure/Cartesian d shells                    I                1
Pure/Cartesian f shells                    I                0
Highest angular momentum                   I                2
Largest degree of contraction              I                6
Shell types                                I   N=          48
           0          -1          -1           2           0          -1
          -1           2           0          -1          -1           2
           0          -1          -1           2           0          -1
          -1           2           0          -1          -1           2
           0          -1          -1           2           0          -1
          -1           2           0           0           0           0
           0           0           0           0           0           0
           0           0           0           0           0           0
Number of primitives per shell             I   N=          48
           6           3           1           1           6           3
           1           1           6           3           1           1
           6           3           1           1           6           3
           1           1           6           3           1           1
           6           3           1           1           6           3
           1           1           3           1           3           1
           3           1           3           1           3           1
           3           1           3           1           3           1
Shell to atom map                          I   N=          48
           1           1           1           1           2           2
           2           2           3           3           3           3
           4           4           4           4           5           5
           5           5           6           6           6           6
           7           7           7           7           8           8
           8           8           9           9          10          10
          11          11          12          12          13          13
          14          14          15          15          16          16
Primitive exponents                        R   N=         120
  5.48467166E+03  8.25234946E+02  1.88046958E+02  5.29645000E+01  1.68975704E+01
  5.79963534E+00  1.55396162E+01  3.59993359E+00  1.01376175E+00  2.70005823E-01
  8.00000000E-01  3.04752488E+03  4.57369518E+02  1.03948685E+02  2.92101553E+01
  9.28666296E+00  3.16392696E+00  7.86827235E+00  1.88128854E+00  5.44249258E-01
  1.68714478E-01  8.00000000E-01  3.04752488E+03  4.57369518E+02  1.03948685E+02
  2.92101553E+01  9.28666296E+00  3.16392696E+00  7.86827235E+00  1.88128854E+00
  5.44249258E-01  1.68714478E-01  8.00000000E-01  3.04752488E+03  4.57369518E+02
  1.03948685E+02  2.92101553E+01  9.28666296E+00  3.16392696E+00  7.86827235E+00
  1.88128854E+00  5.44249258E-01  1.68714478E-01  8.00000000E-01  3.04752488E+03
  4.57369518E+02  1.03948685E+02  2.92101553E+01  9.28666296E+00  3.16392696E+00
  7.86827235E+00  1.88128854E+00  5.44249258E-01  1.68714478E-01  8.00000000E-01
  3.04752488E+03  4.57369518E+02  1.03948685E+02  2.92101553E+01  9.28666296E+00
  3.16392696E+00  7.86827235E+00  1.88128854E+00  5.44249258E-01  1.68714478E-01
  8.00000000E-01  3.04752488E+03  4.57369518E+02  1.03948685E+02  2.92101553E+01
  9.28666296E+00  3.16392696E+00  7.86827235E+00  1.88128854E+00  5.44249258E-01
  1.68714478E-01  8.00000000E-01  3.04752488E+03  4.57369518E+02  1.03948685E+02
  2.92101553E+01  9.28666296E+00  3.16392696E+00  7.86827235E+00  1.88128854E+00
  5.44249258E-01  1.68714478E-01  8.00000000E-01  1.87311370E+01  2.82539436E+00
  6.40121692E-01  1.61277759E-01  1.87311370E+01  2.82539436E+00  6.40121692E-01
  1.61277759E-01  1.87311370E+01  2.82539436E+00  6.40121692E-01  1.61277759E-01
  1.87311370E+01  2.82539436E+00  6.40121692E-01  1.61277759E-01  1.87311370E+01
  2.82539436E+00  6.40121692E-01  1.61277759E-01  1.87311370E+01  2.82539436E+00
  6.40121692E-01  1.61277759E-01  1.87311370E+01  2.82539436E+00  6.40121692E-01
  1.61277759E-01  1.87311370E+01  2.82539436E+00  6.40121692E-01  1.61277759E-01
Contraction coefficients                   R   N=         120
  1.83107443E-03  1.39501722E-02  6.84450781E-02  2.32714336E-01  4.70192898E-01
  3.58520853E-01 -1.10777550E-01 -1.48026263E-01  1.13076702E+00  1.00000000E+00
  1.00000000E+00  1.83473713E-03  1.40373228E-02  6.88426223E-02  2.32184443E-01
  4.67941348E-01  3.62311985E-01 -1.19332420E-01 -1.60854152E-01  1.14345644E+00
  1.00000000E+00  1.00000000E+00  1.83473713E-03  1.40373228E-02  6.88426223E-02
  2.32184443E-01  4.67941348E-01  3.62311985E-01 -1.19332420E-01 -1.60854152E-01
  1.14345644E+00  1.00000000E+00  1.00000000E+00  1.83473713E-03  1.40373228E-02
  6.88426223E-02  2.32184443E-01  4.67941348E-01  3.62311985E-01 -1.19332420E-01
 -1.60854152E-01  1.14345644E+00  1.00000000E+00  1.00000000E+00  1.83473713E-03
  1.40373228E-02  6.88426223E-02  2.32184443E-01  4.67941348E-01  3.62311985E-01
 -1.19332420E-01 -1.60854152E-01  1.14345644E+00  1.00000000E+00  1.00000000E+00
  1.83473713E-03  1.40373228E-02  6.88426223E-02  2.32184443E-01  4.67941348E-01
  3.62311985E-01 -1.19332420E-01 -1.60854152E-01  1.14345644E+00  1.00000000E+00
  1.00000000E+00  1.83473713E-03  1.40373228E-02  6.88426223E-02  2.32184443E-01
  4.67941348E-01  3.62311985E-01 -1.19332420E-01 -1.60854152E-01  1.14345644E+00
  1.00000000E+00  1.00000000E+00  1.83473713E-03  1.40373228E-02  6.88426223E-02
  2.32184443E-01  4.67941348E-01  3.62311985E-01 -1.19332420E-01 -1.60854152E-01
  1.14345644E+00  1.00000000E+00  1.00000000E+00  3.34946043E-02  2.34726953E-01
  8.13757326E-01  1.00000000E+00  3.34946043E-02  2.34726953E-01  8.13757326E-01
  1.00000000E+00  3.34946043E-02  2.34726953E-01  8.13757326E-01  1.00000000E+00
  3.34946043E-02  2.34726953E-01  8.13757326E-01  1.00000000E+00  3.34946043E-02
  2.34726953E-01  8.13757326E-01  1.00000000E+00  3.34946043E-02  2.34726953E-01
  8.13757326E-01  1.00000000E+00  3.34946043E-02  2.34726953E-01  8.13757326E-01
  1.00000000E+00  3.34946043E-02  2.34726953E-01  8.13757326E-01  1.00000000E+00
P(S=P) Contraction coefficients            R   N=         120
  0.00000000E+00  0.00000000E+00  0.00000000E+00  0.00000000E+00  0.00000000E+00
  0.00000000E+00  7.08742682E-02  3.39752839E-01  7.27158577E-01  1.00000000E+00
  0.00000000E+00  0.00000000E+00  0.00000000E+00  0.00000000E+00  0.00000000E+00
  0.00000000E+00  0.00000000E+00  6.89990666E-02  3.16423961E-01  7.44308291E-01
  1.00000000E+00  0.00000000E+00  0.00000000E+00  0.00000000E+00  0.00000000E+00
  0.00000000E+00  0.00000000E+00  0.00000000E+00  6.89990666E-02  3.16423961E-01
  7.44308291E-01  1.00000000E+00  0.00000000E+00  0.00000000E+00  0.00000000E+00
  0.00000000E+00  0.00000000E+00  0.00000000E+00  0.00000000E+00  6.89990666E-02
  3.16423961E-01  7.44308291E-01  1.00000000E+00  0.00000000E+00  0.00000000E+00
  0.00000000E+00  0.00000000E+00  0.00000000E+00  0.00000000E+00  0.00000000E+00
  6.89990666E-02  3.16423961E-01  7.44308291E-01  1.00000000E+00  0.00000000E+00
  0.00000000E+00  0.00000000E+00  0.00000000E+00  0.00000000E+00  0.00000000E+00
  0.00000000E+00  6.89990666E-02  3.16423961E-01  7.44308291E-01  1.00000000E+00
  0.00000000E+00  0.00000000E+00  0.00000000E+00  0.00000000E+00  0.00000000E+00
  0.00000000E+00  0.00000000E+00  6.89990666E-02  3.16423961E-01  7.44308291E-01
  1.00000000E+00  0.00000000E+00  0.00000000E+00  0.00000000E+00  0.00000000E+00
  0.00000000E+00  0.00000000E+00  0.00000000E+00  6.89990666E-02  3.16423961E-01
  7.44308291E-01  1.00000000E+00  0.00000000E+00  0.00000000E+00  0.00000000E+00
  0.00000000E+00  0.00000000E+00  0.00000000E+00  0.00000000E+00  0.00000000E+00
  0.00000000E+00  0.00000000E+00  0.00000000E+00  0.00000000E+00  0.00000000E+00
  0.00000000E+00  0.00000000E+00  0.00000000E+00  0.00000000E+00  0.00000000E+00
  0.00000000E+00  0.00000000E+00  0.00000000E+00  0.00000000E+00  0.00000000E+00
  0.00000000E+00  0.00000000E+00  0.00000000E+00  0.00000000E+00  0.00000000E+00
  0.00000000E+00  0.00000000E+00  0.00000000E+00  0.00000000E+00  0.00000000E+00
Coordinates of each shell                  R   N=         144
  5.19539926E+00 -8.39809182E-01 -6.15231186E-01  5.19539926E+00 -8.39809182E-01
 -6.15231186E-01  5.19539926E+00 -8.39809182E-01 -6.15231186E-01  5.19539926E+00
 -8.39809182E-01 -6.15231186E-01  8.46220812E-01  4.79135460E-01  2.68757476E-01
  8.46220812E-01  4.79135460E-01  2.68757476E-01  8.46220812E-01  4.79135460E-01
  2.68757476E-01  8.46220812E-01  4.79135460E-01  2.68757476E-01  3.63343098E+00
  1.01165737E+00  5.74441801E-01  3.63343098E+00  1.01165737E+00  5.74441801E-01
  3.63343098E+00  1.01165737E+00  5.74441801E-01  3.63343098E+00  1.01165737E+00
  5.74441801E-01 -8.89214231E-01  2.45194509E+00 -2.45179305E-02 -8.89214231E-01
  2.45194509E+00 -2.45179305E-02 -8.89214231E-01  2.45194509E+00 -2.45179305E-02
 -8.89214231E-01  2.45194509E+00 -2.45179305E-02 -3.42114279E-02 -2.01606037E+00
  3.34319216E-01 -3.42114279E-02 -2.01606037E+00  3.34319216E-01 -3.42114279E-02
 -2.01606037E+00  3.34319216E-01 -3.42114279E-02 -2.01606037E+00  3.34319216E-01
 -3.47016457E+00  1.94586210E+00 -2.38863868E-01 -3.47016457E+00  1.94586210E+00
 -2.38863868E-01 -3.47016457E+00  1.94586210E+00 -2.38863868E-01 -3.47016457E+00
  1.94586210E+00 -2.38863868E-01 -2.61085750E+00 -2.52499899E+00  1.06364171E-01
 -2.61085750E+00 -2.52499899E+00  1.06364171E-01 -2.61085750E+00 -2.52499899E+00
  1.06364171E-01 -2.61085750E+00 -2.52499899E+00  1.06364171E-01 -4.33617149E+00
 -5.45615384E-01 -1.74179727E-01 -4.33617149E+00 -5.45615384E-01 -1.74179727E-01
 -4.33617149E+00 -5.45615384E-01 -1.74179727E-01 -4.33617149E+00 -5.45615384E-01
 -1.74179727E-01  4.06449883E+00  2.92206065E+00 -1.24990513E-01  4.06449883E+00
  2.92206065E+00 -1.24990513E-01  4.17212558E+00  9.51484493E-01  2.57041102E+00
  4.17212558E+00  9.51484493E-01  2.57041102E+00 -2.18554579E-01  4.39662535E+00
 -9.82072762E-02 -2.18554579E-01  4.39662535E+00 -9.82072762E-02  1.32055200E+00
 -3.54607211E+00  5.45815986E-01  1.32055200E+00 -3.54607211E+00  5.45815986E-01
 -4.80168177E+00  3.49387877E+00 -4.71907073E-01 -4.80168177E+00  3.49387877E+00
 -4.71907073E-01 -3.27684274E+00 -4.46883290E+00  1.54937375E-01 -3.27684274E+00
 -4.46883290E+00  1.54937375E-01 -6.34415810E+00 -9.44142245E-01 -3.50864856E-01
 -6.34415810E+00 -9.44142245E-01 -3.50864856E-01  4.68667127E+00 -8.98080209E-01
 -2.38127200E+00  4.68667127E+00 -8.98080209E-01 -2.38127200E+00
Constraint Structure                       R   N=          48
  5.19539926E+00 -8.39809182E-01 -6.15231186E-01  8.46220812E-01  4.79135460E-01
  2.68757476E-01  3.63343098E+00  1.01165737E+00  5.74441801E-01 -8.89214231E-01
  2.45194509E+00 -2.45179305E-02 -3.42114279E-02 -2.01606037E+00  3.34319216E-01
 -3.47016457E+00  1.94586210E+00 -2.38863868E-01 -2.61085750E+00 -2.52499899E+00
  1.06364171E-01 -4.33617149E+00 -5.45615384E-01 -1.74179727E-01  4.06449883E+00
  2.92206065E+00 -1.24990513E-01  4.17212558E+00  9.51484493E-01  2.57041102E+00
 -2.18554579E-01  4.39662535E+00 -9.82072762E-02  1.32055200E+00 -3.54607211E+00
  5.45815986E-01 -4.80168177E+00  3.49387877E+00 -4.71907073E-01 -3.27684274E+00
 -4.46883290E+00  1.54937375E-01 -6.34415810E+00 -9.44142245E-01 -3.50864856E-01
  4.68667127E+00 -8.98080209E-01 -2.38127200E+00
Num ILSW                                   I              100
ILSW                                       I   N=         100
           0           1           0           0           2           0
           0           0           0           0           0          -1
           0           0           0           0           0           0
           0           0           0           0           1           0
           1           0           0           0           0           0
           0           0      100000           0          -1           0
           0           0           0           0           0           0
           0           0           0           1           1           0
           0           0           1           0           0           0
           0           0           4          40           0           0
           0           0           0           0           0           0
           0           0           0           0           0           0
           0           0           0           0           0           0
           0           0           0           0           0           0
           0           0           0           0           0           0
           0           0           0           0           0           0
           0           0           0           0
Num RLSW                                   I               40
RLSW                                       R   N=          40
  1.00000000E+00  1.00000000E+00  1.00000000E+00  1.00000000E+00  1.00000000E+00
  0.00000000E+00  0.00000000E+00  1.00000000E+00  0.00000000E+00  0.00000000E+00
  0.00000000E+00  0.00000000E+00  1.00000000E+00  0.00000000E+00  0.00000000E+00
  0.00000000E+00  0.00000000E+00  1.00000000E+00  0.00000000E+00  0.00000000E+00
  0.00000000E+00  0.00000000E+00  1.00000000E+00  0.00000000E+00  0.00000000E+00
  0.00000000E+00  0.00000000E+00  1.00000000E+00  0.00000000E+00  0.00000000E+00
  0.00000000E+00  0.00000000E+00  0.00000000E+00  0.00000000E+00  0.00000000E+00
  0.00000000E+00  0.00000000E+00  0.00000000E+00  1.00000000E+00  1.00000000E+00
MxBond                                     I                4
NBond                                      I   N=          16
           2           3           4           3           3           3
           3           3           1           1           1           1
           1           1           1           1
IBond                                      I   N=          64
           3          16           0           0           3           4
           5           0           1           2           9          10
           2           6          11           0           2           7
          12           0           4           8          13           0
           5           8          14           0           6           7
          15           0           3           0           0           0
           3           0           0           0           4           0
           0           0           5           0           0           0
           6           0           0           0           7           0
           0           0           8           0           0           0
           1           0           0           0
RBond                                      R   N=          64
  1.00000000E+00  1.00000000E+00  0.00000000E+00  0.00000000E+00  1.00000000E+00
  1.50000000E+00  1.50000000E+00  0.00000000E+00  1.00000000E+00  1.00000000E+00
  1.00000000E+00  1.00000000E+00  1.50000000E+00  1.50000000E+00  1.00000000E+00
  0.00000000E+00  1.50000000E+00  1.50000000E+00  1.00000000E+00  0.00000000E+00
  1.50000000E+00  1.50000000E+00  1.00000000E+00  0.00000000E+00  1.50000000E+00
  1.50000000E+00  1.00000000E+00  0.00000000E+00  1.50000000E+00  1.50000000E+00
  1.00000000E+00  0.00000000E+00  1.00000000E+00  0.00000000E+00  0.00000000E+00
  0.00000000E+00  1.00000000E+00  0.00000000E+00  0.00000000E+00  0.00000000E+00
  1.00000000E+00  0.00000000E+00  0.00000000E+00  0.00000000E+00  1.00000000E+00
  0.00000000E+00  0.00000000E+00  0.00000000E+00  1.00000000E+00  0.00000000E+00
  0.00000000E+00  0.00000000E+00  1.00000000E+00  0.00000000E+00  0.00000000E+00
  0.00000000E+00  1.00000000E+00  0.00000000E+00  0.00000000E+00  0.00000000E+00
  1.00000000E+00  0.00000000E+00  0.00000000E+00  0.00000000E+00
Virial Ratio                               R      2.002228119514017E+00
SCF Energy                                 R     -3.445842044462700E+02
MP2 Energy                                 R     -3.456512657023475E+02
Total Energy                               R     -3.456512657023475E+02
Post-SCF wavefunction norm                 R      1.656138427906591E+00
RMS Force                                  R      5.035348262246708E-07
RMS Density                                R      1.929043011614371E-09
External E-field                           R   N=          35
  0.00000000E+00  0.00000000E+00  0.00000000E+00  0.00000000E+00  0.00000000E+00
  0.00000000E+00  0.00000000E+00  0.00000000E+00  0.00000000E+00  0.00000000E+00
  0.00000000E+00  0.00000000E+00  0.00000000E+00  0.00000000E+00  0.00000000E+00
  0.00000000E+00  0.00000000E+00  0.00000000E+00  0.00000000E+00  0.00000000E+00
  0.00000000E+00  0.00000000E+00  0.00000000E+00  0.00000000E+00  0.00000000E+00
  0.00000000E+00  0.00000000E+00  0.00000000E+00  0.00000000E+00  0.00000000E+00
  0.00000000E+00  0.00000000E+00  0.00000000E+00  0.00000000E+00  0.00000000E+00
IOpCl                                      I                0
IROHF                                      I                0
Alpha Orbital Energies                     R   N=         136
 -2.05646998E+01 -1.12829584E+01 -1.12406605E+01 -1.12387676E+01 -1.12375847E+01
 -1.12372842E+01 -1.12360413E+01 -1.12329975E+01 -1.35524330E+00 -1.14941554E+00
 -1.03454427E+00 -1.01133560E+00 -9.16924861E-01 -8.25111739E-01 -7.99466340E-01
 -7.05393435E-01 -6.76819804E-01 -6.42267486E-01 -6.16733936E-01 -6.00874661E-01
 -5.88749438E-01 -5.81012444E-01 -5.28301302E-01 -5.00219022E-01 -4.91115863E-01
 -4.78033488E-01 -4.47621575E-01 -3.33907883E-01 -3.26887999E-01  1.36443844E-01
  1.40431630E-01  2.34501587E-01  2.42121445E-01  2.71366499E-01  2.93481110E-01
  3.06880234E-01  3.16285655E-01  3.36763573E-01  3.44867563E-01  3.66220613E-01
  4.07654044E-01  4.33998608E-01  4.78037418E-01  5.00465063E-01  5.08630635E-01
  5.25275061E-01  6.74620251E-01  7.26140577E-01  7.39095841E-01  7.52313630E-01
  7.58346471E-01  7.81990949E-01  8.13684515E-01  8.26056791E-01  8.30349389E-01
  8.39738292E-01  8.41189436E-01  8.61030517E-01  8.70718644E-01  9.13193439E-01
  9.35334801E-01  9.64073280E-01  9.83078619E-01  1.01069697E+00  1.07460485E+00
  1.10018602E+00  1.10760419E+00  1.11586228E+00  1.11729357E+00  1.15639201E+00
  1.17169576E+00  1.18117372E+00  1.18953200E+00  1.20605054E+00  1.24933800E+00
  1.28410283E+00  1.28618463E+00  1.33655151E+00  1.34970152E+00  1.37170386E+00
  1.42845799E+00  1.44464191E+00  1.49178086E+00  1.51505128E+00  1.56280787E+00
  1.66274751E+00  1.69857435E+00  1.70749337E+00  1.72357652E+00  1.75578272E+00
  1.77188720E+00  1.79219627E+00  1.86485293E+00  1.95817749E+00  2.03412794E+00
  2.08354963E+00  2.10317479E+00  2.11875748E+00  2.16430856E+00  2.22333876E+00
  2.23847882E+00  2.30398144E+00  2.33437254E+00  2.38361307E+00  2.40031393E+00
  2.41074986E+00  2.45535639E+00  2.46583542E+00  2.48785653E+00  2.54653677E+00
  2.57141776E+00  2.63392552E+00  2.63533176E+00  2.67030269E+00  2.70541712E+00
  2.79926362E+00  2.81373454E+00  2.91808784E+00  2.92210466E+00  2.99592201E+00
  3.07217170E+00  3.09386614E+00  3.09671714E+00  3.14338235E+00  3.20766766E+00
  3.23774909E+00  3.44324962E+00  3.78582918E+00  4.17055550E+00  4.51256794E+00
  4.53891315E+00  4.54920696E+00  4.68476422E+00  4.75354075E+00  4.83640663E+00
  5.12423908E+00
Alpha MO coefficients                      R   N=       18496
  9.94661366E-01  2.11369246E-02 -9.17594017E-04  6.98212050E-04 -6.10298239E-04
  3.97148619E-03  4.55962020E-04 -3.44739376E-04  3.48946697E-04 -3.98955679E-03
 -4.00496823E-03 -4.11989955E-03  1.66024624E-04  2.89199556E-06 -1.02270978E-04
 -4.85356929E-06  2.62233310E-05 -3.78159405E-05  4.24191423E-05  8.45975497E-06
 -3.02128172E-06 -1.98029807E-04 -1.00128204E-03  7.77419815E-05 -7.98650097E-05
 -9.78375423E-06 -2.27490113E-05  4.29309320E-05  1.41646290E-05  4.93262687E-06
 -2.95653310E-05  1.91862559E-04  2.19126982E-04 -2.60850639E-04 -1.36165699E-04
  4.06585325E-04 -4.14494812E-04  3.70021473E-04 -2.81285687E-04 -3.52199189E-06
 -1.71579781E-05 -5.10674244E-05 -5.02336176E-05 -3.68889362E-05  4.90536062E-05
 -3.24782818E-06 -3.11371937E-05  2.24821196E-05 -1.24077678E-05  2.59353396E-06
  4.92955666E-04  2.88823636E-04 -1.58578904E-04  3.61606706E-05  2.48062164E-05
  1.06113661E-05 -3.85910259E-06 -1.71794383E-05  4.45655679E-06 -3.24928324E-06
  5.58047750E-06  4.52948733E-05 -1.29837004E-05  1.81494235E-06  4.89958845E-06
 -6.55472795E-04 -1.57530767E-04 -6.00179885E-04  6.68533336E-06 -9.93001343E-06
 -2.65938480E-05  1.22133560E-05 -1.19858292E-05  2.67961609E-06  1.45908040E-06
  3.52643620E-06  1.90941140E-05 -2.95433816E-06 -9.10181246E-06  9.99310087E-07
 -5.60263484E-05  9.23448362E-06  1.62190672E-04 -1.12673520E-05 -4.27881427E-06
 -1.56529434E-07  8.22560059E-06 -9.01040859E-07 -1.68756630E-06  8.62110996E-07
 -5.87118584E-07 -4.17143321E-06  1.17948065E-05 -6.69686313E-06  2.04606218E-06
  4.03411775E-05 -1.40725629E-04  2.23589849E-04 -2.28214491E-05  1.30281111E-06
  2.10458480E-06  4.56407001E-07  1.74646326E-06  1.49998942E-06  1.97423422E-07
  5.57403536E-07  2.69525873E-06 -1.99355279E-06  9.44053958E-06 -7.55509168E-07
 -6.59526026E-05 -3.49401187E-05  1.33505135E-04 -1.24902366E-05 -1.47410475E-06
  1.35502602E-06  1.46469032E-06  5.75776690E-06 -8.64401461E-07  7.86699966E-07
 -7.80737855E-05 -2.07958026E-04  1.93609161E-05  5.72001257E-05 -9.16652458E-06
 -1.39107429E-05  2.13484735E-05 -1.95237437E-04 -8.13177631E-06 -4.19882890E-05
  1.49276980E-05  5.82227534E-05  2.48428162E-06 -6.28621109E-07  4.09043812E-04
 -2.14341220E-04 -1.55930907E-04  5.94971917E-05 -9.56651405E-05  7.00355969E-05
  2.01798696E-05  1.91484401E-03 -1.29299445E-04  9.52487318E-05  1.74824046E-04
 -2.44205803E-04 -3.72221724E-04 -1.84316903E-04  3.34969587E-04  2.13913221E-04
 -3.32442114E-04  7.41787379E-03  2.50442196E-04 -1.01283851E-05 -1.65349854E-05
  1.66424034E-05  4.25815800E-03  2.19261255E-03  1.14912440E-03  1.03064089E-04
 -4.29328201E-04 -2.22819945E-04 -1.75198553E-04 -7.75918227E-05 -1.99293062E-05
 -1.39239324E-06  9.95885584E-01  2.76969671E-02  2.19950327E-04 -5.80279025E-04
 -3.63522167E-04 -1.53661899E-02  1.42558870E-03  3.04451283E-04 -3.58159623E-05
 -1.52684232E-03 -1.44630091E-03 -1.43526216E-03 -7.24455298E-05 -4.30027217E-05
  4.43953522E-06 -5.31545290E-05 -5.42422859E-05 -8.74554197E-05 -2.83340787E-05
 -1.75244432E-05 -1.11432531E-03  2.76117888E-04  5.21638181E-04  7.35577365E-05
 -4.47349887E-05  7.50774375E-05 -4.63019315E-05 -1.28052903E-05  1.28776169E-05
 -1.33198365E-05 -3.52685583E-05 -9.38513276E-05 -1.30688651E-04 -3.09397381E-05
 -2.46980234E-05 -9.63887755E-04  1.61543532E-03  5.66154070E-04  1.89450759E-04
 -3.91828139E-05  1.24711151E-04 -5.82919555E-05 -1.48987440E-05  4.59310479E-06
 -8.96292127E-06 -1.49363164E-05 -1.51920033E-04 -1.16593319E-05  1.29444539E-05
  4.83647512E-06  1.57612902E-03  7.05601317E-04 -7.64105801E-04  6.89394655E-05
  2.33738706E-05 -5.47565957E-06 -6.21231097E-05  6.51341059E-07  5.45076731E-06
 -2.06594116E-06 -2.20546475E-05 -1.88684483E-04  1.88970258E-06 -5.79269365E-06
  6.59106753E-06  2.23064643E-03  1.19465315E-03  7.27025592E-04  3.82847145E-05
  3.71074588E-05 -1.52888347E-05 -7.55004177E-05  2.28801970E-05  9.02779544E-06
 -4.38002820E-06  1.15047043E-05  3.77523489E-05 -1.55877258E-05  2.77775263E-06
 -3.72427676E-06 -1.01648209E-03 -7.58526395E-04 -4.39033969E-04 -2.17024107E-05
 -2.88545060E-06 -1.57570062E-06 -3.25741371E-06 -6.13712037E-06  2.46304457E-06
  2.19516288E-07  1.89178253E-04  2.45332894E-03  2.24386368E-04  2.67875682E-03
 -4.38753926E-05 -2.38643299E-04 -1.30320012E-04 -3.67664973E-07  1.90999438E-05
  3.25031323E-04 -6.77281830E-06  2.87490015E-04 -4.57887277E-05 -1.83742676E-04
  3.26853128E-05  3.35164799E-04 -6.15667635E-06 -1.10755098E-04  5.83129688E-05
 -3.37397156E-05 -3.01493287E-05  1.33952673E-04 -1.50658013E-04  1.65466640E-04
  1.90945513E-04  5.83374388E-05 -4.02609528E-05 -4.71405793E-05 -2.79761996E-05
 -1.01757147E-05  6.10058760E-05  9.69993671E-01  2.69294663E-02  2.74748583E-06
  5.01241115E-06  1.45206371E-05 -1.31793354E-02  4.96827525E-04  1.95598943E-04
  4.35572626E-05 -1.61617805E-03 -1.46095840E-03 -2.18522608E-03 -4.76282736E-05