6346                                                                    
Freq      RMP2-FC                                                     Gen                 
Number of atoms                            I                5
Info1-9                                    I   N=           9
          83          82        1002           0           0         100
           6           2           1
Charge                                     I                0
Multiplicity                               I                1
Number of electrons                        I              114
Number of alpha electrons                  I               57
Number of beta electrons                   I               57
Number of basis functions                  I              154
Number of independent functions            I              154
Number of point charges in /Mol/           I                0
Number of translation vectors              I                0
Atomic numbers                             I   N=           5
          53          53           6           1           1
Nuclear charges                            R   N=           5
  5.30000000E+01  5.30000000E+01  6.00000000E+00  1.00000000E+00  1.00000000E+00
Current cartesian coordinates              R   N=          15
 -3.43807003E+00 -1.71505947E-01  0.00000000E+00  3.43806999E+00 -1.71510104E-01
  0.00000000E+00 -4.06575815E-20  1.98268369E+00  0.00000000E+00  1.23269164E-06
  3.14187427E+00  1.69361116E+00  1.23269164E-06  3.14187427E+00 -1.69361116E+00
Force Field                                I                0
Int Atom Types                             I   N=           5
           0           0           0           0           0
MM charges                                 R   N=           5
  0.00000000E+00  0.00000000E+00  0.00000000E+00  0.00000000E+00  0.00000000E+00
Integer atomic weights                     I   N=           5
         127         127          12           1           1
Real atomic weights                        R   N=           5
  1.26900400E+02  1.26900400E+02  1.20000000E+01  1.00782504E+00  1.00782504E+00
Atom fragment info                         I   N=           5
           0           0           0           0           0
Atom residue num                           I   N=           5
           0           0           0           0           0
Nuclear spins                              I   N=           5
           5           5           0           1           1
Nuclear ZEff                               R   N=           5
 -6.57200000E+01 -6.57200000E+01 -3.60000000E+00 -1.00000000E+00 -1.00000000E+00
Nuclear QMom                               R   N=           5
 -7.10000000E+01 -7.10000000E+01  0.00000000E+00  0.00000000E+00  0.00000000E+00
Nuclear GFac                               R   N=           5
  2.81328000E+00  2.81328000E+00  0.00000000E+00  2.79284600E+00  2.79284600E+00
MicOpt                                     I   N=           5
          -1          -1          -1          -1          -1
Number of contracted shells                I               61
Number of primitive shells                 I               92
Pure/Cartesian d shells                    I                0
Pure/Cartesian f shells                    I                0
Highest angular momentum                   I                2
Largest degree of contraction              I                6
Shell types                                I   N=          61
           0           0           0           0           0           0
           0           0           0           0           1           1
           1           1           1           1           1           1
           1          -2          -2          -2          -2          -2
           0           0           0           0           0           0
           0           0           0           0           1           1
           1           1           1           1           1           1
           1          -2          -2          -2          -2          -2
           0          -1          -1          -1          -2           0
           0           0           1           0           0           0
           1
Number of primitives per shell             I   N=          61
           5           2           1           1           1           1
           1           1           1           1           4           1
           1           1           1           1           1           1
           1           3           1           1           1           1
           5           2           1           1           1           1
           1           1           1           1           4           1
           1           1           1           1           1           1
           1           3           1           1           1           1
           6           3           1           1           1           3
           1           1           1           3           1           1
           1
Shell to atom map                          I   N=          61
           1           1           1           1           1           1
           1           1           1           1           1           1
           1           1           1           1           1           1
           1           1           1           1           1           1
           2           2           2           2           2           2
           2           2           2           2           2           2
           2           2           2           2           2           2
           2           2           2           2           2           2
           3           3           3           3           3           4
           4           4           4           5           5           5
           5
Primitive exponents                        R   N=          92
  4.44750000E+05  6.61270000E+04  1.48150000E+04  4.14490000E+03  1.36120000E+03
  5.08440000E+02  2.09590000E+02  8.19590000E+01  3.68050000E+01  1.34950000E+01
  6.88590000E+00  2.55200000E+00  1.20880000E+00  2.73400000E-01  1.00900000E-01
  2.95360000E+03  7.12610000E+02  2.36710000E+02  9.26310000E+01  3.97320000E+01
  1.72730000E+01  7.95700000E+00  3.15290000E+00  1.33280000E+00  4.94700000E-01
  2.16000000E-01  8.29300000E-02  2.61950000E+02  7.67340000E+01  2.75510000E+01
  1.06060000E+01  3.42170000E+00  1.13700000E+00  3.02000000E-01  4.44750000E+05
  6.61270000E+04  1.48150000E+04  4.14490000E+03  1.36120000E+03  5.08440000E+02
  2.09590000E+02  8.19590000E+01  3.68050000E+01  1.34950000E+01  6.88590000E+00
  2.55200000E+00  1.20880000E+00  2.73400000E-01  1.00900000E-01  2.95360000E+03
  7.12610000E+02  2.36710000E+02  9.26310000E+01  3.97320000E+01  1.72730000E+01
  7.95700000E+00  3.15290000E+00  1.33280000E+00  4.94700000E-01  2.16000000E-01
  8.29300000E-02  2.61950000E+02  7.67340000E+01  2.75510000E+01  1.06060000E+01
  3.42170000E+00  1.13700000E+00  3.02000000E-01  4.56324000E+03  6.82024000E+02
  1.54973000E+02  4.44553000E+01  1.30290000E+01  1.82773000E+00  2.09642000E+01
  4.80331000E+00  1.45933000E+00  4.83456000E-01  1.45585000E-01  6.26000000E-01
  3.38650000E+01  5.09479000E+00  1.15879000E+00  3.25840000E-01  1.02741000E-01
  7.50000000E-01  3.38650000E+01  5.09479000E+00  1.15879000E+00  3.25840000E-01
  1.02741000E-01  7.50000000E-01
Contraction coefficients                   R   N=          92
  1.86636799E-03  1.45534763E-02  7.56822706E-02  2.84526752E-01  7.10436122E-01
  7.24149751E-01  3.04776831E-01  1.00000000E+00  1.00000000E+00  1.00000000E+00
  1.00000000E+00  1.00000000E+00  1.00000000E+00  1.00000000E+00  1.00000000E+00
  1.56939495E-02  1.10371781E-01  3.79084072E-01  6.15020301E-01  1.00000000E+00
  1.00000000E+00  1.00000000E+00  1.00000000E+00  1.00000000E+00  1.00000000E+00
  1.00000000E+00  1.00000000E+00  5.05248223E-02  3.05784452E-01  7.59270445E-01
  1.00000000E+00  1.00000000E+00  1.00000000E+00  1.00000000E+00  1.86636799E-03
  1.45534763E-02  7.56822706E-02  2.84526752E-01  7.10436122E-01  7.24149751E-01
  3.04776831E-01  1.00000000E+00  1.00000000E+00  1.00000000E+00  1.00000000E+00
  1.00000000E+00  1.00000000E+00  1.00000000E+00  1.00000000E+00  1.56939495E-02
  1.10371781E-01  3.79084072E-01  6.15020301E-01  1.00000000E+00  1.00000000E+00
  1.00000000E+00  1.00000000E+00  1.00000000E+00  1.00000000E+00  1.00000000E+00
  1.00000000E+00  5.05248223E-02  3.05784452E-01  7.59270445E-01  1.00000000E+00
  1.00000000E+00  1.00000000E+00  1.00000000E+00  1.96665025E-03  1.52306019E-02
  7.61269097E-02  2.60801033E-01  6.16462078E-01  2.21006028E-01  1.14660081E-01
  9.19999648E-01 -3.03068213E-03  1.00000000E+00  1.00000000E+00  1.00000000E+00
  2.54938145E-02  1.90373109E-01  8.52161486E-01  1.00000000E+00  1.00000000E+00
  1.00000000E+00  2.54938145E-02  1.90373109E-01  8.52161486E-01  1.00000000E+00
  1.00000000E+00  1.00000000E+00
P(S=P) Contraction coefficients            R   N=          92
  0.00000000E+00  0.00000000E+00  0.00000000E+00  0.00000000E+00  0.00000000E+00
  0.00000000E+00  0.00000000E+00  0.00000000E+00  0.00000000E+00  0.00000000E+00
  0.00000000E+00  0.00000000E+00  0.00000000E+00  0.00000000E+00  0.00000000E+00
  0.00000000E+00  0.00000000E+00  0.00000000E+00  0.00000000E+00  0.00000000E+00
  0.00000000E+00  0.00000000E+00  0.00000000E+00  0.00000000E+00  0.00000000E+00
  0.00000000E+00  0.00000000E+00  0.00000000E+00  0.00000000E+00  0.00000000E+00
  0.00000000E+00  0.00000000E+00  0.00000000E+00  0.00000000E+00  0.00000000E+00
  0.00000000E+00  0.00000000E+00  0.00000000E+00  0.00000000E+00  0.00000000E+00
  0.00000000E+00  0.00000000E+00  0.00000000E+00  0.00000000E+00  0.00000000E+00
  0.00000000E+00  0.00000000E+00  0.00000000E+00  0.00000000E+00  0.00000000E+00
  0.00000000E+00  0.00000000E+00  0.00000000E+00  0.00000000E+00  0.00000000E+00
  0.00000000E+00  0.00000000E+00  0.00000000E+00  0.00000000E+00  0.00000000E+00
  0.00000000E+00  0.00000000E+00  0.00000000E+00  0.00000000E+00  0.00000000E+00
  0.00000000E+00  0.00000000E+00  0.00000000E+00  0.00000000E+00  0.00000000E+00
  0.00000000E+00  0.00000000E+00  0.00000000E+00  0.00000000E+00  4.02486927E-02
  2.37593957E-01  8.15853851E-01  1.00000000E+00  1.00000000E+00  0.00000000E+00
  0.00000000E+00  0.00000000E+00  0.00000000E+00  0.00000000E+00  0.00000000E+00
  0.00000000E+00  0.00000000E+00  0.00000000E+00  0.00000000E+00  0.00000000E+00
  0.00000000E+00  0.00000000E+00
Coordinates of each shell                  R   N=         183
 -3.43807003E+00 -1.71505947E-01  0.00000000E+00 -3.43807003E+00 -1.71505947E-01
  0.00000000E+00 -3.43807003E+00 -1.71505947E-01  0.00000000E+00 -3.43807003E+00
 -1.71505947E-01  0.00000000E+00 -3.43807003E+00 -1.71505947E-01  0.00000000E+00
 -3.43807003E+00 -1.71505947E-01  0.00000000E+00 -3.43807003E+00 -1.71505947E-01
  0.00000000E+00 -3.43807003E+00 -1.71505947E-01  0.00000000E+00 -3.43807003E+00
 -1.71505947E-01  0.00000000E+00 -3.43807003E+00 -1.71505947E-01  0.00000000E+00
 -3.43807003E+00 -1.71505947E-01  0.00000000E+00 -3.43807003E+00 -1.71505947E-01
  0.00000000E+00 -3.43807003E+00 -1.71505947E-01  0.00000000E+00 -3.43807003E+00
 -1.71505947E-01  0.00000000E+00 -3.43807003E+00 -1.71505947E-01  0.00000000E+00
 -3.43807003E+00 -1.71505947E-01  0.00000000E+00 -3.43807003E+00 -1.71505947E-01
  0.00000000E+00 -3.43807003E+00 -1.71505947E-01  0.00000000E+00 -3.43807003E+00
 -1.71505947E-01  0.00000000E+00 -3.43807003E+00 -1.71505947E-01  0.00000000E+00
 -3.43807003E+00 -1.71505947E-01  0.00000000E+00 -3.43807003E+00 -1.71505947E-01
  0.00000000E+00 -3.43807003E+00 -1.71505947E-01  0.00000000E+00 -3.43807003E+00
 -1.71505947E-01  0.00000000E+00  3.43806999E+00 -1.71510104E-01  0.00000000E+00
  3.43806999E+00 -1.71510104E-01  0.00000000E+00  3.43806999E+00 -1.71510104E-01
  0.00000000E+00  3.43806999E+00 -1.71510104E-01  0.00000000E+00  3.43806999E+00
 -1.71510104E-01  0.00000000E+00  3.43806999E+00 -1.71510104E-01  0.00000000E+00
  3.43806999E+00 -1.71510104E-01  0.00000000E+00  3.43806999E+00 -1.71510104E-01
  0.00000000E+00  3.43806999E+00 -1.71510104E-01  0.00000000E+00  3.43806999E+00
 -1.71510104E-01  0.00000000E+00  3.43806999E+00 -1.71510104E-01  0.00000000E+00
  3.43806999E+00 -1.71510104E-01  0.00000000E+00  3.43806999E+00 -1.71510104E-01
  0.00000000E+00  3.43806999E+00 -1.71510104E-01  0.00000000E+00  3.43806999E+00
 -1.71510104E-01  0.00000000E+00  3.43806999E+00 -1.71510104E-01  0.00000000E+00
  3.43806999E+00 -1.71510104E-01  0.00000000E+00  3.43806999E+00 -1.71510104E-01
  0.00000000E+00  3.43806999E+00 -1.71510104E-01  0.00000000E+00  3.43806999E+00
 -1.71510104E-01  0.00000000E+00  3.43806999E+00 -1.71510104E-01  0.00000000E+00
  3.43806999E+00 -1.71510104E-01  0.00000000E+00  3.43806999E+00 -1.71510104E-01
  0.00000000E+00  3.43806999E+00 -1.71510104E-01  0.00000000E+00 -2.71050543E-20
  1.98268369E+00  0.00000000E+00 -2.71050543E-20  1.98268369E+00  0.00000000E+00
 -2.71050543E-20  1.98268369E+00  0.00000000E+00 -2.71050543E-20  1.98268369E+00
  0.00000000E+00 -2.71050543E-20  1.98268369E+00  0.00000000E+00  1.23269164E-06
  3.14187427E+00  1.69361116E+00  1.23269164E-06  3.14187427E+00  1.69361116E+00
  1.23269164E-06  3.14187427E+00  1.69361116E+00  1.23269164E-06  3.14187427E+00
  1.69361116E+00  1.23269164E-06  3.14187427E+00 -1.69361116E+00  1.23269164E-06
  3.14187427E+00 -1.69361116E+00  1.23269164E-06  3.14187427E+00 -1.69361116E+00
  1.23269164E-06  3.14187427E+00 -1.69361116E+00
Constraint Structure                       R   N=          15
 -3.43807003E+00 -1.71505947E-01  0.00000000E+00  3.43806999E+00 -1.71510104E-01
  0.00000000E+00 -2.71050543E-20  1.98268369E+00  0.00000000E+00  1.23269164E-06
  3.14187427E+00  1.69361116E+00  1.23269164E-06  3.14187427E+00 -1.69361116E+00
Num ILSW                                   I              100
ILSW                                       I   N=         100
           0           0           0           0           2           0
           0           0           0           0           0          -1
           0           0           0           0           0           0
           0           0           0           0           1           0
           1           0           0           0           0           0
           0           0      100000           0          -1           0
           0           0           0           0           0           0
           0           0           0           1           1           0
           0           0           1           0           0           0
           0           0           4          40           0           0
           0           0           0           0           0           0
           0           0           0           0           0           0
           0           0           0           0           0           0
           0           0           0           0           0           0
           0           0           0           0           0           0
           0           0           0           0           0           0
           0           0           0           0
Num RLSW                                   I               40
RLSW                                       R   N=          40
  1.00000000E+00  1.00000000E+00  1.00000000E+00  1.00000000E+00  1.00000000E+00
  0.00000000E+00  0.00000000E+00  1.00000000E+00  0.00000000E+00  0.00000000E+00
  0.00000000E+00  0.00000000E+00  1.00000000E+00  0.00000000E+00  0.00000000E+00
  0.00000000E+00  0.00000000E+00  1.00000000E+00  0.00000000E+00  0.00000000E+00
  0.00000000E+00  0.00000000E+00  1.00000000E+00  0.00000000E+00  0.00000000E+00
  0.00000000E+00  0.00000000E+00  1.00000000E+00  0.00000000E+00  0.00000000E+00
  0.00000000E+00  0.00000000E+00  0.00000000E+00  0.00000000E+00  0.00000000E+00
  0.00000000E+00  0.00000000E+00  0.00000000E+00  1.00000000E+00  1.00000000E+00
MxBond                                     I                4
NBond                                      I   N=           5
           1           1           4           1           1
IBond                                      I   N=          20
           3           0           0           0           3           0
           0           0           1           2           4           5
           3           0           0           0           3           0
           0           0
RBond                                      R   N=          20
  1.00000000E+00  0.00000000E+00  0.00000000E+00  0.00000000E+00  1.00000000E+00
  0.00000000E+00  0.00000000E+00  0.00000000E+00  1.00000000E+00  1.00000000E+00
  1.00000000E+00  1.00000000E+00  1.00000000E+00  0.00000000E+00  0.00000000E+00
  0.00000000E+00  1.00000000E+00  0.00000000E+00  0.00000000E+00  0.00000000E+00
Virial Ratio                               R      1.999526247107873E+00
SCF Energy                                 R     -1.387265734131696E+04
MP2 Energy                                 R     -1.387322399286072E+04
Total Energy                               R     -1.387322399286072E+04
Post-SCF wavefunction norm                 R      1.540354272511499E+00
RMS Force                                  R      1.091288119928006E-07
RMS Density                                R      1.911213492704221E-09
External E-field                           R   N=          35
  0.00000000E+00  0.00000000E+00  0.00000000E+00  0.00000000E+00  0.00000000E+00
  0.00000000E+00  0.00000000E+00  0.00000000E+00  0.00000000E+00  0.00000000E+00
  0.00000000E+00  0.00000000E+00  0.00000000E+00  0.00000000E+00  0.00000000E+00
  0.00000000E+00  0.00000000E+00  0.00000000E+00  0.00000000E+00  0.00000000E+00
  0.00000000E+00  0.00000000E+00  0.00000000E+00  0.00000000E+00  0.00000000E+00
  0.00000000E+00  0.00000000E+00  0.00000000E+00  0.00000000E+00  0.00000000E+00
  0.00000000E+00  0.00000000E+00  0.00000000E+00  0.00000000E+00  0.00000000E+00
IOpCl                                      I                0
IROHF                                      I                0
Alpha Orbital Energies                     R   N=         154
 -1.17716554E+03 -1.17716554E+03 -1.80872883E+02 -1.80872882E+02 -1.69679485E+02
 -1.69679485E+02 -1.69678521E+02 -1.69678521E+02 -1.69678513E+02 -1.69678513E+02
 -3.79267998E+01 -3.79267993E+01 -3.31150735E+01 -3.31150727E+01 -3.31105950E+01
 -3.31105942E+01 -3.31105579E+01 -3.31105579E+01 -2.42991739E+01 -2.42991689E+01
 -2.42976426E+01 -2.42976392E+01 -2.42976187E+01 -2.42976007E+01 -2.42934277E+01
 -2.42934273E+01 -2.42934272E+01 -2.42934266E+01 -1.13427935E+01 -7.24376849E+00
 -7.24376452E+00 -5.47738052E+00 -5.47737805E+00 -5.46595956E+00 -5.46595601E+00
 -5.46584148E+00 -5.46583841E+00 -2.40100456E+00 -2.40091074E+00 -2.39550854E+00
 -2.39550125E+00 -2.39536360E+00 -2.39535626E+00 -2.38242676E+00 -2.38242653E+00
 -2.38242285E+00 -2.38242252E+00 -1.02597395E+00 -8.46610425E-01 -7.90856914E-01
 -6.47950782E-01 -5.30239736E-01 -4.86133239E-01 -3.86515111E-01 -3.81652070E-01
 -3.76421677E-01 -3.62440668E-01  4.67896473E-02  1.16660954E-01  1.67786235E-01
  1.90176752E-01  2.98064977E-01  2.98959304E-01  3.13819599E-01  3.21275532E-01
  3.29807117E-01  3.32088107E-01  3.72884743E-01  3.80803186E-01  4.17573569E-01
  4.82128653E-01  5.46749045E-01  5.55046688E-01  5.59421675E-01  5.81223949E-01
  5.94856839E-01  6.46179024E-01  6.53579139E-01  7.35771481E-01  7.69080614E-01
  7.74675773E-01  8.33456951E-01  8.66375092E-01  8.85483044E-01  1.08153953E+00
  1.30234399E+00  1.38079262E+00  1.53030280E+00  1.54519099E+00  1.54608948E+00
  1.58891222E+00  1.60350876E+00  1.63031426E+00  1.74976455E+00  1.78449223E+00
  1.83048289E+00  1.86286892E+00  2.11097051E+00  2.17055811E+00  2.37150844E+00
  2.62048315E+00  2.72095800E+00  2.81081754E+00  2.94949471E+00  3.11532525E+00
  3.30426572E+00  4.01562717E+00  4.47400433E+00  4.48826616E+00  4.48869731E+00
  4.48939204E+00  4.51050732E+00  4.53892827E+00  4.54366322E+00  4.63115839E+00
  4.64138199E+00  4.72172964E+00  4.74073555E+00  4.80503178E+00  6.51583106E+00
  6.52768812E+00  6.52794811E+00  6.53839506E+00  6.58993785E+00  6.59582540E+00
  2.48316967E+01  2.87747190E+01  2.88059995E+01  2.95185553E+01  2.95238468E+01
  2.95267430E+01  2.95337571E+01  2.95688843E+01  2.95739906E+01  2.98761555E+01
  2.98799432E+01  2.98802870E+01  2.98811393E+01  2.98870379E+01  2.99058745E+01
  2.99143992E+01  2.99431775E+01  3.00046814E+01  3.00248844E+01  1.30583102E+02
  1.30587849E+02  1.30588344E+02  1.30594320E+02  1.30626942E+02  1.30634174E+02
  1.54187607E+02  1.54212302E+02  1.91210086E+03  1.91212726E+03
Alpha MO coefficients                      R   N=       23716
  4.76844799E-01  6.02907767E-01  9.14081176E-03 -1.29808358E-04 -1.23620712E-04
  4.45248583E-05 -1.76364650E-05  1.12003019E-05 -2.88180909E-06  1.10997315E-06
  1.76767475E-06  1.13069018E-06  0.00000000E+00 -1.72065175E-06 -1.10036543E-06
  0.00000000E+00  1.65101417E-06  1.05210843E-06  0.00000000E+00 -1.12185252E-06
 -7.09235200E-07  0.00000000E+00  6.34308052E-07  3.91174622E-07  0.00000000E+00
 -4.22359688E-07 -2.46768698E-07  0.00000000E+00  4.23139845E-07  2.27400360E-07
  0.00000000E+00 -5.10083629E-07 -2.56669912E-07  0.00000000E+00  3.20529946E-07
  1.38490922E-07  0.00000000E+00 -1.01128228E-07  0.00000000E+00  0.00000000E+00
  8.46763093E-08  1.50761263E-07  2.19499663E-08  0.00000000E+00  0.00000000E+00
 -1.84330641E-08 -3.08288222E-08  2.96297755E-08  0.00000000E+00  0.00000000E+00
 -2.45402310E-08 -4.92943823E-08 -2.29096471E-08  0.00000000E+00  0.00000000E+00
  1.84365739E-08  4.38333915E-08  2.16892718E-08  0.00000000E+00  0.00000000E+00
 -1.71326250E-08 -4.95788399E-08 -2.66343364E-03 -3.36756336E-03 -5.10533010E-05
  7.17085559E-07  7.10704389E-07 -2.79142670E-07  1.42193123E-07 -1.12639242E-07
  1.40313285E-07 -2.65857987E-07  9.31722144E-09 -5.59127037E-09  0.00000000E+00
 -6.25933443E-09  2.39443689E-09  0.00000000E+00 -6.06005426E-11  4.30873384E-09
  0.00000000E+00  8.96071331E-09 -1.32449495E-08  0.00000000E+00 -2.07928129E-08
  2.53569747E-08  0.00000000E+00  3.65748276E-08 -4.09607232E-08  0.00000000E+00
 -6.75304953E-08  7.55091316E-08  0.00000000E+00  8.00440248E-08 -1.22712304E-07
  0.00000000E+00  1.52226406E-07  5.80373809E-08  0.00000000E+00  2.00883485E-09
  0.00000000E+00  0.00000000E+00 -2.81145253E-09  1.01706073E-09 -4.66644728E-09
  0.00000000E+00  0.00000000E+00  7.36056753E-09 -8.12324977E-10  1.05278877E-08
  0.00000000E+00  0.00000000E+00 -1.68520771E-08  1.34194085E-09 -2.07786008E-08
  0.00000000E+00  0.00000000E+00  3.28812738E-08 -3.45260007E-09  4.94197895E-08
  0.00000000E+00  0.00000000E+00 -7.14435011E-08  2.06173615E-08 -3.02511491E-09
  9.43877894E-09  5.20030303E-08  3.86636474E-08  0.00000000E+00 -1.34947095E-07
 -1.06751035E-07 -6.74765139E-08  0.00000000E+00  4.45720416E-07  5.64985580E-08
 -1.23076629E-08  0.00000000E+00 -5.13404172E-08  0.00000000E+00  0.00000000E+00
  5.08294228E-08  6.18185818E-08  3.00800780E-08 -7.64424756E-08 -1.44290446E-07
  3.01891941E-08  2.17128129E-08 -6.43175517E-09  3.00800780E-08 -7.64424756E-08
 -1.44290446E-07  3.01891941E-08  2.17128129E-08  6.43175517E-09  2.66343378E-03
  3.36756251E-03  5.10593623E-05 -7.33013412E-07 -6.70270180E-07  2.18245814E-07
 -5.48223557E-08  1.24769891E-08  1.08128168E-07 -2.53474754E-07  1.04296231E-08
  7.03980232E-09  0.00000000E+00 -1.29623867E-08 -9.89806348E-09  0.00000000E+00
  1.85047728E-08  1.60625534E-08  0.00000000E+00 -2.14939648E-08 -2.11689417E-08
  0.00000000E+00  2.78802508E-08  2.97285293E-08  0.00000000E+00 -4.12955037E-08
 -4.37200275E-08  0.00000000E+00  7.22618472E-08  7.80542233E-08  0.00000000E+00
 -8.57474940E-08 -1.25587370E-07  0.00000000E+00 -1.48655119E-07  5.95882817E-08
  0.00000000E+00  8.79215620E-10  0.00000000E+00  0.00000000E+00 -1.86567315E-09
  6.67097845E-10 -4.42153031E-09  0.00000000E+00  0.00000000E+00  7.15509791E-09
  4.67961887E-10  1.08595622E-08  0.00000000E+00  0.00000000E+00 -1.71272660E-08
 -1.89268509E-09 -2.10358522E-08  0.00000000E+00  0.00000000E+00  3.30892659E-08
  3.94244276E-09  4.96652104E-08  0.00000000E+00  0.00000000E+00 -7.16393215E-08
 -2.11724002E-08  4.76844799E-01  6.02907767E-01  9.14081179E-03 -1.29808447E-04
 -1.23620486E-04  4.45245182E-05 -1.76359767E-05  1.11997420E-05 -2.88042118E-06
  1.10707299E-06 -1.76767896E-06  1.13069920E-06  0.00000000E+00  1.72068702E-06
 -1.10040807E-06  0.00000000E+00 -1.65111584E-06  1.05222295E-06  0.00000000E+00
  1.12202128E-06 -7.09427948E-07  0.00000000E+00 -6.34579201E-07  3.91482639E-07
  0.00000000E+00  4.22794202E-07 -2.47241953E-07  0.00000000E+00 -4.23920013E-07
  2.28258243E-07  0.00000000E+00  5.11008473E-07 -2.58056730E-07  0.00000000E+00
 -3.18849225E-07  1.39148239E-07  0.00000000E+00 -1.01112103E-07  0.00000000E+00
  0.00000000E+00  8.46499096E-08 -1.50759513E-07  2.18992226E-08  0.00000000E+00
  0.00000000E+00 -1.83519436E-08  3.08217401E-08  2.97491954E-08  0.00000000E+00
  0.00000000E+00 -2.47298990E-08  4.93124436E-08 -2.31431112E-08  0.00000000E+00
  0.00000000E+00  1.88049006E-08 -4.38745951E-08  2.22424274E-08  0.00000000E+00
  0.00000000E+00 -1.79315021E-08  4.98118451E-08 -3.05911754E-09  9.54484825E-09
 -5.14251464E-08  3.90979537E-08  0.00000000E+00 -1.36462914E-07  1.05564502E-07
 -6.82343324E-08  0.00000000E+00  4.50726843E-07 -5.58712730E-08 -1.24455897E-08
  0.00000000E+00 -5.19169992E-08  0.00000000E+00  0.00000000E+00  5.14001779E-08
 -6.11316466E-08  3.04179530E-08 -7.73011824E-08 -1.45911343E-07 -2.98537895E-08
  2.19567729E-08 -6.50392654E-09  3.04179530E-08 -7.73011824E-08 -1.45911343E-07
 -2.98537895E-08  2.19567729E-08  6.50392654E-09 -1.30101094E-01 -2.76693482E-01
  4.04747658E-01  4.18524690E-01  7.29017689E-02 -2.19113855E-02  8.47243333E-03
 -3.93336911E-03  1.05057186E-03 -5.01834736E-04  1.15502192E-04  7.37819892E-05
  0.00000000E+00  5.42582797E-05  3.36889639E-05  0.00000000E+00  1.06059364E-07
  2.83234315E-06  0.00000000E+00  9.64321229E-06  1.11648441E-06  0.00000000E+00
 -1.48088507E-05 -8.82934745E-07  0.00000000E+00  2.63147619E-05  3.09354755E-06
  0.00000000E+00 -6.54714700E-05 -1.58673006E-05  0.00000000E+00  1.21312921E-04
  2.89648396E-05  0.00000000E+00 -1.56924072E-04 -2.57993168E-05  0.00000000E+00
 -4.46897344E-06  0.00000000E+00  0.00000000E+00  3.48158624E-06  7.38393137E-06
  1.01943226E-07  0.00000000E+00  0.00000000E+00  9.06051872E-07 -2.71078088E-06
  1.11732275E-06  0.00000000E+00  0.00000000E+00 -3.42645641E-06  4.70421229E-06
 -3.85028909E-06  0.00000000E+00  0.00000000E+00  8.16101751E-06 -6.74269076E-06
  7.58641865E-06  0.00000000E+00  0.00000000E+00 -1.58090859E-05  1.24412752E-05
  1.17905485E-01  2.50756393E-01 -3.66806966E-01 -3.79291980E-01 -6.60692229E-02
  1.98594030E-02 -7.68121635E-03  3.56809067E-03 -9.60263394E-04  4.71380476E-04
  1.04699632E-04 -6.68937324E-05  0.00000000E+00  4.90137229E-05 -3.03546351E-05
  0.00000000E+00  5.77680855E-07 -3.10209270E-06  0.00000000E+00  7.86499106E-06
 -3.86646157E-08  0.00000000E+00 -1.19317446E-05 -8.53417375E-07  0.00000000E+00
  2.14691804E-05 -1.72525691E-07  0.00000000E+00 -5.50855295E-05  9.53110186E-06
  0.00000000E+00  1.05062756E-04 -1.83946901E-05  0.00000000E+00 -1.52054118E-04
  1.96091565E-05  0.00000000E+00  3.97116454E-06  0.00000000E+00  0.00000000E+00
 -3.03295685E-06  6.68318414E-06  1.76421976E-07  0.00000000E+00  0.00000000E+00
 -1.23701049E-06 -2.42663477E-06 -1.68366414E-06  0.00000000E+00  0.00000000E+00
  4.14096749E-06  4.18383347E-06  4.83716230E-06  0.00000000E+00  0.00000000E+00
 -9.45549079E-06 -5.91011451E-06 -1.00620320E-05  0.00000000E+00  0.00000000E+00
  1.88143840E-05  1.00286697E-05  1.20517838E-07 -2.87062359E-07 -3.55202167E-05
 -1.33525762E-06  0.00000000E+00  4.44945976E-06  7.76062051E-05  2.69233899E-06
  0.00000000E+00 -1.41144367E-05 -4.53471139E-05  1.98003254E-07  0.00000000E+00
  1.94102950E-06  0.00000000E+00  0.00000000E+00 -1.83285153E-06 -4.55747527E-05
 -1.02367046E-06  2.21861929E-06  4.91813974E-06 -2.04028814E-05 -6.54456303E-07
  3.30469843E-07 -1.02367046E-06  2.21861929E-06  4.91813974E-06 -2.04028814E-05
 -6.54456303E-07 -3.30469843E-07 -1.17905493E-01 -2.50756232E-01  3.66805372E-01
  3.79296722E-01  6.60554787E-02 -1.98372477E-02  7.64781022E-03 -3.52965899E-03
  8.68802405E-04 -2.85727499E-04  1.04423916E-04  6.65808642E-05  0.00000000E+00
  5.07863765E-05  3.23287606E-05  0.00000000E+00 -4.81231138E-06 -2.88877904E-06
  0.00000000E+00  1.76503426E-05  1.09309436E-05  0.00000000E+00 -2.85966948E-05
 -1.76546003E-05  0.00000000E+00  4.80943752E-05  2.96206944E-05  0.00000000E+00
 -1.02637482E-04 -6.38013964E-05  0.00000000E+00  1.59660350E-04  1.06311238E-04
  0.00000000E+00 -4.19198119E-05 -6.18258291E-05  0.00000000E+00 -4.85413170E-06
  0.00000000E+00  0.00000000E+00  4.40128737E-06  6.77929722E-06  2.83218032E-06
  0.00000000E+00  0.00000000E+00 -3.41772865E-06 -2.76275737E-06 -5.82726309E-06
  0.00000000E+00  0.00000000E+00  7.45087754E-06  5.07234854E-06  1.02477605E-05
  0.00000000E+00  0.00000000E+00 -1.35947002E-05 -8.15379066E-06 -2.56047850E-05
  0.00000000E+00  0.00000000E+00  3.14075123E-05  2.39767707E-05 -1.30101102E-01
 -2.76693335E-01  4.04746214E-01  4.18528988E-01  7.28893129E-02 -2.18913068E-02
  8.44215827E-03 -3.89853960E-03  9.67684220E-04 -3.33585153E-04 -1.15252148E-04
  7.34986146E-05  0.00000000E+00 -5.58646876E-05  3.54781184E-05  0.00000000E+00
  4.77869470E-06 -2.59696639E-06  0.00000000E+00 -1.85113005E-05  1.09877722E-05
  0.00000000E+00  2.99116470E-05 -1.76560887E-05  0.00000000E+00 -5.04441000E-05
  2.97813491E-05  0.00000000E+00  1.08565638E-04 -6.50503703E-05  0.00000000E+00
 -1.70791847E-04  1.08640056E-04  0.00000000E+00  5.71136234E-05 -6.40588233E-05
  0.00000000E+00 -5.26917041E-06  0.00000000E+00  0.00000000E+00  4.72162343E-06
 -7.47105022E-06  2.82851126E-06  0.00000000E+00  0.00000000E+00 -3.31233683E-06