153_EthylAcetate Gaussian SP Calculation on g2-node38.bme.utexas.edu    
Freq      RMP2-FC                                                     6-31G(d)            
Number of atoms                            I               14
Info1-9                                    I   N=           9
          25          24        1002           0           0         100
           6           2           1
Charge                                     I                0
Multiplicity                               I                1
Number of electrons                        I               48
Number of alpha electrons                  I               24
Number of beta electrons                   I               24
Number of basis functions                  I              106
Number of independent functions            I              106
Number of point charges in /Mol/           I                0
Number of translation vectors              I                0
Atomic numbers                             I   N=          14
           8           8           6           6           6           6
           1           1           1           1           1           1
           1           1
Nuclear charges                            R   N=          14
  8.00000000E+00  8.00000000E+00  6.00000000E+00  6.00000000E+00  6.00000000E+00
  6.00000000E+00  1.00000000E+00  1.00000000E+00  1.00000000E+00  1.00000000E+00
  1.00000000E+00  1.00000000E+00  1.00000000E+00  1.00000000E+00
Current cartesian coordinates              R   N=          42
 -3.43271546E-01 -8.65408249E-01 -1.07055815E-04  2.24925510E+00  2.55804558E+00
  1.76368428E-06 -2.46831125E+00  8.59902169E-01  4.81834587E-05 -4.82818410E+00
 -7.49767459E-01  4.31670034E-05  1.95675139E+00  2.71758382E-01 -8.42998790E-05
  4.03071934E+00 -1.67453423E+00  1.97892308E-05 -2.34632059E+00  2.07173755E+00
  1.66919321E+00 -2.34642789E+00  2.07190056E+00 -1.66898591E+00 -6.50472286E+00
  4.58743640E-01  1.54201033E-04 -4.88539167E+00 -1.95273098E+00 -1.67573941E+00
 -4.88528796E+00 -1.95289566E+00  1.67571111E+00  3.85898644E+00 -2.88131035E+00
 -1.66618804E+00  3.86049029E+00 -2.87934786E+00  1.66781836E+00  5.85495358E+00
 -7.21348727E-01 -1.28221967E-03
Force Field                                I                0
Int Atom Types                             I   N=          14
           0           0           0           0           0           0
           0           0           0           0           0           0
           0           0
MM charges                                 R   N=          14
  0.00000000E+00  0.00000000E+00  0.00000000E+00  0.00000000E+00  0.00000000E+00
  0.00000000E+00  0.00000000E+00  0.00000000E+00  0.00000000E+00  0.00000000E+00
  0.00000000E+00  0.00000000E+00  0.00000000E+00  0.00000000E+00
Integer atomic weights                     I   N=          14
          16          16          12          12          12          12
           1           1           1           1           1           1
           1           1
Real atomic weights                        R   N=          14
  1.59949146E+01  1.59949146E+01  1.20000000E+01  1.20000000E+01  1.20000000E+01
  1.20000000E+01  1.00782504E+00  1.00782504E+00  1.00782504E+00  1.00782504E+00
  1.00782504E+00  1.00782504E+00  1.00782504E+00  1.00782504E+00
Atom fragment info                         I   N=          14
           0           0           0           0           0           0
           0           0           0           0           0           0
           0           0
Atom residue num                           I   N=          14
           0           0           0           0           0           0
           0           0           0           0           0           0
           0           0
Nuclear spins                              I   N=          14
           0           0           0           0           0           0
           1           1           1           1           1           1
           1           1
Nuclear ZEff                               R   N=          14
 -5.60000000E+00 -5.60000000E+00 -3.60000000E+00 -3.60000000E+00 -3.60000000E+00
 -3.60000000E+00 -1.00000000E+00 -1.00000000E+00 -1.00000000E+00 -1.00000000E+00
 -1.00000000E+00 -1.00000000E+00 -1.00000000E+00 -1.00000000E+00
Nuclear QMom                               R   N=          14
  0.00000000E+00  0.00000000E+00  0.00000000E+00  0.00000000E+00  0.00000000E+00
  0.00000000E+00  0.00000000E+00  0.00000000E+00  0.00000000E+00  0.00000000E+00
  0.00000000E+00  0.00000000E+00  0.00000000E+00  0.00000000E+00
Nuclear GFac                               R   N=          14
  0.00000000E+00  0.00000000E+00  0.00000000E+00  0.00000000E+00  0.00000000E+00
  0.00000000E+00  2.79284600E+00  2.79284600E+00  2.79284600E+00  2.79284600E+00
  2.79284600E+00  2.79284600E+00  2.79284600E+00  2.79284600E+00
MicOpt                                     I   N=          14
          -1          -1          -1          -1          -1          -1
          -1          -1          -1          -1          -1          -1
          -1          -1
Number of contracted shells                I               40
Number of primitive shells                 I               98
Pure/Cartesian d shells                    I                1
Pure/Cartesian f shells                    I                0
Highest angular momentum                   I                2
Largest degree of contraction              I                6
Shell types                                I   N=          40
           0          -1          -1           2           0          -1
          -1           2           0          -1          -1           2
           0          -1          -1           2           0          -1
          -1           2           0          -1          -1           2
           0           0           0           0           0           0
           0           0           0           0           0           0
           0           0           0           0
Number of primitives per shell             I   N=          40
           6           3           1           1           6           3
           1           1           6           3           1           1
           6           3           1           1           6           3
           1           1           6           3           1           1
           3           1           3           1           3           1
           3           1           3           1           3           1
           3           1           3           1
Shell to atom map                          I   N=          40
           1           1           1           1           2           2
           2           2           3           3           3           3
           4           4           4           4           5           5
           5           5           6           6           6           6
           7           7           8           8           9           9
          10          10          11          11          12          12
          13          13          14          14
Primitive exponents                        R   N=          98
  5.48467166E+03  8.25234946E+02  1.88046958E+02  5.29645000E+01  1.68975704E+01
  5.79963534E+00  1.55396162E+01  3.59993359E+00  1.01376175E+00  2.70005823E-01
  8.00000000E-01  5.48467166E+03  8.25234946E+02  1.88046958E+02  5.29645000E+01
  1.68975704E+01  5.79963534E+00  1.55396162E+01  3.59993359E+00  1.01376175E+00
  2.70005823E-01  8.00000000E-01  3.04752488E+03  4.57369518E+02  1.03948685E+02
  2.92101553E+01  9.28666296E+00  3.16392696E+00  7.86827235E+00  1.88128854E+00
  5.44249258E-01  1.68714478E-01  8.00000000E-01  3.04752488E+03  4.57369518E+02
  1.03948685E+02  2.92101553E+01  9.28666296E+00  3.16392696E+00  7.86827235E+00
  1.88128854E+00  5.44249258E-01  1.68714478E-01  8.00000000E-01  3.04752488E+03
  4.57369518E+02  1.03948685E+02  2.92101553E+01  9.28666296E+00  3.16392696E+00
  7.86827235E+00  1.88128854E+00  5.44249258E-01  1.68714478E-01  8.00000000E-01
  3.04752488E+03  4.57369518E+02  1.03948685E+02  2.92101553E+01  9.28666296E+00
  3.16392696E+00  7.86827235E+00  1.88128854E+00  5.44249258E-01  1.68714478E-01
  8.00000000E-01  1.87311370E+01  2.82539436E+00  6.40121692E-01  1.61277759E-01
  1.87311370E+01  2.82539436E+00  6.40121692E-01  1.61277759E-01  1.87311370E+01
  2.82539436E+00  6.40121692E-01  1.61277759E-01  1.87311370E+01  2.82539436E+00
  6.40121692E-01  1.61277759E-01  1.87311370E+01  2.82539436E+00  6.40121692E-01
  1.61277759E-01  1.87311370E+01  2.82539436E+00  6.40121692E-01  1.61277759E-01
  1.87311370E+01  2.82539436E+00  6.40121692E-01  1.61277759E-01  1.87311370E+01
  2.82539436E+00  6.40121692E-01  1.61277759E-01
Contraction coefficients                   R   N=          98
  1.83107443E-03  1.39501722E-02  6.84450781E-02  2.32714336E-01  4.70192898E-01
  3.58520853E-01 -1.10777550E-01 -1.48026263E-01  1.13076702E+00  1.00000000E+00
  1.00000000E+00  1.83107443E-03  1.39501722E-02  6.84450781E-02  2.32714336E-01
  4.70192898E-01  3.58520853E-01 -1.10777550E-01 -1.48026263E-01  1.13076702E+00
  1.00000000E+00  1.00000000E+00  1.83473713E-03  1.40373228E-02  6.88426223E-02
  2.32184443E-01  4.67941348E-01  3.62311985E-01 -1.19332420E-01 -1.60854152E-01
  1.14345644E+00  1.00000000E+00  1.00000000E+00  1.83473713E-03  1.40373228E-02
  6.88426223E-02  2.32184443E-01  4.67941348E-01  3.62311985E-01 -1.19332420E-01
 -1.60854152E-01  1.14345644E+00  1.00000000E+00  1.00000000E+00  1.83473713E-03
  1.40373228E-02  6.88426223E-02  2.32184443E-01  4.67941348E-01  3.62311985E-01
 -1.19332420E-01 -1.60854152E-01  1.14345644E+00  1.00000000E+00  1.00000000E+00
  1.83473713E-03  1.40373228E-02  6.88426223E-02  2.32184443E-01  4.67941348E-01
  3.62311985E-01 -1.19332420E-01 -1.60854152E-01  1.14345644E+00  1.00000000E+00
  1.00000000E+00  3.34946043E-02  2.34726953E-01  8.13757326E-01  1.00000000E+00
  3.34946043E-02  2.34726953E-01  8.13757326E-01  1.00000000E+00  3.34946043E-02
  2.34726953E-01  8.13757326E-01  1.00000000E+00  3.34946043E-02  2.34726953E-01
  8.13757326E-01  1.00000000E+00  3.34946043E-02  2.34726953E-01  8.13757326E-01
  1.00000000E+00  3.34946043E-02  2.34726953E-01  8.13757326E-01  1.00000000E+00
  3.34946043E-02  2.34726953E-01  8.13757326E-01  1.00000000E+00  3.34946043E-02
  2.34726953E-01  8.13757326E-01  1.00000000E+00
P(S=P) Contraction coefficients            R   N=          98
  0.00000000E+00  0.00000000E+00  0.00000000E+00  0.00000000E+00  0.00000000E+00
  0.00000000E+00  7.08742682E-02  3.39752839E-01  7.27158577E-01  1.00000000E+00
  0.00000000E+00  0.00000000E+00  0.00000000E+00  0.00000000E+00  0.00000000E+00
  0.00000000E+00  0.00000000E+00  7.08742682E-02  3.39752839E-01  7.27158577E-01
  1.00000000E+00  0.00000000E+00  0.00000000E+00  0.00000000E+00  0.00000000E+00
  0.00000000E+00  0.00000000E+00  0.00000000E+00  6.89990666E-02  3.16423961E-01
  7.44308291E-01  1.00000000E+00  0.00000000E+00  0.00000000E+00  0.00000000E+00
  0.00000000E+00  0.00000000E+00  0.00000000E+00  0.00000000E+00  6.89990666E-02
  3.16423961E-01  7.44308291E-01  1.00000000E+00  0.00000000E+00  0.00000000E+00
  0.00000000E+00  0.00000000E+00  0.00000000E+00  0.00000000E+00  0.00000000E+00
  6.89990666E-02  3.16423961E-01  7.44308291E-01  1.00000000E+00  0.00000000E+00
  0.00000000E+00  0.00000000E+00  0.00000000E+00  0.00000000E+00  0.00000000E+00
  0.00000000E+00  6.89990666E-02  3.16423961E-01  7.44308291E-01  1.00000000E+00
  0.00000000E+00  0.00000000E+00  0.00000000E+00  0.00000000E+00  0.00000000E+00
  0.00000000E+00  0.00000000E+00  0.00000000E+00  0.00000000E+00  0.00000000E+00
  0.00000000E+00  0.00000000E+00  0.00000000E+00  0.00000000E+00  0.00000000E+00
  0.00000000E+00  0.00000000E+00  0.00000000E+00  0.00000000E+00  0.00000000E+00
  0.00000000E+00  0.00000000E+00  0.00000000E+00  0.00000000E+00  0.00000000E+00
  0.00000000E+00  0.00000000E+00  0.00000000E+00  0.00000000E+00  0.00000000E+00
  0.00000000E+00  0.00000000E+00  0.00000000E+00
Coordinates of each shell                  R   N=         120
 -3.43271546E-01 -8.65408249E-01 -1.07055815E-04 -3.43271546E-01 -8.65408249E-01
 -1.07055815E-04 -3.43271546E-01 -8.65408249E-01 -1.07055815E-04 -3.43271546E-01
 -8.65408249E-01 -1.07055815E-04  2.24925510E+00  2.55804558E+00  1.76368428E-06
  2.24925510E+00  2.55804558E+00  1.76368428E-06  2.24925510E+00  2.55804558E+00
  1.76368428E-06  2.24925510E+00  2.55804558E+00  1.76368428E-06 -2.46831125E+00
  8.59902169E-01  4.81834587E-05 -2.46831125E+00  8.59902169E-01  4.81834587E-05
 -2.46831125E+00  8.59902169E-01  4.81834587E-05 -2.46831125E+00  8.59902169E-01
  4.81834587E-05 -4.82818410E+00 -7.49767459E-01  4.31670034E-05 -4.82818410E+00
 -7.49767459E-01  4.31670034E-05 -4.82818410E+00 -7.49767459E-01  4.31670034E-05
 -4.82818410E+00 -7.49767459E-01  4.31670034E-05  1.95675139E+00  2.71758382E-01
 -8.42998790E-05  1.95675139E+00  2.71758382E-01 -8.42998790E-05  1.95675139E+00
  2.71758382E-01 -8.42998790E-05  1.95675139E+00  2.71758382E-01 -8.42998790E-05
  4.03071934E+00 -1.67453423E+00  1.97892308E-05  4.03071934E+00 -1.67453423E+00
  1.97892308E-05  4.03071934E+00 -1.67453423E+00  1.97892308E-05  4.03071934E+00
 -1.67453423E+00  1.97892308E-05 -2.34632059E+00  2.07173755E+00  1.66919321E+00
 -2.34632059E+00  2.07173755E+00  1.66919321E+00 -2.34642789E+00  2.07190056E+00
 -1.66898591E+00 -2.34642789E+00  2.07190056E+00 -1.66898591E+00 -6.50472286E+00
  4.58743640E-01  1.54201033E-04 -6.50472286E+00  4.58743640E-01  1.54201033E-04
 -4.88539167E+00 -1.95273098E+00 -1.67573941E+00 -4.88539167E+00 -1.95273098E+00
 -1.67573941E+00 -4.88528796E+00 -1.95289566E+00  1.67571111E+00 -4.88528796E+00
 -1.95289566E+00  1.67571111E+00  3.85898644E+00 -2.88131035E+00 -1.66618804E+00
  3.85898644E+00 -2.88131035E+00 -1.66618804E+00  3.86049029E+00 -2.87934786E+00
  1.66781836E+00  3.86049029E+00 -2.87934786E+00  1.66781836E+00  5.85495358E+00
 -7.21348727E-01 -1.28221967E-03  5.85495358E+00 -7.21348727E-01 -1.28221967E-03
Constraint Structure                       R   N=          42
 -3.43271546E-01 -8.65408249E-01 -1.07055815E-04  2.24925510E+00  2.55804558E+00
  1.76368428E-06 -2.46831125E+00  8.59902169E-01  4.81834587E-05 -4.82818410E+00
 -7.49767459E-01  4.31670034E-05  1.95675139E+00  2.71758382E-01 -8.42998790E-05
  4.03071934E+00 -1.67453423E+00  1.97892308E-05 -2.34632059E+00  2.07173755E+00
  1.66919321E+00 -2.34642789E+00  2.07190056E+00 -1.66898591E+00 -6.50472286E+00
  4.58743640E-01  1.54201033E-04 -4.88539167E+00 -1.95273098E+00 -1.67573941E+00
 -4.88528796E+00 -1.95289566E+00  1.67571111E+00  3.85898644E+00 -2.88131035E+00
 -1.66618804E+00  3.86049029E+00 -2.87934786E+00  1.66781836E+00  5.85495358E+00
 -7.21348727E-01 -1.28221967E-03
Num ILSW                                   I              100
ILSW                                       I   N=         100
           0           1           0           1           2           0
           0           0           0           0           0          -1
           0           0           0           0           0           0
           0           0           0           0           1           0
           1           0           0           0           0           0
           0           0      100000           0          -1           0
           0           0           0           0           0           0
           0           0           0           1           1           0
           0           0           1           0           0           0
           0           0           4          40           0           0
           0           0           0           0           0           0
           0           0           0           0           0           0
           0           0           0           0           0           0
           0           0           0           0           0           0
           0           0           0           0           0           0
           0           0           0           0           0           0
           0           0           0           0
Num RLSW                                   I               40
RLSW                                       R   N=          40
  1.00000000E+00  1.00000000E+00  1.00000000E+00  1.00000000E+00  1.00000000E+00
  0.00000000E+00  0.00000000E+00  1.00000000E+00  0.00000000E+00  0.00000000E+00
  0.00000000E+00  0.00000000E+00  1.00000000E+00  0.00000000E+00  0.00000000E+00
  0.00000000E+00  0.00000000E+00  1.00000000E+00  0.00000000E+00  0.00000000E+00
  0.00000000E+00  0.00000000E+00  1.00000000E+00  0.00000000E+00  0.00000000E+00
  0.00000000E+00  0.00000000E+00  1.00000000E+00  0.00000000E+00  0.00000000E+00
  0.00000000E+00  0.00000000E+00  0.00000000E+00  0.00000000E+00  0.00000000E+00
  0.00000000E+00  0.00000000E+00  0.00000000E+00  1.00000000E+00  1.00000000E+00
MxBond                                     I                4
NBond                                      I   N=          14
           2           1           4           4           3           4
           1           1           1           1           1           1
           1           1
IBond                                      I   N=          56
           3           5           0           0           5           0
           0           0           1           4           7           8
           3           9          10          11           1           2
           6           0           5          12          13          14
           3           0           0           0           3           0
           0           0           4           0           0           0
           4           0           0           0           4           0
           0           0           6           0           0           0
           6           0           0           0           6           0
           0           0
RBond                                      R   N=          56
  1.00000000E+00  1.50000000E+00  0.00000000E+00  0.00000000E+00  2.00000000E+00
  0.00000000E+00  0.00000000E+00  0.00000000E+00  1.00000000E+00  1.00000000E+00
  1.00000000E+00  1.00000000E+00  1.00000000E+00  1.00000000E+00  1.00000000E+00
  1.00000000E+00  1.50000000E+00  2.00000000E+00  1.00000000E+00  0.00000000E+00
  1.00000000E+00  1.00000000E+00  1.00000000E+00  1.00000000E+00  1.00000000E+00
  0.00000000E+00  0.00000000E+00  0.00000000E+00  1.00000000E+00  0.00000000E+00
  0.00000000E+00  0.00000000E+00  1.00000000E+00  0.00000000E+00  0.00000000E+00
  0.00000000E+00  1.00000000E+00  0.00000000E+00  0.00000000E+00  0.00000000E+00
  1.00000000E+00  0.00000000E+00  0.00000000E+00  0.00000000E+00  1.00000000E+00
  0.00000000E+00  0.00000000E+00  0.00000000E+00  1.00000000E+00  0.00000000E+00
  0.00000000E+00  0.00000000E+00  1.00000000E+00  0.00000000E+00  0.00000000E+00
  0.00000000E+00
Virial Ratio                               R      2.002635450037138E+00
SCF Energy                                 R     -3.058725709171170E+02
MP2 Energy                                 R     -3.067439092148362E+02
Total Energy                               R     -3.067439092148362E+02
Post-SCF wavefunction norm                 R      1.593462124017538E+00
RMS Force                                  R      2.602529734228609E-06
RMS Density                                R      1.238809927675758E-09
External E-field                           R   N=          35
  0.00000000E+00  0.00000000E+00  0.00000000E+00  0.00000000E+00  0.00000000E+00
  0.00000000E+00  0.00000000E+00  0.00000000E+00  0.00000000E+00  0.00000000E+00
  0.00000000E+00  0.00000000E+00  0.00000000E+00  0.00000000E+00  0.00000000E+00
  0.00000000E+00  0.00000000E+00  0.00000000E+00  0.00000000E+00  0.00000000E+00
  0.00000000E+00  0.00000000E+00  0.00000000E+00  0.00000000E+00  0.00000000E+00
  0.00000000E+00  0.00000000E+00  0.00000000E+00  0.00000000E+00  0.00000000E+00
  0.00000000E+00  0.00000000E+00  0.00000000E+00  0.00000000E+00  0.00000000E+00
IOpCl                                      I                0
IROHF                                      I                0
Alpha Orbital Energies                     R   N=         106
 -2.06048041E+01 -2.05501082E+01 -1.13839061E+01 -1.12883339E+01 -1.12407227E+01
 -1.12254639E+01 -1.44836528E+00 -1.34762961E+00 -1.05341100E+00 -9.99993292E-01
 -8.60990580E-01 -7.76419995E-01 -6.84233171E-01 -6.79430635E-01 -6.58361501E-01
 -6.07659416E-01 -5.78094958E-01 -5.63294872E-01 -5.49533359E-01 -5.34819695E-01
 -5.10325668E-01 -4.97578894E-01 -4.52380125E-01 -4.40911300E-01  1.84521432E-01
  2.40075389E-01  2.53784101E-01  2.92257236E-01  2.96820184E-01  2.98614465E-01
  3.15247135E-01  3.26012650E-01  3.52378463E-01  3.53123522E-01  3.97854313E-01
  4.18726595E-01  4.92709884E-01  5.32809947E-01  7.32578404E-01  7.35468539E-01
  7.44835180E-01  7.50787538E-01  7.59228045E-01  8.09441177E-01  8.15659753E-01
  8.32189651E-01  9.15449791E-01  9.38326866E-01  9.47707105E-01  9.83155800E-01
  1.05776927E+00  1.10737306E+00  1.11145934E+00  1.12436503E+00  1.15374836E+00
  1.17005825E+00  1.17898085E+00  1.18488942E+00  1.19312757E+00  1.21522272E+00
  1.23554434E+00  1.29297290E+00  1.35574567E+00  1.39750381E+00  1.42197594E+00
  1.49136653E+00  1.62610275E+00  1.63860867E+00  1.65075770E+00  1.73657616E+00
  1.76731546E+00  1.79939691E+00  1.95115295E+00  1.98352018E+00  2.03984089E+00
  2.08562087E+00  2.10156497E+00  2.15847320E+00  2.19180675E+00  2.19616154E+00
  2.28120093E+00  2.28574844E+00  2.34123591E+00  2.41612610E+00  2.46449197E+00
  2.48410644E+00  2.49922707E+00  2.57146278E+00  2.66094969E+00  2.66858441E+00
  2.67383664E+00  2.72198358E+00  2.80219452E+00  2.96184003E+00  2.97698275E+00
  3.01111909E+00  3.09516038E+00  3.30801195E+00  3.38486270E+00  3.49248538E+00
  4.39979910E+00  4.48633531E+00  4.57590431E+00  4.61598974E+00  4.82159514E+00
  4.88965990E+00
Alpha MO coefficients                      R   N=       11236
  9.94653174E-01  2.12448262E-02  2.50357081E-04  1.19099383E-03  7.06835918E-08
  3.70794315E-03 -2.56265928E-05 -7.80985456E-04 -5.62713577E-08 -4.17278964E-03
 -4.06998588E-03 -3.90422976E-03  6.00808947E-05  1.04547959E-08 -1.54152056E-08
 -2.96713052E-04  4.24715430E-05  3.04305143E-05  2.67021461E-05  5.04453959E-09
 -3.46622322E-04  8.84044903E-05  9.16027833E-05 -1.81682915E-08  5.91510914E-06
  2.51273484E-06  1.06640631E-05 -7.02773811E-05 -2.29364258E-09  3.51021653E-09
 -2.23013638E-05  1.31083574E-04  2.89241371E-04 -2.50335434E-04 -2.05365517E-08
  3.91655645E-04 -1.07068064E-05  2.96079219E-05  1.17151465E-09  9.65167332E-05
  2.99214243E-05 -4.79435969E-05 -9.95898155E-05 -1.02499696E-08  6.38640817E-09
  1.08244826E-05  9.69801451E-05  1.50148568E-05 -2.33170807E-05 -2.41848374E-09
 -2.04400642E-04 -3.18062117E-04  9.57868100E-05  1.86102410E-08 -5.55782835E-05
  1.45359515E-05 -2.63454393E-06 -1.14085984E-05  1.78870779E-09  8.93820786E-10
  2.53283006E-06  3.70519516E-04 -3.24436503E-04 -1.41304130E-04 -3.12986915E-09
  1.00492113E-04 -8.00691109E-05  3.22212986E-04  7.75297167E-08 -2.65199327E-05
  1.21933096E-05 -4.62929144E-05 -3.79823281E-05  5.58583326E-09 -2.45131997E-09
  4.47080488E-06  7.06806503E-05 -1.13393583E-05 -1.54706149E-05  3.36888620E-08
  1.19072490E-04  2.10698184E-04  8.78148673E-05 -2.17401933E-07 -7.21739040E-05
  3.18806263E-06 -1.26569807E-05  3.07989501E-05 -2.35675866E-08 -1.95621285E-08
 -3.93576197E-05 -1.03888848E-04 -3.93611992E-05 -1.03879146E-04 -1.06877156E-05
 -1.49866300E-04  5.00260638E-05 -4.31931016E-06  5.00241797E-05 -4.32036116E-06
  3.77473490E-05 -2.50513976E-05  3.76992678E-05 -2.47947798E-05 -1.54001148E-05
 -1.58721668E-04  3.02711479E-04 -3.40754219E-05 -1.75856377E-05 -3.39566548E-05
  2.62363007E-10  9.69143348E-05  7.50519311E-05  4.73339728E-05 -4.50839121E-09
  7.40612291E-05 -7.86680288E-05 -6.02463065E-05 -4.77104157E-05 -4.05182611E-09
 -7.77724923E-10  9.94693702E-01  2.09963554E-02 -2.28144416E-04 -1.55185502E-03
 -5.95099734E-08  4.41810880E-03 -1.04994541E-05  4.90230411E-05 -5.75074281E-09
 -3.89586309E-03 -3.59436076E-03 -4.13306961E-03  3.98011108E-05 -3.31373230E-10
  2.42308254E-08 -5.34496104E-06  8.98018643E-06  1.66896181E-06  1.91677076E-05
  1.69562138E-09  1.69339203E-04 -1.25739204E-04 -5.78738110E-05 -4.55039432E-10
 -3.08715182E-05 -3.22464847E-05 -1.80203882E-05  1.38082252E-05  1.41382094E-09
 -2.22933269E-09  2.14288248E-06  9.61508700E-06 -7.05387423E-06 -1.79489026E-06
 -2.82553546E-10 -1.53043695E-04 -3.52736771E-05 -4.99172425E-05  1.03746376E-09
  3.31020892E-06 -2.25203673E-07  3.44588681E-06 -1.78524337E-06  5.42012942E-11
 -2.86079324E-10 -3.87516640E-06  4.93547109E-04  1.05255451E-05 -5.69514817E-05
 -5.13717525E-09 -3.49149208E-04 -1.12330758E-05 -4.23676010E-04  1.07653459E-08
 -7.93662355E-05 -8.00795183E-04 -3.52827526E-05 -1.23755922E-04 -2.52846501E-09
 -3.35998183E-08  5.97535197E-07 -1.03315241E-06 -2.49799183E-05 -1.65836018E-05
  6.63239475E-09 -4.60377696E-05  1.00548985E-04 -2.33667901E-05 -5.55700994E-08
  5.84328884E-05 -5.25356768E-05 -1.15248992E-05 -5.27476582E-06  5.38732905E-09
  4.18398898E-10  2.05333529E-05 -5.43756724E-05  2.05315007E-05 -5.43726112E-05
  6.16513389E-06  1.75278396E-05  2.54521986E-06  2.67680516E-06  2.54464719E-06
  2.67504779E-06  1.14142133E-05 -2.77732904E-05  1.14173816E-05 -2.77140784E-05
  4.15096264E-06 -6.76253584E-05 -6.91129467E-05  7.67167642E-04  1.27399463E-04
  2.13005281E-04  8.33048721E-09 -2.18801076E-03 -9.37049427E-04 -1.78928424E-03
 -5.15524369E-08 -4.55739121E-04 -7.11962150E-06  5.65973319E-04 -3.93956046E-04
  5.50345535E-09 -1.71620489E-08 -2.75538424E-04  6.38299697E-04 -1.09037042E-04
 -2.85048541E-04 -1.43156735E-08 -3.09087004E-03  9.54827259E-04  1.60024009E-03
  1.20198077E-07  1.45939698E-04  8.86630432E-05  4.18230318E-04 -1.77838457E-04
 -1.32657407E-08 -3.48378540E-08 -8.74465460E-05 -2.59685948E-04  8.43743356E-05
 -8.91851578E-05 -1.52437001E-08  1.13214613E-03  6.63835319E-04 -2.20802796E-04
  6.99213931E-09  2.40441202E-04  2.74794181E-06  1.53642915E-05 -1.00508088E-04
 -1.16690695E-08  6.70895968E-09  4.62171106E-05  1.47057581E-04  7.62106848E-05
 -5.67373340E-05 -1.81429991E-09 -4.46782047E-04 -5.50273532E-04  3.74398108E-04
  7.77152802E-09 -1.02947986E-06  7.44784252E-05  2.45962977E-05 -3.15913362E-05
 -3.00326160E-09  4.36101743E-09  9.95905372E-01  2.58704560E-02 -1.03546463E-03
  6.72170560E-05  3.07192352E-08 -5.93422885E-03 -2.23312083E-03  3.27382661E-03
 -3.91961578E-08 -1.05240724E-03 -5.37179014E-04 -2.24833559E-03  2.82279352E-04
  2.47430419E-08  4.01731505E-08  2.10650012E-03  8.77168577E-05  1.00479194E-04
 -9.47311168E-05  4.95868999E-08  3.77932366E-03 -1.62733959E-03  1.30327455E-03
 -3.39856291E-07 -3.71191291E-04 -3.23908058E-04 -1.11346380E-04  2.17475989E-04
  7.38553892E-09  3.32131335E-08 -1.32562881E-04 -4.09925391E-05 -1.32542906E-04
 -4.09930964E-05 -4.71072374E-05 -2.43274061E-04  8.16931889E-05  1.25676656E-04
  8.16981990E-05  1.25697842E-04 -1.64822324E-04  2.59284304E-04 -1.64844584E-04
  2.59732493E-04 -1.05854222E-04  2.06953464E-04 -1.38958343E-04  1.80706331E-04
 -1.57205052E-04  1.66610745E-04  9.43909802E-09  1.42404820E-03  6.85499365E-06
 -5.17909348E-04 -1.32204540E-08 -5.33133318E-04 -4.19863477E-04  1.10087530E-04
  4.26144936E-04  4.72031867E-08 -4.61864824E-08  2.92660011E-06 -1.33274914E-05
  3.25614770E-05  4.23160601E-05  3.01355243E-09 -5.30520049E-04  1.48894625E-04
  1.40375024E-05 -8.86795738E-09  6.29522760E-05  5.39740869E-06 -8.37487410E-05
 -1.84472520E-05 -6.14321783E-09  6.44806336E-09  9.95886869E-01  2.75388334E-02
  8.66489845E-04 -6.82689734E-04 -5.74087033E-08 -1.40112597E-02 -1.27958246E-04
  1.49852185E-04 -1.87710976E-09 -1.43313549E-03 -1.44306169E-03 -1.47358659E-03
 -2.80891793E-05 -4.01421203E-09  2.57084731E-09  4.96380125E-03  2.30557283E-04
 -3.03653850E-05  1.91765509E-06  4.04110214E-10  3.01617860E-03  1.43541779E-03
  7.62378349E-04 -1.91508652E-10 -3.77944257E-04 -2.29238511E-04 -1.03928994E-04
 -1.95796973E-04  9.49773835E-10 -1.01815531E-09  6.28758890E-05 -2.38444693E-04
  9.47131371E-05 -6.87765889E-05 -1.81287356E-09  1.37334053E-04 -1.56337377E-03
  1.16643771E-03  6.23422183E-08  1.82912650E-04  6.67759793E-05 -4.91168399E-05
 -1.00310600E-05 -9.02183491E-09  9.13344120E-09  3.43917459E-05 -4.37980143E-05
 -8.89351009E-05  8.98185755E-06  2.65101163E-08  1.28990750E-03 -1.20303092E-04
  5.92276464E-04 -2.09537872E-07 -1.32855844E-05  2.05747051E-05 -1.63279144E-05
  5.72474750E-06 -3.15595544E-08 -3.95960725E-08  2.18065045E-04  2.53143608E-03
  2.18063640E-04  2.53142879E-03 -8.16367147E-05  1.26284238E-04 -1.45049878E-04
  1.16719065E-04 -1.45051255E-04  1.16713802E-04  2.65195629E-06  3.37067374E-05
  2.57854269E-06  3.38060283E-05 -7.33084414E-05 -1.88692576E-04 -3.99438456E-05
 -2.85329099E-04 -1.20346130E-04  3.57028938E-05 -3.72250031E-08  9.44956566E-04
  7.58858496E-04  6.66199715E-06  1.59330046E-07  1.87004982E-05 -1.08015319E-04
 -2.33058965E-04  3.09218135E-05  3.36517877E-08 -1.93136152E-08 -7.90729755E-06
 -1.00415793E-04 -2.13344753E-05  6.18564303E-06 -2.53869224E-08  1.96639712E-04
 -4.17832693E-04 -1.25368761E-04  8.08292183E-08 -8.42786947E-06  8.86078308E-05
 -1.26936252E-04  8.10735940E-05  3.39416195E-08 -1.09962116E-08 -5.82419950E-05
 -7.86564941E-05  1.42317986E-05 -4.18207300E-05  1.66267201E-08  4.88511150E-04
  4.37116952E-04  2.54665716E-05 -1.77724659E-07  1.27374128E-05 -2.58577026E-06
 -1.86813167E-05 -2.19201826E-05 -1.22087214E-08 -2.16068914E-09 -3.78732814E-05
 -3.87161292E-05 -7.10455300E-06  4.10203100E-06 -5.57493224E-09  2.48559593E-04
  8.41667748E-05  3.97212633E-05  7.62825105E-08 -4.05709899E-06 -5.07530918E-06
 -1.77912932E-05  2.81033601E-07  7.46125563E-09  1.63999911E-09 -2.44643284E-03