
    -----------------------------------------------------------------------
          Psi4: An Open-Source Ab Initio Electronic Structure Package
                               Psi4 1.4a3.dev225 

                         Git: Rev {master} 7105e37 


    D. G. A. Smith, L. A. Burns, A. C. Simmonett, R. M. Parrish,
    M. C. Schieber, R. Galvelis, P. Kraus, H. Kruse, R. Di Remigio,
    A. Alenaizan, A. M. James, S. Lehtola, J. P. Misiewicz, M. Scheurer,
    R. A. Shaw, J. B. Schriber, Y. Xie, Z. L. Glick, D. A. Sirianni,
    J. S. O'Brien, J. M. Waldrop, A. Kumar, E. G. Hohenstein,
    B. P. Pritchard, B. R. Brooks, H. F. Schaefer III, A. Yu. Sokolov,
    K. Patkowski, A. E. DePrince III, U. Bozkaya, R. A. King,
    F. A. Evangelista, J. M. Turney, T. D. Crawford, C. D. Sherrill,
    J. Chem. Phys. 152(18) 184108 (2020). https://doi.org/10.1063/5.0006002

                            Additional Code Authors
    E. T. Seidl, C. L. Janssen, E. F. Valeev, M. L. Leininger,
    J. F. Gonthier, R. M. Richard, H. R. McAlexander, M. Saitow, X. Wang,
    P. Verma, and M. H. Lechner

             Previous Authors, Complete List of Code Contributors,
                       and Citations for Specific Modules
    https://github.com/psi4/psi4/blob/master/codemeta.json
    https://github.com/psi4/psi4/graphs/contributors
    http://psicode.org/psi4manual/master/introduction.html#citing-psifour

    -----------------------------------------------------------------------


    Psi4 started on: Sunday, 28 February 2021 10:17PM

    Process ID: 101692
    Host:       c402-023.stampede2.tacc.utexas.edu
    PSIDATADIR: /home1/07844/xy3866/miniconda3/envs/p4env/share/psi4
    Memory:     500.0 MiB
    Threads:    32
    
  ==> Input File <==

--------------------------------------------------------------------------
#psi4
#
memory 32 gb

molecule  {
0 1
  O        0.3130990     2.3704440    -1.0483590
  N        1.7883250     1.2487180     0.2800910
  C        1.5183663    -1.3836447    -0.8133907
  C        2.5082430    -1.1273300     0.3546920
  C        0.0936770    -1.0844130    -0.4156830
  C       -0.3593510     0.2288580    -0.1728470
  C        2.1500350     0.1348000     1.1432270
  C       -1.6973100     0.4876920     0.1815770
  C        0.5874820     1.3794060    -0.3635620
  C       -0.8057180    -2.1460500    -0.2745700
  C       -2.5635920    -0.6025190     0.3218070
  C       -2.1294290    -1.9083920     0.0915650
  C       -2.2005820     1.8899870     0.4130340
  H        1.6305660    -2.3487650    -1.2074160
  H        1.8022820    -0.6509930    -1.6251500
  H        2.4785080    -1.9866810     1.0363320
  H        3.5296620    -1.0584230    -0.0385230
  H        1.3070990    -0.0748920     1.8087120
  H        2.9845300     0.4555350     1.7739000
  H        2.4430930     2.0063180     0.1171350
  H       -0.4670580    -3.1628320    -0.4675050
  H       -3.5988730    -0.4222000     0.6058720
  H       -2.8229980    -2.7393000     0.2003190
  H       -1.5534710     2.4410460     1.1016880
  H       -2.2209110     2.4548110    -0.5213210
  H       -3.2087000     1.8617690     0.8360960
units angstrom
no_reorient  #important for SAPT in psi4, default
symmetry c1  #important for SAPT in psi4, default
}

set PROPERTIES_ORIGIN ["COM"]
properties('MP2/aug-cc-pvtz', properties = ['dipole'])
--------------------------------------------------------------------------

  Memory set to  29.802 GiB by Python driver.
    SCF Algorithm Type (re)set to DF.

*** tstart() called on c402-023.stampede2.tacc.utexas.edu
*** at Sun Feb 28 22:17:08 2021

   => Loading Basis Set <=

    Name: AUG-CC-PVTZ
    Role: ORBITAL
    Keyword: BASIS
    atoms 1     entry O          line   331 file /home1/07844/xy3866/miniconda3/envs/p4env/share/psi4/basis/aug-cc-pvtz.gbs 
    atoms 2     entry N          line   285 file /home1/07844/xy3866/miniconda3/envs/p4env/share/psi4/basis/aug-cc-pvtz.gbs 
    atoms 3-13  entry C          line   239 file /home1/07844/xy3866/miniconda3/envs/p4env/share/psi4/basis/aug-cc-pvtz.gbs 
    atoms 14-26 entry H          line    40 file /home1/07844/xy3866/miniconda3/envs/p4env/share/psi4/basis/aug-cc-pvtz.gbs 


         ---------------------------------------------------------
                                   SCF
               by Justin Turney, Rob Parrish, Andy Simmonett
                          and Daniel G. A. Smith
                              RHF Reference
                       32 Threads,  30517 MiB Core
         ---------------------------------------------------------

  ==> Geometry <==

    Molecular point group: c1
    Full point group: C1

    Geometry (in Angstrom), charge = 0, multiplicity = 1:

       Center              X                  Y                   Z               Mass       
    ------------   -----------------  -----------------  -----------------  -----------------
         O            0.326841738348     2.355756186742    -1.027755771662    15.994914619570
         N            1.802067738348     1.234030186742     0.300694228338    14.003074004430
         C            1.532109038348    -1.398332513258    -0.792787471662    12.000000000000
         C            2.521985738348    -1.142017813258     0.375295228338    12.000000000000
         C            0.107419738348    -1.099100813258    -0.395079771662    12.000000000000
         C           -0.345608261652     0.214170186742    -0.152243771662    12.000000000000
         C            2.163777738348     0.120112186742     1.163830228338    12.000000000000
         C           -1.683567261652     0.473004186742     0.202180228338    12.000000000000
         C            0.601224738348     1.364718186742    -0.342958771662    12.000000000000
         C           -0.791975261652    -2.160737813258    -0.253966771662    12.000000000000
         C           -2.549849261652    -0.617206813258     0.342410228338    12.000000000000
         C           -2.115686261652    -1.923079813258     0.112168228338    12.000000000000
         C           -2.186839261652     1.875299186742     0.433637228338    12.000000000000
         H            1.644308738348    -2.363452813258    -1.186812771662     1.007825032230
         H            1.816024738348    -0.665680813258    -1.604546771662     1.007825032230
         H            2.492250738348    -2.001368813258     1.056935228338     1.007825032230
         H            3.543404738348    -1.073110813258    -0.017919771662     1.007825032230
         H            1.320841738348    -0.089579813258     1.829315228338     1.007825032230
         H            2.998272738348     0.440847186742     1.794503228338     1.007825032230
         H            2.456835738348     1.991630186742     0.137738228338     1.007825032230
         H           -0.453315261652    -3.177519813258    -0.446901771662     1.007825032230
         H           -3.585130261652    -0.436887813258     0.626475228338     1.007825032230
         H           -2.809255261652    -2.753987813258     0.220922228338     1.007825032230
         H           -1.539728261652     2.426358186742     1.122291228338     1.007825032230
         H           -2.207168261652     2.440123186742    -0.500717771662     1.007825032230
         H           -3.194957261652     1.847081186742     0.856699228338     1.007825032230

  Running in c1 symmetry.

  Rotational constants: A =      0.03733  B =      0.02844  C =      0.01851 [cm^-1]
  Rotational constants: A =   1119.13086  B =    852.59882  C =    554.99907 [MHz]
  Nuclear repulsion =  795.443603923284968

  Charge       = 0
  Multiplicity = 1
  Electrons    = 94
  Nalpha       = 47
  Nbeta        = 47

  ==> Algorithm <==

  SCF Algorithm Type is DF.
  DIIS enabled.
  MOM disabled.
  Fractional occupation disabled.
  Guess Type is SAD.
  Energy threshold   = 1.00e-10
  Density threshold  = 1.00e-10
  Integral threshold = 1.00e-12

  ==> Primary Basis <==

  Basis Set: AUG-CC-PVTZ
    Blend: AUG-CC-PVTZ
    Number of shells: 299
    Number of basis functions: 897
    Number of Cartesian functions: 1040
    Spherical Harmonics?: true
    Max angular momentum: 3

   => Loading Basis Set <=

    Name: (AUG-CC-PVTZ AUX)
    Role: JKFIT
    Keyword: DF_BASIS_SCF
    atoms 1     entry O          line   286 file /home1/07844/xy3866/miniconda3/envs/p4env/share/psi4/basis/aug-cc-pvtz-jkfit.gbs 
    atoms 2     entry N          line   224 file /home1/07844/xy3866/miniconda3/envs/p4env/share/psi4/basis/aug-cc-pvtz-jkfit.gbs 
    atoms 3-13  entry C          line   162 file /home1/07844/xy3866/miniconda3/envs/p4env/share/psi4/basis/aug-cc-pvtz-jkfit.gbs 
    atoms 14-26 entry H          line    70 file /home1/07844/xy3866/miniconda3/envs/p4env/share/psi4/basis/aug-cc-pvtz-jkfit.gbs 

  ==> Integral Setup <==

  DFHelper Memory: AOs need 10.805 GiB; user supplied 22.352 GiB. Using in-core AOs.

  ==> MemDFJK: Density-Fitted J/K Matrices <==

    J tasked:                   Yes
    K tasked:                   Yes
    wK tasked:                   No
    OpenMP threads:              32
    Memory [MiB]:             22888
    Algorithm:                 Core
    Schwarz Cutoff:           1E-12
    Mask sparsity (%):      10.8341
    Fitting Condition:        1E-10

   => Auxiliary Basis Set <=

  Basis Set: (AUG-CC-PVTZ AUX)
    Blend: AUG-CC-PVTZ-JKFIT
    Number of shells: 572
    Number of basis functions: 1950
    Number of Cartesian functions: 2418
    Spherical Harmonics?: true
    Max angular momentum: 4

  Minimum eigenvalue in the overlap matrix is 3.5919236984E-07.
  Reciprocal condition number of the overlap matrix is 1.5058264917E-08.
    Using symmetric orthogonalization.

  ==> Pre-Iterations <==

  SCF Guess: Superposition of Atomic Densities via on-the-fly atomic UHF (no occupation information).

   -------------------------
    Irrep   Nso     Nmo    
   -------------------------
     A        897     897 
   -------------------------
    Total     897     897
   -------------------------

  ==> Iterations <==

                           Total Energy        Delta E     RMS |[F,P]|

   @DF-RHF iter SAD:  -553.47561190570332   -5.53476e+02   0.00000e+00 
   @DF-RHF iter   1:  -553.23439449226282    2.41217e-01   9.28488e-04 DIIS
   @DF-RHF iter   2:  -553.55984561690775   -3.25451e-01   4.68502e-04 DIIS
   @DF-RHF iter   3:  -553.63431907065012   -7.44735e-02   1.01415e-04 DIIS
   @DF-RHF iter   4:  -553.63956338918183   -5.24432e-03   4.36627e-05 DIIS
   @DF-RHF iter   5:  -553.64035221905010   -7.88830e-04   9.60740e-06 DIIS
   @DF-RHF iter   6:  -553.64041963185900   -6.74128e-05   4.51430e-06 DIIS
   @DF-RHF iter   7:  -553.64043487770493   -1.52458e-05   1.65280e-06 DIIS
   @DF-RHF iter   8:  -553.64043833422284   -3.45652e-06   8.22086e-07 DIIS
   @DF-RHF iter   9:  -553.64043911112879   -7.76906e-07   3.12013e-07 DIIS
   @DF-RHF iter  10:  -553.64043925252327   -1.41394e-07   1.00512e-07 DIIS
   @DF-RHF iter  11:  -553.64043926712463   -1.46014e-08   4.26063e-08 DIIS
   @DF-RHF iter  12:  -553.64043927003638   -2.91175e-09   2.02213e-08 DIIS
   @DF-RHF iter  13:  -553.64043927084867   -8.12292e-10   9.34740e-09 DIIS
   @DF-RHF iter  14:  -553.64043927102819   -1.79512e-10   4.37953e-09 DIIS
   @DF-RHF iter  15:  -553.64043927105752   -2.93312e-11   1.62237e-09 DIIS
   @DF-RHF iter  16:  -553.64043927106002   -2.50111e-12   6.52211e-10 DIIS
   @DF-RHF iter  17:  -553.64043927106070   -6.82121e-13   1.88177e-10 DIIS
   @DF-RHF iter  18:  -553.64043927106241   -1.70530e-12   6.40311e-11 DIIS
  Energy and wave function converged.


  ==> Post-Iterations <==

    Orbital Energies [Eh]
    ---------------------

    Doubly Occupied:                                                      

       1A    -20.512508     2A    -15.582993     3A    -11.350203  
       4A    -11.275665     5A    -11.254677     6A    -11.253850  
       7A    -11.244120     8A    -11.242628     9A    -11.238463  
      10A    -11.237905    11A    -11.234410    12A    -11.232444  
      13A    -11.216042    14A     -1.367389    15A     -1.234898  
      16A     -1.163707    17A     -1.083678    18A     -1.044306  
      19A     -1.028060    20A     -0.944825    21A     -0.932758  
      22A     -0.873739    23A     -0.828872    24A     -0.786041  
      25A     -0.770774    26A     -0.693521    27A     -0.683547  
      28A     -0.659512    29A     -0.657214    30A     -0.622322  
      31A     -0.614274    32A     -0.590404    33A     -0.582757  
      34A     -0.571871    35A     -0.565794    36A     -0.555818  
      37A     -0.531367    38A     -0.528136    39A     -0.512786  
      40A     -0.506210    41A     -0.493721    42A     -0.475281  
      43A     -0.473118    44A     -0.417137    45A     -0.385935  
      46A     -0.336165    47A     -0.326907  

    Virtual:                                                              

      48A      0.023750    49A      0.028938    50A      0.030717  
      51A      0.037515    52A      0.042055    53A      0.043727  
      54A      0.052679    55A      0.056212    56A      0.056618  
      57A      0.060495    58A      0.065658    59A      0.072944  
      60A      0.080119    61A      0.091035    62A      0.096097  
      63A      0.098010    64A      0.100617    65A      0.105313  
      66A      0.107700    67A      0.111884    68A      0.116102  
      69A      0.117591    70A      0.119399    71A      0.123925  
      72A      0.124733    73A      0.128128    74A      0.131690  
      75A      0.134399    76A      0.138564    77A      0.144032  
      78A      0.144721    79A      0.145735    80A      0.149336  
      81A      0.153854    82A      0.157090    83A      0.161805  
      84A      0.166478    85A      0.166861    86A      0.169621  
      87A      0.173663    88A      0.178977    89A      0.183869  
      90A      0.187511    91A      0.190766    92A      0.198622  
      93A      0.203655    94A      0.206901    95A      0.212324  
      96A      0.214243    97A      0.226248    98A      0.228521  
      99A      0.232019   100A      0.235643   101A      0.241193  
     102A      0.244085   103A      0.247678   104A      0.254007  
     105A      0.254765   106A      0.261114   107A      0.266135  
     108A      0.274187   109A      0.278391   110A      0.282600  
     111A      0.284017   112A      0.288463   113A      0.292123  
     114A      0.293427   115A      0.299203   116A      0.301442  
     117A      0.311467   118A      0.314653   119A      0.317104  
     120A      0.320841   121A      0.325693   122A      0.327560  
     123A      0.330182   124A      0.332864   125A      0.335827  
     126A      0.337844   127A      0.344965   128A      0.347664  
     129A      0.353519   130A      0.358212   131A      0.363304  
     132A      0.363523   133A      0.368636   134A      0.373008  
     135A      0.376139   136A      0.381436   137A      0.384582  
     138A      0.388696   139A      0.395232   140A      0.399225  
     141A      0.400665   142A      0.405513   143A      0.412524  
     144A      0.417265   145A      0.419211   146A      0.424738  
     147A      0.426434   148A      0.431013   149A      0.434421  
     150A      0.443068   151A      0.444480   152A      0.447233  
     153A      0.447820   154A      0.451486   155A      0.456677  
     156A      0.458302   157A      0.465919   158A      0.467405  
     159A      0.468420   160A      0.471116   161A      0.474422  
     162A      0.476610   163A      0.478632   164A      0.482152  
     165A      0.485552   166A      0.491520   167A      0.495900  
     168A      0.497669   169A      0.503526   170A      0.508406  
     171A      0.509788   172A      0.511400   173A      0.516552  
     174A      0.519125   175A      0.522941   176A      0.527509  
     177A      0.533490   178A      0.535133   179A      0.540305  
     180A      0.542857   181A      0.545915   182A      0.549247  
     183A      0.555501   184A      0.557501   185A      0.561230  
     186A      0.561586   187A      0.568638   188A      0.571802  
     189A      0.577579   190A      0.579212   191A      0.583901  
     192A      0.588402   193A      0.590894   194A      0.596907  
     195A      0.603012   196A      0.605985   197A      0.608441  
     198A      0.612932   199A      0.618018   200A      0.618262  
     201A      0.622730   202A      0.628323   203A      0.638488  
     204A      0.642904   205A      0.647916   206A      0.653634  
     207A      0.654746   208A      0.657366   209A      0.663486  
     210A      0.668350   211A      0.678500   212A      0.683426  
     213A      0.685785   214A      0.690261   215A      0.696717  
     216A      0.700657   217A      0.708558   218A      0.715012  
     219A      0.723110   220A      0.730294   221A      0.733490  
     222A      0.739090   223A      0.743795   224A      0.750001  
     225A      0.751530   226A      0.756659   227A      0.765388  
     228A      0.767807   229A      0.771172   230A      0.778227  
     231A      0.786207   232A      0.791971   233A      0.793101  
     234A      0.805652   235A      0.807786   236A      0.815296  
     237A      0.821705   238A      0.829001   239A      0.837572  
     240A      0.843535   241A      0.845703   242A      0.850865  
     243A      0.852774   244A      0.857512   245A      0.863388  
     246A      0.867024   247A      0.872550   248A      0.874866  
     249A      0.879917   250A      0.886475   251A      0.889604  
     252A      0.895327   253A      0.900792   254A      0.908149  
     255A      0.913973   256A      0.915446   257A      0.923163  
     258A      0.927078   259A      0.930511   260A      0.935325  
     261A      0.942267   262A      0.943531   263A      0.953033  
     264A      0.954799   265A      0.961013   266A      0.968424  
     267A      0.971084   268A      0.976224   269A      0.979694  
     270A      0.984429   271A      0.986539   272A      0.989855  
     273A      0.993095   274A      0.995250   275A      0.998550  
     276A      1.005450   277A      1.009507   278A      1.013931  
     279A      1.017720   280A      1.022367   281A      1.024457  
     282A      1.034681   283A      1.037422   284A      1.040843  
     285A      1.044921   286A      1.045995   287A      1.058790  
     288A      1.061770   289A      1.068666   290A      1.071882  
     291A      1.072517   292A      1.083224   293A      1.087344  
     294A      1.088302   295A      1.093905   296A      1.094916  
     297A      1.105082   298A      1.106776   299A      1.112101  
     300A      1.115664   301A      1.120776   302A      1.125710  
     303A      1.130481   304A      1.135277   305A      1.137197  
     306A      1.144540   307A      1.147905   308A      1.157584  
     309A      1.159280   310A      1.162308   311A      1.167960  
     312A      1.169512   313A      1.176150   314A      1.178165  
     315A      1.183905   316A      1.189259   317A      1.196015  
     318A      1.196737   319A      1.202949   320A      1.203805  
     321A      1.207000   322A      1.215190   323A      1.216304  
     324A      1.222563   325A      1.228841   326A      1.233102  
     327A      1.239147   328A      1.245468   329A      1.250170  
     330A      1.252799   331A      1.256619   332A      1.261232  
     333A      1.270343   334A      1.271285   335A      1.278373  
     336A      1.286296   337A      1.292313   338A      1.296892  
     339A      1.300428   340A      1.307425   341A      1.309745  
     342A      1.315978   343A      1.318241   344A      1.333795  
     345A      1.338043   346A      1.348523   347A      1.356646  
     348A      1.360766   349A      1.374720   350A      1.378139  
     351A      1.387111   352A      1.393094   353A      1.393479  
     354A      1.400341   355A      1.408693   356A      1.411985  
     357A      1.413575   358A      1.423954   359A      1.430041  
     360A      1.433972   361A      1.436756   362A      1.443667  
     363A      1.458905   364A      1.460832   365A      1.466895  
     366A      1.477375   367A      1.484151   368A      1.486839  
     369A      1.489029   370A      1.498459   371A      1.500733  
     372A      1.506384   373A      1.512551   374A      1.520068  
     375A      1.527238   376A      1.534374   377A      1.539779  
     378A      1.547889   379A      1.550998   380A      1.561296  
     381A      1.569762   382A      1.572091   383A      1.578062  
     384A      1.583114   385A      1.588146   386A      1.596729  
     387A      1.601616   388A      1.607699   389A      1.611988  
     390A      1.621276   391A      1.625662   392A      1.626761  
     393A      1.630341   394A      1.642956   395A      1.648681  
     396A      1.651546   397A      1.664633   398A      1.670793  
     399A      1.673532   400A      1.675086   401A      1.686019  
     402A      1.697451   403A      1.700502   404A      1.702075  
     405A      1.714185   406A      1.717571   407A      1.722542  
     408A      1.736385   409A      1.739005   410A      1.739495  
     411A      1.748652   412A      1.754077   413A      1.761554  
     414A      1.767342   415A      1.773221   416A      1.774353  
     417A      1.778411   418A      1.782631   419A      1.792685  
     420A      1.801569   421A      1.802512   422A      1.819462  
     423A      1.825694   424A      1.832906   425A      1.840177  
     426A      1.846403   427A      1.848045   428A      1.854703  
     429A      1.859717   430A      1.865746   431A      1.872291  
     432A      1.882150   433A      1.885529   434A      1.892194  
     435A      1.895698   436A      1.900782   437A      1.905060  
     438A      1.914131   439A      1.919938   440A      1.928796  
     441A      1.936316   442A      1.949701   443A      1.953882  
     444A      1.957887   445A      1.967416   446A      1.968516  
     447A      1.979712   448A      1.984054   449A      2.001783  
     450A      2.004823   451A      2.010776   452A      2.013907  
     453A      2.021373   454A      2.026475   455A      2.036560  
     456A      2.038115   457A      2.050053   458A      2.052047  
     459A      2.058713   460A      2.067818   461A      2.076985  
     462A      2.081348   463A      2.087025   464A      2.098891  
     465A      2.106465   466A      2.116230   467A      2.119313  
     468A      2.128081   469A      2.133493   470A      2.139881  
     471A      2.150926   472A      2.151959   473A      2.158345  
     474A      2.163256   475A      2.170354   476A      2.174977  
     477A      2.186331   478A      2.193384   479A      2.204563  
     480A      2.211010   481A      2.214707   482A      2.222610  
     483A      2.245993   484A      2.251161   485A      2.253884  
     486A      2.264107   487A      2.268546   488A      2.273432  
     489A      2.287005   490A      2.287884   491A      2.291652  
     492A      2.300249   493A      2.310270   494A      2.314022  
     495A      2.318797   496A      2.323036   497A      2.335450  
     498A      2.346813   499A      2.351927   500A      2.358011  
     501A      2.364627   502A      2.375414   503A      2.383068  
     504A      2.396038   505A      2.406527   506A      2.415264  
     507A      2.427514   508A      2.431328   509A      2.443712  
     510A      2.451345   511A      2.461466   512A      2.479389  
     513A      2.486185   514A      2.494466   515A      2.501030  
     516A      2.519754   517A      2.525288   518A      2.530231  
     519A      2.537567   520A      2.557913   521A      2.562488  
     522A      2.570499   523A      2.576684   524A      2.599646  
     525A      2.605467   526A      2.608628   527A      2.620664  
     528A      2.635073   529A      2.641513   530A      2.649726  
     531A      2.666532   532A      2.674611   533A      2.691197  
     534A      2.699781   535A      2.707169   536A      2.726361  
     537A      2.736956   538A      2.745832   539A      2.760708  
     540A      2.770267   541A      2.786779   542A      2.788039  
     543A      2.806541   544A      2.828369   545A      2.833358  
     546A      2.849934   547A      2.869362   548A      2.878753  
     549A      2.887380   550A      2.916747   551A      2.924934  
     552A      2.939952   553A      2.957475   554A      2.967961  
     555A      2.983368   556A      3.014668   557A      3.024067  
     558A      3.065850   559A      3.092629   560A      3.130596  
     561A      3.154299   562A      3.173834   563A      3.200072  
     564A      3.201852   565A      3.208453   566A      3.230991  
     567A      3.246724   568A      3.266162   569A      3.280597  
     570A      3.305151   571A      3.323932   572A      3.340888  
     573A      3.367442   574A      3.379468   575A      3.387885  
     576A      3.406825   577A      3.414634   578A      3.440049  
     579A      3.444992   580A      3.453962   581A      3.467550  
     582A      3.480815   583A      3.490585   584A      3.496563  
     585A      3.511786   586A      3.519261   587A      3.523069  
     588A      3.528229   589A      3.537773   590A      3.547428  
     591A      3.558084   592A      3.569187   593A      3.573740  
     594A      3.580674   595A      3.587562   596A      3.601729  
     597A      3.615618   598A      3.624349   599A      3.637317  
     600A      3.647272   601A      3.651595   602A      3.655830  
     603A      3.658298   604A      3.676138   605A      3.687672  
     606A      3.694159   607A      3.700366   608A      3.707424  
     609A      3.714829   610A      3.725381   611A      3.734058  
     612A      3.747347   613A      3.752848   614A      3.757885  
     615A      3.771812   616A      3.783586   617A      3.783775  
     618A      3.790061   619A      3.796152   620A      3.806818  
     621A      3.814440   622A      3.833876   623A      3.839031  
     624A      3.843635   625A      3.850958   626A      3.860091  
     627A      3.862189   628A      3.867129   629A      3.878530  
     630A      3.886109   631A      3.891912   632A      3.899342  
     633A      3.909003   634A      3.909663   635A      3.922873  
     636A      3.930712   637A      3.938875   638A      3.946707  
     639A      3.959244   640A      3.961147   641A      3.963615  
     642A      3.977929   643A      3.982541   644A      3.996009  
     645A      4.001792   646A      4.005226   647A      4.009857  
     648A      4.026177   649A      4.032880   650A      4.039847  
     651A      4.045666   652A      4.050981   653A      4.061103  
     654A      4.064001   655A      4.073136   656A      4.079811  
     657A      4.089321   658A      4.098398   659A      4.099115  
     660A      4.108929   661A      4.127931   662A      4.130747  
     663A      4.144846   664A      4.150757   665A      4.157505  
     666A      4.169993   667A      4.172827   668A      4.177720  
     669A      4.193396   670A      4.196918   671A      4.212394  
     672A      4.219550   673A      4.231538   674A      4.239648  
     675A      4.247480   676A      4.256238   677A      4.262000  
     678A      4.271353   679A      4.273503   680A      4.284400  
     681A      4.299239   682A      4.304916   683A      4.313319  
     684A      4.320405   685A      4.335895   686A      4.338373  
     687A      4.343941   688A      4.352387   689A      4.361520  
     690A      4.369087   691A      4.379889   692A      4.386649  
     693A      4.397985   694A      4.406611   695A      4.413023  
     696A      4.415662   697A      4.418774   698A      4.433401  
     699A      4.442371   700A      4.453053   701A      4.465020  
     702A      4.473959   703A      4.478723   704A      4.487985  
     705A      4.495532   706A      4.505059   707A      4.511245  
     708A      4.516963   709A      4.537538   710A      4.540423  
     711A      4.556758   712A      4.562892   713A      4.582745  
     714A      4.589789   715A      4.600279   716A      4.603331  
     717A      4.613300   718A      4.618364   719A      4.630138  
     720A      4.646745   721A      4.656275   722A      4.672587  
     723A      4.673925   724A      4.678991   725A      4.685899  
     726A      4.698611   727A      4.708111   728A      4.718028  
     729A      4.728621   730A      4.746891   731A      4.760000  
     732A      4.767137   733A      4.776324   734A      4.784122  
     735A      4.796289   736A      4.803569   737A      4.804884  
     738A      4.815661   739A      4.833111   740A      4.843974  
     741A      4.854357   742A      4.870705   743A      4.881548  
     744A      4.887827   745A      4.898338   746A      4.909421  
     747A      4.914713   748A      4.917201   749A      4.933260  
     750A      4.936901   751A      4.955565   752A      4.967522  
     753A      4.972659   754A      4.990972   755A      5.005331  
     756A      5.008931   757A      5.013962   758A      5.027109  
     759A      5.050609   760A      5.062065   761A      5.070123  
     762A      5.082831   763A      5.091073   764A      5.103689  
     765A      5.116224   766A      5.123350   767A      5.127235  
     768A      5.140833   769A      5.155228   770A      5.165529  
     771A      5.170119   772A      5.182178   773A      5.188383  
     774A      5.196373   775A      5.208551   776A      5.216865  
     777A      5.233706   778A      5.244643   779A      5.250714  
     780A      5.262904   781A      5.276336   782A      5.287429  
     783A      5.303252   784A      5.312581   785A      5.317808  
     786A      5.333996   787A      5.339629   788A      5.341010  
     789A      5.353190   790A      5.368835   791A      5.388942  
     792A      5.392950   793A      5.408888   794A      5.423709  
     795A      5.439278   796A      5.448704   797A      5.460935  
     798A      5.467106   799A      5.485868   800A      5.494334  
     801A      5.501878   802A      5.536366   803A      5.546227  
     804A      5.564001   805A      5.579411   806A      5.596232  
     807A      5.619433   808A      5.626485   809A      5.639468  
     810A      5.648981   811A      5.677125   812A      5.688417  
     813A      5.712524   814A      5.721740   815A      5.737799  
     816A      5.752397   817A      5.763267   818A      5.769008  
     819A      5.776832   820A      5.786154   821A      5.805896  
     822A      5.814467   823A      5.831000   824A      5.857978  
     825A      5.868954   826A      5.893185   827A      5.930284  
     828A      5.937483   829A      5.980043   830A      6.019367  
     831A      6.045591   832A      6.093157   833A      6.099807  
     834A      6.111656   835A      6.133379   836A      6.161410  
     837A      6.177044   838A      6.187132   839A      6.213620  
     840A      6.231362   841A      6.242980   842A      6.259937  
     843A      6.273401   844A      6.296409   845A      6.308320  
     846A      6.334306   847A      6.370987   848A      6.396590  
     849A      6.410407   850A      6.424472   851A      6.484427  
     852A      6.499473   853A      6.535712   854A      6.563017  
     855A      6.588825   856A      6.614331   857A      6.654410  
     858A      6.716245   859A      6.776976   860A      6.788119  
     861A      6.807905   862A      6.842599   863A      6.866117  
     864A      6.897276   865A      6.911982   866A      6.921572  
     867A      6.947144   868A      6.988016   869A      7.029647  
     870A      7.053127   871A      7.065902   872A      7.088365  
     873A      7.151029   874A      7.220513   875A      7.311110  
     876A      7.333031   877A      7.522814   878A      7.552906  
     879A      7.633282   880A      7.729404   881A      7.859968  
     882A      7.934447   883A      8.024701   884A      8.108519  
     885A     16.071279   886A     16.483897   887A     16.962927  
     888A     17.477471   889A     18.347212   890A     18.659450  
     891A     19.097990   892A     19.415240   893A     19.957098  
     894A     20.173479   895A     21.110177   896A     21.610844  
     897A     21.789705  

    Final Occupation by Irrep:
              A 
    DOCC [    47 ]

  @DF-RHF Final Energy:  -553.64043927106241

   => Energetics <=

    Nuclear Repulsion Energy =            795.4436039232849680
    One-Electron Energy =               -2330.7305739705816450
    Two-Electron Energy =                 981.6465307762341581
    Total Energy =                       -553.6404392710624052

Computation Completed

*** tstop() called on c402-023.stampede2.tacc.utexas.edu at Sun Feb 28 22:18:22 2021
Module time:
	user time   =    1521.84 seconds =      25.36 minutes
	system time =      75.34 seconds =       1.26 minutes
	total time  =         74 seconds =       1.23 minutes
Total time:
	user time   =    1521.84 seconds =      25.36 minutes
	system time =      75.34 seconds =       1.26 minutes
	total time  =         74 seconds =       1.23 minutes
   => Loading Basis Set <=

    Name: (AUG-CC-PVTZ AUX)
    Role: RIFIT
    Keyword: DF_BASIS_MP2
    atoms 1     entry O          line   264 file /home1/07844/xy3866/miniconda3/envs/p4env/share/psi4/basis/aug-cc-pvtz-ri.gbs 
    atoms 2     entry N          line   206 file /home1/07844/xy3866/miniconda3/envs/p4env/share/psi4/basis/aug-cc-pvtz-ri.gbs 
    atoms 3-13  entry C          line   148 file /home1/07844/xy3866/miniconda3/envs/p4env/share/psi4/basis/aug-cc-pvtz-ri.gbs 
    atoms 14-26 entry H          line    30 file /home1/07844/xy3866/miniconda3/envs/p4env/share/psi4/basis/aug-cc-pvtz-ri.gbs 


*** tstart() called on c402-023.stampede2.tacc.utexas.edu
*** at Sun Feb 28 22:18:23 2021


  //>>>>>>>>>>>>>>>>>>>>>>>>>>>>>>>>>>>//
  //               DFMP2               //
  //<<<<<<<<<<<<<<<<<<<<<<<<<<<<<<<<<<<//

	 --------------------------------------------------------
	                          DF-MP2                         
	      2nd-Order Density-Fitted Moller-Plesset Theory     
	              RMP2 Wavefunction,  32 Threads             
	                                                         
	        Rob Parrish, Justin Turney, Andy Simmonett,      
	           Ed Hohenstein, and C. David Sherrill          
	 --------------------------------------------------------

   => Auxiliary Basis Set <=

  Basis Set: (AUG-CC-PVTZ AUX)
    Blend: AUG-CC-PVTZ-RI
    Number of shells: 546
    Number of basis functions: 1976
    Number of Cartesian functions: 2483
    Spherical Harmonics?: true
    Max angular momentum: 4

	 --------------------------------------------------------
	                 NBF =   897, NAUX =  1976
	 --------------------------------------------------------
	   CLASS    FOCC     OCC    AOCC    AVIR     VIR    FVIR
	   PAIRS       0      47      47     850     850       0
	 --------------------------------------------------------

  DFHelper Memory: AOs need 11.340 GiB; user supplied 22.352 GiB. Using in-core AOs.


         ------------------------------------------------------------
                                     CPHF                           
                                  Rob Parrish                       
         ------------------------------------------------------------

  ==> Geometry <==

    Molecular point group: c1
    Full point group: C1

    Geometry (in Angstrom), charge = 0, multiplicity = 1:

       Center              X                  Y                   Z               Mass       
    ------------   -----------------  -----------------  -----------------  -----------------
         O            0.326841738348     2.355756186742    -1.027755771662    15.994914619570
         N            1.802067738348     1.234030186742     0.300694228338    14.003074004430
         C            1.532109038348    -1.398332513258    -0.792787471662    12.000000000000
         C            2.521985738348    -1.142017813258     0.375295228338    12.000000000000
         C            0.107419738348    -1.099100813258    -0.395079771662    12.000000000000
         C           -0.345608261652     0.214170186742    -0.152243771662    12.000000000000
         C            2.163777738348     0.120112186742     1.163830228338    12.000000000000
         C           -1.683567261652     0.473004186742     0.202180228338    12.000000000000
         C            0.601224738348     1.364718186742    -0.342958771662    12.000000000000
         C           -0.791975261652    -2.160737813258    -0.253966771662    12.000000000000
         C           -2.549849261652    -0.617206813258     0.342410228338    12.000000000000
         C           -2.115686261652    -1.923079813258     0.112168228338    12.000000000000
         C           -2.186839261652     1.875299186742     0.433637228338    12.000000000000
         H            1.644308738348    -2.363452813258    -1.186812771662     1.007825032230
         H            1.816024738348    -0.665680813258    -1.604546771662     1.007825032230
         H            2.492250738348    -2.001368813258     1.056935228338     1.007825032230
         H            3.543404738348    -1.073110813258    -0.017919771662     1.007825032230
         H            1.320841738348    -0.089579813258     1.829315228338     1.007825032230
         H            2.998272738348     0.440847186742     1.794503228338     1.007825032230
         H            2.456835738348     1.991630186742     0.137738228338     1.007825032230
         H           -0.453315261652    -3.177519813258    -0.446901771662     1.007825032230
         H           -3.585130261652    -0.436887813258     0.626475228338     1.007825032230
         H           -2.809255261652    -2.753987813258     0.220922228338     1.007825032230
         H           -1.539728261652     2.426358186742     1.122291228338     1.007825032230
         H           -2.207168261652     2.440123186742    -0.500717771662     1.007825032230
         H           -3.194957261652     1.847081186742     0.856699228338     1.007825032230

  Nuclear repulsion =  795.443603923284968
  Reference energy  = -553.640439271062405

  ==> Basis Set <==

  Basis Set: AUG-CC-PVTZ
    Blend: AUG-CC-PVTZ
    Number of shells: 299
    Number of basis functions: 897
    Number of Cartesian functions: 1040
    Spherical Harmonics?: true
    Max angular momentum: 3

  ==> CGRSolver (by Rob Parrish) <==

   Number of roots    =         1
   Preconditioning    =    JACOBI
   Convergence cutoff =     1E-06
   Maximum iterations =       100

  ==> CPHFRHamiltonian (by Rob Parrish) <== 

  ==> MemDFJK: Density-Fitted J/K Matrices <==

    J tasked:                   Yes
    K tasked:                   Yes
    wK tasked:                   No
    OpenMP threads:              32
    Memory [MiB]:             22888
    Algorithm:                 Core
    Schwarz Cutoff:           1E-12
    Mask sparsity (%):       6.2567
    Fitting Condition:        1E-10

   => Auxiliary Basis Set <=

  Basis Set: (AUG-CC-PVTZ AUX)
    Blend: AUG-CC-PVTZ-JKFIT
    Number of shells: 572
    Number of basis functions: 1950
    Number of Cartesian functions: 2418
    Spherical Harmonics?: true
    Max angular momentum: 4

  ==> CPHF Iterations <==

  => Iterations <=

             Iter  Converged  Remaining    Residual
  CGR           1          0          1   1.197E-01
  CGR           2          0          1   3.801E-02
  CGR           3          0          1   1.956E-02
  CGR           4          0          1   8.404E-03
  CGR           5          0          1   4.005E-03
  CGR           6          0          1   1.704E-03
  CGR           7          0          1   5.435E-04
  CGR           8          0          1   1.860E-04
  CGR           9          0          1   5.906E-05
  CGR          10          0          1   1.876E-05
  CGR          11          0          1   7.867E-06
  CGR          12          0          1   3.102E-06
  CGR          13          0          1   1.557E-06
  CGR          14          1          0   5.497E-07

    CGRSolver converged.

	-----------------------------------------------------------
	 ==================> DF-MP2 Energies <==================== 
	-----------------------------------------------------------
	 Reference Energy          =    -553.6404392710624052 [Eh]
	 Singles Energy            =      -0.0000000000000000 [Eh]
	 Same-Spin Energy          =      -0.6040536569987752 [Eh]
	 Opposite-Spin Energy      =      -1.9030106954241031 [Eh]
	 Correlation Energy        =      -2.5070643524228782 [Eh]
	 Total Energy              =    -556.1475036234852496 [Eh]
	-----------------------------------------------------------
	 ================> DF-SCS-MP2 Energies <================== 
	-----------------------------------------------------------
	 SCS Same-Spin Scale       =       0.3333333333333333 [-]
	 SCS Opposite-Spin Scale   =       1.2000000000000000 [-]
	 SCS Same-Spin Energy      =      -0.2013512189995917 [Eh]
	 SCS Opposite-Spin Energy  =      -2.2836128345089235 [Eh]
	 SCS Correlation Energy    =      -2.4849640535085151 [Eh]
	 SCS Total Energy          =    -556.1254033245709252 [Eh]
	-----------------------------------------------------------



Properties will be evaluated at   0.000000,  -0.000000,   0.000000 [a0]

Properties computed using the MP2 density matrix

  Nuclear Dipole Moment: [e a0]
     X:     2.3235      Y:    -3.1942      Z:     3.6391

  Electronic Dipole Moment: [e a0]
     X:    -1.6418      Y:     2.1869      Z:    -2.7704

  Dipole Moment: [e a0]
     X:     0.6817      Y:    -1.0074      Z:     0.8686     Total:     1.4947

  Dipole Moment: [D]
     X:     1.7327      Y:    -2.5605      Z:     2.2079     Total:     3.7991


*** tstop() called on c402-023.stampede2.tacc.utexas.edu at Sun Feb 28 22:25:57 2021
Module time:
	user time   =    4940.32 seconds =      82.34 minutes
	system time =     105.10 seconds =       1.75 minutes
	total time  =        454 seconds =       7.57 minutes
Total time:
	user time   =    6463.45 seconds =     107.72 minutes
	system time =     180.47 seconds =       3.01 minutes
	total time  =        529 seconds =       8.82 minutes

    Psi4 stopped on: Sunday, 28 February 2021 10:25PM
    Psi4 wall time for execution: 0:08:50.70

*** Psi4 exiting successfully. Buy a developer a beer!
