
    -----------------------------------------------------------------------
          Psi4: An Open-Source Ab Initio Electronic Structure Package
                               Psi4 1.4a3.dev225 

                         Git: Rev {master} 7105e37 


    D. G. A. Smith, L. A. Burns, A. C. Simmonett, R. M. Parrish,
    M. C. Schieber, R. Galvelis, P. Kraus, H. Kruse, R. Di Remigio,
    A. Alenaizan, A. M. James, S. Lehtola, J. P. Misiewicz, M. Scheurer,
    R. A. Shaw, J. B. Schriber, Y. Xie, Z. L. Glick, D. A. Sirianni,
    J. S. O'Brien, J. M. Waldrop, A. Kumar, E. G. Hohenstein,
    B. P. Pritchard, B. R. Brooks, H. F. Schaefer III, A. Yu. Sokolov,
    K. Patkowski, A. E. DePrince III, U. Bozkaya, R. A. King,
    F. A. Evangelista, J. M. Turney, T. D. Crawford, C. D. Sherrill,
    J. Chem. Phys. 152(18) 184108 (2020). https://doi.org/10.1063/5.0006002

                            Additional Code Authors
    E. T. Seidl, C. L. Janssen, E. F. Valeev, M. L. Leininger,
    J. F. Gonthier, R. M. Richard, H. R. McAlexander, M. Saitow, X. Wang,
    P. Verma, and M. H. Lechner

             Previous Authors, Complete List of Code Contributors,
                       and Citations for Specific Modules
    https://github.com/psi4/psi4/blob/master/codemeta.json
    https://github.com/psi4/psi4/graphs/contributors
    http://psicode.org/psi4manual/master/introduction.html#citing-psifour

    -----------------------------------------------------------------------


    Psi4 started on: Monday, 01 March 2021 02:56AM

    Process ID: 133688
    Host:       c402-023.stampede2.tacc.utexas.edu
    PSIDATADIR: /home1/07844/xy3866/miniconda3/envs/p4env/share/psi4
    Memory:     500.0 MiB
    Threads:    32
    
  ==> Input File <==

--------------------------------------------------------------------------
#psi4
#
memory 32 gb

molecule  {
0 1
  O        0.3130990     2.3704440    -1.0483590
  N        1.7883250     1.2487180     0.2800910
  C        1.5287440    -1.3320340    -0.8115580
  C        2.5082430    -1.1273300     0.3546920
  C        0.1111948    -1.1003277    -0.4216523
  C       -0.3593510     0.2288580    -0.1728470
  C        2.1500350     0.1348000     1.1432270
  C       -1.6973100     0.4876920     0.1815770
  C        0.5874820     1.3794060    -0.3635620
  C       -0.8057180    -2.1460500    -0.2745700
  C       -2.5635920    -0.6025190     0.3218070
  C       -2.1294290    -1.9083920     0.0915650
  C       -2.2005820     1.8899870     0.4130340
  H        1.6305660    -2.3487650    -1.2074160
  H        1.8022820    -0.6509930    -1.6251500
  H        2.4785080    -1.9866810     1.0363320
  H        3.5296620    -1.0584230    -0.0385230
  H        1.3070990    -0.0748920     1.8087120
  H        2.9845300     0.4555350     1.7739000
  H        2.4430930     2.0063180     0.1171350
  H       -0.4670580    -3.1628320    -0.4675050
  H       -3.5988730    -0.4222000     0.6058720
  H       -2.8229980    -2.7393000     0.2003190
  H       -1.5534710     2.4410460     1.1016880
  H       -2.2209110     2.4548110    -0.5213210
  H       -3.2087000     1.8617690     0.8360960
units angstrom
no_reorient  #important for SAPT in psi4, default
symmetry c1  #important for SAPT in psi4, default
}

set PROPERTIES_ORIGIN ["COM"]
properties('MP2/aug-cc-pvtz', properties = ['dipole'])
--------------------------------------------------------------------------

  Memory set to  29.802 GiB by Python driver.
    SCF Algorithm Type (re)set to DF.

*** tstart() called on c402-023.stampede2.tacc.utexas.edu
*** at Mon Mar  1 02:57:01 2021

   => Loading Basis Set <=

    Name: AUG-CC-PVTZ
    Role: ORBITAL
    Keyword: BASIS
    atoms 1     entry O          line   331 file /home1/07844/xy3866/miniconda3/envs/p4env/share/psi4/basis/aug-cc-pvtz.gbs 
    atoms 2     entry N          line   285 file /home1/07844/xy3866/miniconda3/envs/p4env/share/psi4/basis/aug-cc-pvtz.gbs 
    atoms 3-13  entry C          line   239 file /home1/07844/xy3866/miniconda3/envs/p4env/share/psi4/basis/aug-cc-pvtz.gbs 
    atoms 14-26 entry H          line    40 file /home1/07844/xy3866/miniconda3/envs/p4env/share/psi4/basis/aug-cc-pvtz.gbs 


         ---------------------------------------------------------
                                   SCF
               by Justin Turney, Rob Parrish, Andy Simmonett
                          and Daniel G. A. Smith
                              RHF Reference
                       32 Threads,  30517 MiB Core
         ---------------------------------------------------------

  ==> Geometry <==

    Molecular point group: c1
    Full point group: C1

    Geometry (in Angstrom), charge = 0, multiplicity = 1:

       Center              X                  Y                   Z               Mass       
    ------------   -----------------  -----------------  -----------------  -----------------
         O            0.324929993364     2.353309854934    -1.027472280622    15.994914619570
         N            1.800155993364     1.231583854934     0.300977719378    14.003074004430
         C            1.540574993364    -1.349168145066    -0.790671280622    12.000000000000
         C            2.520073993364    -1.144464145066     0.375578719378    12.000000000000
         C            0.123025793364    -1.117461845066    -0.400765580622    12.000000000000
         C           -0.347520006636     0.211723854934    -0.151960280622    12.000000000000
         C            2.161865993364     0.117665854934     1.164113719378    12.000000000000
         C           -1.685479006636     0.470557854934     0.202463719378    12.000000000000
         C            0.599312993364     1.362271854934    -0.342675280622    12.000000000000
         C           -0.793887006636    -2.163184145066    -0.253683280622    12.000000000000
         C           -2.551761006636    -0.619653145066     0.342693719378    12.000000000000
         C           -2.117598006636    -1.925526145066     0.112451719378    12.000000000000
         C           -2.188751006636     1.872852854934     0.433920719378    12.000000000000
         H            1.642396993364    -2.365899145066    -1.186529280622     1.007825032230
         H            1.814112993364    -0.668127145066    -1.604263280622     1.007825032230
         H            2.490338993364    -2.003815145066     1.057218719378     1.007825032230
         H            3.541492993364    -1.075557145066    -0.017636280622     1.007825032230
         H            1.318929993364    -0.092026145066     1.829598719378     1.007825032230
         H            2.996360993364     0.438400854934     1.794786719378     1.007825032230
         H            2.454923993364     1.989183854934     0.138021719378     1.007825032230
         H           -0.455227006636    -3.179966145066    -0.446618280622     1.007825032230
         H           -3.587042006636    -0.439334145066     0.626758719378     1.007825032230
         H           -2.811167006636    -2.756434145066     0.221205719378     1.007825032230
         H           -1.541640006636     2.423911854934     1.122574719378     1.007825032230
         H           -2.209080006636     2.437676854934    -0.500434280622     1.007825032230
         H           -3.196869006636     1.844634854934     0.856982719378     1.007825032230

  Running in c1 symmetry.

  Rotational constants: A =      0.03744  B =      0.02842  C =      0.01853 [cm^-1]
  Rotational constants: A =   1122.43576  B =    851.86168  C =    555.50744 [MHz]
  Nuclear repulsion =  795.753160444410696

  Charge       = 0
  Multiplicity = 1
  Electrons    = 94
  Nalpha       = 47
  Nbeta        = 47

  ==> Algorithm <==

  SCF Algorithm Type is DF.
  DIIS enabled.
  MOM disabled.
  Fractional occupation disabled.
  Guess Type is SAD.
  Energy threshold   = 1.00e-10
  Density threshold  = 1.00e-10
  Integral threshold = 1.00e-12

  ==> Primary Basis <==

  Basis Set: AUG-CC-PVTZ
    Blend: AUG-CC-PVTZ
    Number of shells: 299
    Number of basis functions: 897
    Number of Cartesian functions: 1040
    Spherical Harmonics?: true
    Max angular momentum: 3

   => Loading Basis Set <=

    Name: (AUG-CC-PVTZ AUX)
    Role: JKFIT
    Keyword: DF_BASIS_SCF
    atoms 1     entry O          line   286 file /home1/07844/xy3866/miniconda3/envs/p4env/share/psi4/basis/aug-cc-pvtz-jkfit.gbs 
    atoms 2     entry N          line   224 file /home1/07844/xy3866/miniconda3/envs/p4env/share/psi4/basis/aug-cc-pvtz-jkfit.gbs 
    atoms 3-13  entry C          line   162 file /home1/07844/xy3866/miniconda3/envs/p4env/share/psi4/basis/aug-cc-pvtz-jkfit.gbs 
    atoms 14-26 entry H          line    70 file /home1/07844/xy3866/miniconda3/envs/p4env/share/psi4/basis/aug-cc-pvtz-jkfit.gbs 

  ==> Integral Setup <==

  DFHelper Memory: AOs need 10.807 GiB; user supplied 22.352 GiB. Using in-core AOs.

  ==> MemDFJK: Density-Fitted J/K Matrices <==

    J tasked:                   Yes
    K tasked:                   Yes
    wK tasked:                   No
    OpenMP threads:              32
    Memory [MiB]:             22888
    Algorithm:                 Core
    Schwarz Cutoff:           1E-12
    Mask sparsity (%):      10.8236
    Fitting Condition:        1E-10

   => Auxiliary Basis Set <=

  Basis Set: (AUG-CC-PVTZ AUX)
    Blend: AUG-CC-PVTZ-JKFIT
    Number of shells: 572
    Number of basis functions: 1950
    Number of Cartesian functions: 2418
    Spherical Harmonics?: true
    Max angular momentum: 4

  Minimum eigenvalue in the overlap matrix is 3.6057123931E-07.
  Reciprocal condition number of the overlap matrix is 1.5108348953E-08.
    Using symmetric orthogonalization.

  ==> Pre-Iterations <==

  SCF Guess: Superposition of Atomic Densities via on-the-fly atomic UHF (no occupation information).

   -------------------------
    Irrep   Nso     Nmo    
   -------------------------
     A        897     897 
   -------------------------
    Total     897     897
   -------------------------

  ==> Iterations <==

                           Total Energy        Delta E     RMS |[F,P]|

   @DF-RHF iter SAD:  -553.49474108054790   -5.53495e+02   0.00000e+00 
   @DF-RHF iter   1:  -553.23380868109268    2.60932e-01   9.30529e-04 DIIS
   @DF-RHF iter   2:  -553.56031337511831   -3.26505e-01   4.70767e-04 DIIS
   @DF-RHF iter   3:  -553.63570546365031   -7.53921e-02   1.00554e-04 DIIS
   @DF-RHF iter   4:  -553.64094039171755   -5.23493e-03   4.30605e-05 DIIS
   @DF-RHF iter   5:  -553.64170943661361   -7.69045e-04   9.54461e-06 DIIS
   @DF-RHF iter   6:  -553.64177605358327   -6.66170e-05   4.47894e-06 DIIS
   @DF-RHF iter   7:  -553.64179094474503   -1.48912e-05   1.65142e-06 DIIS
   @DF-RHF iter   8:  -553.64179439521899   -3.45047e-06   8.31778e-07 DIIS
   @DF-RHF iter   9:  -553.64179518559069   -7.90372e-07   3.12393e-07 DIIS
   @DF-RHF iter  10:  -553.64179532901994   -1.43429e-07   1.01094e-07 DIIS
   @DF-RHF iter  11:  -553.64179534378854   -1.47686e-08   4.29056e-08 DIIS
   @DF-RHF iter  12:  -553.64179534677123   -2.98269e-09   2.06638e-08 DIIS
   @DF-RHF iter  13:  -553.64179534761706   -8.45830e-10   9.56115e-09 DIIS
   @DF-RHF iter  14:  -553.64179534780874   -1.91676e-10   4.53489e-09 DIIS
   @DF-RHF iter  15:  -553.64179534784103   -3.22871e-11   1.70257e-09 DIIS
   @DF-RHF iter  16:  -553.64179534784307   -2.04636e-12   6.74623e-10 DIIS
   @DF-RHF iter  17:  -553.64179534784353   -4.54747e-13   2.03303e-10 DIIS
   @DF-RHF iter  18:  -553.64179534784421   -6.82121e-13   7.43930e-11 DIIS
  Energy and wave function converged.


  ==> Post-Iterations <==

    Orbital Energies [Eh]
    ---------------------

    Doubly Occupied:                                                      

       1A    -20.512360     2A    -15.582914     3A    -11.349870  
       4A    -11.274990     5A    -11.255720     6A    -11.253479  
       7A    -11.244561     8A    -11.243716     9A    -11.238176  
      10A    -11.237419    11A    -11.235526    12A    -11.233103  
      13A    -11.215912    14A     -1.367261    15A     -1.235238  
      16A     -1.162257    17A     -1.087058    18A     -1.044453  
      19A     -1.027678    20A     -0.943320    21A     -0.933667  
      22A     -0.874272    23A     -0.830762    24A     -0.785010  
      25A     -0.767451    26A     -0.694028    27A     -0.683167  
      28A     -0.660620    29A     -0.658813    30A     -0.618913  
      31A     -0.615853    32A     -0.591076    33A     -0.584054  
      34A     -0.569846    35A     -0.566043    36A     -0.553825  
      37A     -0.531969    38A     -0.530275    39A     -0.514142  
      40A     -0.505866    41A     -0.487983    42A     -0.478616  
      43A     -0.475906    44A     -0.416806    45A     -0.385985  
      46A     -0.334233    47A     -0.327681  

    Virtual:                                                              

      48A      0.023694    49A      0.028971    50A      0.030836  
      51A      0.037402    52A      0.042060    53A      0.043743  
      54A      0.052723    55A      0.056244    56A      0.056498  
      57A      0.060473    58A      0.065766    59A      0.072729  
      60A      0.080193    61A      0.090002    62A      0.096136  
      63A      0.097937    64A      0.100827    65A      0.105239  
      66A      0.107690    67A      0.111848    68A      0.115991  
      69A      0.117457    70A      0.119342    71A      0.123868  
      72A      0.124708    73A      0.128138    74A      0.131585  
      75A      0.134456    76A      0.138515    77A      0.143690  
      78A      0.144734    79A      0.145459    80A      0.149371  
      81A      0.153851    82A      0.157047    83A      0.161601  
      84A      0.166076    85A      0.166906    86A      0.169423  
      87A      0.173764    88A      0.179218    89A      0.183629  
      90A      0.187392    91A      0.190681    92A      0.198596  
      93A      0.203730    94A      0.207086    95A      0.212561  
      96A      0.214261    97A      0.226316    98A      0.228270  
      99A      0.232538   100A      0.235743   101A      0.241185  
     102A      0.244551   103A      0.248089   104A      0.253889  
     105A      0.254750   106A      0.261110   107A      0.266211  
     108A      0.274835   109A      0.278709   110A      0.282757  
     111A      0.283735   112A      0.286918   113A      0.292286  
     114A      0.293885   115A      0.299676   116A      0.300832  
     117A      0.310934   118A      0.314495   119A      0.316981  
     120A      0.320951   121A      0.326002   122A      0.326928  
     123A      0.329350   124A      0.332284   125A      0.335260  
     126A      0.338077   127A      0.345002   128A      0.348029  
     129A      0.354355   130A      0.358229   131A      0.362937  
     132A      0.364111   133A      0.368835   134A      0.372857  
     135A      0.376359   136A      0.380807   137A      0.384347  
     138A      0.389388   139A      0.395380   140A      0.398763  
     141A      0.401601   142A      0.405635   143A      0.412609  
     144A      0.416795   145A      0.418734   146A      0.425566  
     147A      0.426271   148A      0.431511   149A      0.435047  
     150A      0.442908   151A      0.444940   152A      0.447519  
     153A      0.448368   154A      0.450743   155A      0.457282  
     156A      0.458302   157A      0.465753   158A      0.468714  
     159A      0.469215   160A      0.470743   161A      0.474684  
     162A      0.475268   163A      0.479440   164A      0.481448  
     165A      0.485509   166A      0.491714   167A      0.495922  
     168A      0.497581   169A      0.503997   170A      0.507123  
     171A      0.509653   172A      0.511088   173A      0.517146  
     174A      0.519849   175A      0.523774   176A      0.527231  
     177A      0.533862   178A      0.534914   179A      0.540377  
     180A      0.542837   181A      0.545696   182A      0.550022  
     183A      0.553426   184A      0.558183   185A      0.560725  
     186A      0.561318   187A      0.568329   188A      0.572358  
     189A      0.576982   190A      0.577946   191A      0.585125  
     192A      0.588536   193A      0.591167   194A      0.597097  
     195A      0.602754   196A      0.606858   197A      0.609541  
     198A      0.613164   199A      0.617812   200A      0.618172  
     201A      0.622548   202A      0.627785   203A      0.639423  
     204A      0.640693   205A      0.649318   206A      0.654398  
     207A      0.656008   208A      0.657752   209A      0.664047  
     210A      0.668689   211A      0.678382   212A      0.684177  
     213A      0.685764   214A      0.690361   215A      0.699520  
     216A      0.701045   217A      0.709086   218A      0.714116  
     219A      0.724500   220A      0.729544   221A      0.734291  
     222A      0.738288   223A      0.744748   224A      0.750103  
     225A      0.751145   226A      0.757099   227A      0.764856  
     228A      0.767632   229A      0.770384   230A      0.778896  
     231A      0.785082   232A      0.791593   233A      0.792932  
     234A      0.805628   235A      0.806882   236A      0.816519  
     237A      0.824133   238A      0.827953   239A      0.838203  
     240A      0.843539   241A      0.846784   242A      0.850241  
     243A      0.853549   244A      0.858423   245A      0.862976  
     246A      0.866873   247A      0.872082   248A      0.873811  
     249A      0.880246   250A      0.885586   251A      0.890004  
     252A      0.895180   253A      0.901413   254A      0.907711  
     255A      0.913326   256A      0.914921   257A      0.924533  
     258A      0.926563   259A      0.930920   260A      0.936624  
     261A      0.941652   262A      0.942753   263A      0.953560  
     264A      0.955691   265A      0.960231   266A      0.968019  
     267A      0.973008   268A      0.974124   269A      0.980857  
     270A      0.983086   271A      0.986731   272A      0.990470  
     273A      0.990931   274A      0.997240   275A      0.997279  
     276A      1.005354   277A      1.007518   278A      1.012384  
     279A      1.015794   280A      1.021967   281A      1.023529  
     282A      1.033292   283A      1.037175   284A      1.042087  
     285A      1.044254   286A      1.047294   287A      1.058932  
     288A      1.061699   289A      1.068041   290A      1.071817  
     291A      1.072889   292A      1.084309   293A      1.086657  
     294A      1.088012   295A      1.093521   296A      1.096775  
     297A      1.103634   298A      1.106680   299A      1.112420  
     300A      1.115471   301A      1.120544   302A      1.126481  
     303A      1.131136   304A      1.135827   305A      1.137444  
     306A      1.143981   307A      1.147504   308A      1.156302  
     309A      1.158315   310A      1.163059   311A      1.168161  
     312A      1.169020   313A      1.175572   314A      1.178650  
     315A      1.185434   316A      1.190031   317A      1.196424  
     318A      1.198812   319A      1.203046   320A      1.204109  
     321A      1.207521   322A      1.213610   323A      1.216469  
     324A      1.222145   325A      1.228009   326A      1.232510  
     327A      1.238107   328A      1.245222   329A      1.249660  
     330A      1.254959   331A      1.256095   332A      1.262102  
     333A      1.270914   334A      1.272374   335A      1.280398  
     336A      1.287073   337A      1.292219   338A      1.296113  
     339A      1.300794   340A      1.307570   341A      1.310626  
     342A      1.317586   343A      1.318189   344A      1.333055  
     345A      1.338810   346A      1.346761   347A      1.357899  
     348A      1.361334   349A      1.375136   350A      1.378593  
     351A      1.389399   352A      1.392208   353A      1.394989  
     354A      1.400141   355A      1.408723   356A      1.411726  
     357A      1.413751   358A      1.424594   359A      1.431117  
     360A      1.435053   361A      1.435878   362A      1.446301  
     363A      1.456237   364A      1.460681   365A      1.467596  
     366A      1.477352   367A      1.484303   368A      1.487390  
     369A      1.489742   370A      1.497284   371A      1.499241  
     372A      1.504947   373A      1.512482   374A      1.521164  
     375A      1.529859   376A      1.535263   377A      1.540441  
     378A      1.547677   379A      1.550094   380A      1.560739  
     381A      1.569536   382A      1.573153   383A      1.577222  
     384A      1.581135   385A      1.588205   386A      1.599396  
     387A      1.602539   388A      1.609474   389A      1.612377  
     390A      1.621063   391A      1.625720   392A      1.627522  
     393A      1.632623   394A      1.640178   395A      1.651437  
     396A      1.652385   397A      1.664804   398A      1.668884  
     399A      1.673285   400A      1.676378   401A      1.684955  
     402A      1.696614   403A      1.698844   404A      1.700549  
     405A      1.713060   406A      1.720520   407A      1.722156  
     408A      1.736717   409A      1.738622   410A      1.740814  
     411A      1.748594   412A      1.753599   413A      1.760875  
     414A      1.765774   415A      1.772936   416A      1.775790  
     417A      1.778050   418A      1.782566   419A      1.793699  
     420A      1.801270   421A      1.805731   422A      1.817474  
     423A      1.826865   424A      1.831752   425A      1.838703  
     426A      1.845222   427A      1.848732   428A      1.853597  
     429A      1.859577   430A      1.865809   431A      1.873605  
     432A      1.881016   433A      1.885185   434A      1.890158  
     435A      1.894882   436A      1.900479   437A      1.903185  
     438A      1.914775   439A      1.918423   440A      1.929416  
     441A      1.937159   442A      1.951002   443A      1.957020  
     444A      1.958495   445A      1.966158   446A      1.969656  
     447A      1.978110   448A      1.983670   449A      2.000741  
     450A      2.004674   451A      2.012036   452A      2.017084  
     453A      2.021066   454A      2.026258   455A      2.037320  
     456A      2.041645   457A      2.050069   458A      2.053536  
     459A      2.061756   460A      2.068680   461A      2.078272  
     462A      2.081244   463A      2.090015   464A      2.100498  
     465A      2.107631   466A      2.114890   467A      2.119272  
     468A      2.128278   469A      2.133002   470A      2.139017  
     471A      2.146435   472A      2.151436   473A      2.161258  
     474A      2.163109   475A      2.168179   476A      2.175683  
     477A      2.183572   478A      2.192427   479A      2.202933  
     480A      2.210791   481A      2.215752   482A      2.219311  
     483A      2.241725   484A      2.250447   485A      2.251540  
     486A      2.264174   487A      2.267365   488A      2.275392  
     489A      2.285187   490A      2.289507   491A      2.292750  
     492A      2.299570   493A      2.309842   494A      2.314350  
     495A      2.318800   496A      2.323846   497A      2.333358  
     498A      2.345174   499A      2.351985   500A      2.358969  
     501A      2.366179   502A      2.377379   503A      2.388194  
     504A      2.398907   505A      2.406328   506A      2.417475  
     507A      2.429357   508A      2.434215   509A      2.445882  
     510A      2.456981   511A      2.463404   512A      2.480427  
     513A      2.486523   514A      2.496385   515A      2.499461  
     516A      2.518048   517A      2.526016   518A      2.535485  
     519A      2.535894   520A      2.554285   521A      2.561323  
     522A      2.570902   523A      2.581046   524A      2.604495  
     525A      2.608712   526A      2.616593   527A      2.620485  
     528A      2.638947   529A      2.646117   530A      2.649190  
     531A      2.668137   532A      2.673663   533A      2.691575  
     534A      2.705300   535A      2.708398   536A      2.722972  
     537A      2.739094   538A      2.745069   539A      2.763078  
     540A      2.769870   541A      2.785577   542A      2.789856  
     543A      2.805149   544A      2.830588   545A      2.831662  
     546A      2.850540   547A      2.863388   548A      2.882045  
     549A      2.888758   550A      2.912329   551A      2.917864  
     552A      2.938345   553A      2.958471   554A      2.968335  
     555A      2.990916   556A      3.016288   557A      3.028401  
     558A      3.069593   559A      3.095297   560A      3.138617  
     561A      3.152701   562A      3.174574   563A      3.202721  
     564A      3.203474   565A      3.214357   566A      3.230200  
     567A      3.256815   568A      3.274311   569A      3.285033  
     570A      3.306091   571A      3.329637   572A      3.345060  
     573A      3.372998   574A      3.377460   575A      3.389059  
     576A      3.406162   577A      3.415702   578A      3.441112  
     579A      3.443412   580A      3.449406   581A      3.469140  
     582A      3.480300   583A      3.490280   584A      3.501811  
     585A      3.507919   586A      3.519571   587A      3.522690  
     588A      3.525016   589A      3.535144   590A      3.545012  
     591A      3.556642   592A      3.568188   593A      3.576606  
     594A      3.578347   595A      3.593451   596A      3.606010  
     597A      3.616155   598A      3.623424   599A      3.636729  
     600A      3.648169   601A      3.649553   602A      3.653122  
     603A      3.657790   604A      3.676925   605A      3.685073  
     606A      3.699038   607A      3.707260   608A      3.708135  
     609A      3.712938   610A      3.725147   611A      3.732795  
     612A      3.745298   613A      3.751733   614A      3.757248  
     615A      3.772339   616A      3.781090   617A      3.784607  
     618A      3.786194   619A      3.797572   620A      3.806340  
     621A      3.813773   622A      3.835319   623A      3.841381  
     624A      3.843951   625A      3.850771   626A      3.855163  
     627A      3.862938   628A      3.869889   629A      3.874312  
     630A      3.887416   631A      3.891436   632A      3.900206  
     633A      3.903554   634A      3.914960   635A      3.922205  
     636A      3.932964   637A      3.936410   638A      3.948972  
     639A      3.959077   640A      3.965072   641A      3.972144  
     642A      3.976224   643A      3.986107   644A      3.994470  
     645A      4.002332   646A      4.006581   647A      4.009135  
     648A      4.025422   649A      4.031495   650A      4.038500  
     651A      4.048031   652A      4.051527   653A      4.060780  
     654A      4.062428   655A      4.073924   656A      4.082912  
     657A      4.091048   658A      4.100466   659A      4.104815  
     660A      4.105579   661A      4.125524   662A      4.131803  
     663A      4.144315   664A      4.150556   665A      4.157488  
     666A      4.172053   667A      4.174419   668A      4.186366  
     669A      4.191674   670A      4.197341   671A      4.212563  
     672A      4.219080   673A      4.231798   674A      4.240168  
     675A      4.250337   676A      4.255117   677A      4.262681  
     678A      4.269071   679A      4.272878   680A      4.289990  
     681A      4.303649   682A      4.305223   683A      4.311048  
     684A      4.320720   685A      4.333652   686A      4.340400  
     687A      4.344087   688A      4.356320   689A      4.366872  
     690A      4.372145   691A      4.382379   692A      4.385307  
     693A      4.395994   694A      4.406860   695A      4.411587  
     696A      4.417974   697A      4.419302   698A      4.435241  
     699A      4.442003   700A      4.452061   701A      4.462162  
     702A      4.475120   703A      4.479567   704A      4.485964  
     705A      4.496153   706A      4.502175   707A      4.514151  
     708A      4.519348   709A      4.535641   710A      4.545376  
     711A      4.559177   712A      4.567261   713A      4.584686  
     714A      4.591043   715A      4.599978   716A      4.607499  
     717A      4.610441   718A      4.619695   719A      4.630300  
     720A      4.646661   721A      4.654166   722A      4.667856  
     723A      4.673460   724A      4.678607   725A      4.684023  
     726A      4.697319   727A      4.712009   728A      4.718784  
     729A      4.735018   730A      4.747678   731A      4.755690  
     732A      4.768558   733A      4.778824   734A      4.785943  
     735A      4.794558   736A      4.808123   737A      4.812288  
     738A      4.819601   739A      4.836267   740A      4.841144  
     741A      4.846680   742A      4.866030   743A      4.876847  
     744A      4.887503   745A      4.897706   746A      4.911548  
     747A      4.915120   748A      4.920580   749A      4.931944  
     750A      4.936401   751A      4.955380   752A      4.964502  
     753A      4.972501   754A      4.994001   755A      5.002675  
     756A      5.006801   757A      5.012038   758A      5.028964  
     759A      5.051559   760A      5.064436   761A      5.076081  
     762A      5.086438   763A      5.094155   764A      5.105495  
     765A      5.116795   766A      5.118670   767A      5.129057  
     768A      5.142555   769A      5.161909   770A      5.164370  
     771A      5.173014   772A      5.180860   773A      5.189381  
     774A      5.196228   775A      5.210130   776A      5.222699  
     777A      5.227730   778A      5.243429   779A      5.251899  
     780A      5.266492   781A      5.277024   782A      5.287889  
     783A      5.300614   784A      5.312056   785A      5.327845  
     786A      5.335545   787A      5.344483   788A      5.349217  
     789A      5.353082   790A      5.367305   791A      5.377258  
     792A      5.392769   793A      5.419557   794A      5.426570  
     795A      5.429802   796A      5.452512   797A      5.462073  
     798A      5.469261   799A      5.486336   800A      5.493463  
     801A      5.506958   802A      5.521870   803A      5.546903  
     804A      5.566853   805A      5.579039   806A      5.599901  
     807A      5.616352   808A      5.621651   809A      5.634392  
     810A      5.644906   811A      5.673544   812A      5.688067  
     813A      5.708668   814A      5.727566   815A      5.737527  
     816A      5.747139   817A      5.763259   818A      5.770766  
     819A      5.781062   820A      5.787252   821A      5.805204  
     822A      5.813188   823A      5.834673   824A      5.840072  
     825A      5.865144   826A      5.898276   827A      5.931291  
     828A      5.952474   829A      5.984222   830A      6.016502  
     831A      6.048191   832A      6.085161   833A      6.102238  
     834A      6.122026   835A      6.146306   836A      6.163131  
     837A      6.169275   838A      6.187656   839A      6.211062  
     840A      6.223791   841A      6.239331   842A      6.251847  
     843A      6.267633   844A      6.296147   845A      6.307988  
     846A      6.337333   847A      6.365778   848A      6.387156  
     849A      6.410594   850A      6.429216   851A      6.480572  
     852A      6.489833   853A      6.526319   854A      6.562786  
     855A      6.597571   856A      6.618028   857A      6.655989  
     858A      6.729860   859A      6.777428   860A      6.788140  
     861A      6.808191   862A      6.845666   863A      6.867471  
     864A      6.897933   865A      6.915847   866A      6.925390  
     867A      6.944238   868A      6.984914   869A      7.029087  
     870A      7.053685   871A      7.070179   872A      7.100818  
     873A      7.149417   874A      7.209802   875A      7.310436  
     876A      7.333130   877A      7.523720   878A      7.553288  
     879A      7.636706   880A      7.728200   881A      7.859525  
     882A      7.932645   883A      8.024395   884A      8.108085  
     885A     16.020178   886A     16.496998   887A     16.945274  
     888A     17.456294   889A     18.271018   890A     18.707460  
     891A     19.089181   892A     19.356406   893A     19.898381  
     894A     20.194015   895A     21.198883   896A     21.670361  
     897A     21.751244  

    Final Occupation by Irrep:
              A 
    DOCC [    47 ]

  @DF-RHF Final Energy:  -553.64179534784421

   => Energetics <=

    Nuclear Repulsion Energy =            795.7531604444106961
    One-Electron Energy =               -2331.3461715011267188
    Two-Electron Energy =                 981.9512157088718141
    Total Energy =                       -553.6417953478442087

Computation Completed

*** tstop() called on c402-023.stampede2.tacc.utexas.edu at Mon Mar  1 02:58:16 2021
Module time:
	user time   =    1547.80 seconds =      25.80 minutes
	system time =      77.09 seconds =       1.28 minutes
	total time  =         75 seconds =       1.25 minutes
Total time:
	user time   =    1547.80 seconds =      25.80 minutes
	system time =      77.09 seconds =       1.28 minutes
	total time  =         75 seconds =       1.25 minutes
   => Loading Basis Set <=

    Name: (AUG-CC-PVTZ AUX)
    Role: RIFIT
    Keyword: DF_BASIS_MP2
    atoms 1     entry O          line   264 file /home1/07844/xy3866/miniconda3/envs/p4env/share/psi4/basis/aug-cc-pvtz-ri.gbs 
    atoms 2     entry N          line   206 file /home1/07844/xy3866/miniconda3/envs/p4env/share/psi4/basis/aug-cc-pvtz-ri.gbs 
    atoms 3-13  entry C          line   148 file /home1/07844/xy3866/miniconda3/envs/p4env/share/psi4/basis/aug-cc-pvtz-ri.gbs 
    atoms 14-26 entry H          line    30 file /home1/07844/xy3866/miniconda3/envs/p4env/share/psi4/basis/aug-cc-pvtz-ri.gbs 


*** tstart() called on c402-023.stampede2.tacc.utexas.edu
*** at Mon Mar  1 02:58:18 2021


  //>>>>>>>>>>>>>>>>>>>>>>>>>>>>>>>>>>>//
  //               DFMP2               //
  //<<<<<<<<<<<<<<<<<<<<<<<<<<<<<<<<<<<//

	 --------------------------------------------------------
	                          DF-MP2                         
	      2nd-Order Density-Fitted Moller-Plesset Theory     
	              RMP2 Wavefunction,  32 Threads             
	                                                         
	        Rob Parrish, Justin Turney, Andy Simmonett,      
	           Ed Hohenstein, and C. David Sherrill          
	 --------------------------------------------------------

   => Auxiliary Basis Set <=

  Basis Set: (AUG-CC-PVTZ AUX)
    Blend: AUG-CC-PVTZ-RI
    Number of shells: 546
    Number of basis functions: 1976
    Number of Cartesian functions: 2483
    Spherical Harmonics?: true
    Max angular momentum: 4

	 --------------------------------------------------------
	                 NBF =   897, NAUX =  1976
	 --------------------------------------------------------
	   CLASS    FOCC     OCC    AOCC    AVIR     VIR    FVIR
	   PAIRS       0      47      47     850     850       0
	 --------------------------------------------------------

  DFHelper Memory: AOs need 11.341 GiB; user supplied 22.352 GiB. Using in-core AOs.


         ------------------------------------------------------------
                                     CPHF                           
                                  Rob Parrish                       
         ------------------------------------------------------------

  ==> Geometry <==

    Molecular point group: c1
    Full point group: C1

    Geometry (in Angstrom), charge = 0, multiplicity = 1:

       Center              X                  Y                   Z               Mass       
    ------------   -----------------  -----------------  -----------------  -----------------
         O            0.324929993364     2.353309854934    -1.027472280622    15.994914619570
         N            1.800155993364     1.231583854934     0.300977719378    14.003074004430
         C            1.540574993364    -1.349168145066    -0.790671280622    12.000000000000
         C            2.520073993364    -1.144464145066     0.375578719378    12.000000000000
         C            0.123025793364    -1.117461845066    -0.400765580622    12.000000000000
         C           -0.347520006636     0.211723854934    -0.151960280622    12.000000000000
         C            2.161865993364     0.117665854934     1.164113719378    12.000000000000
         C           -1.685479006636     0.470557854934     0.202463719378    12.000000000000
         C            0.599312993364     1.362271854934    -0.342675280622    12.000000000000
         C           -0.793887006636    -2.163184145066    -0.253683280622    12.000000000000
         C           -2.551761006636    -0.619653145066     0.342693719378    12.000000000000
         C           -2.117598006636    -1.925526145066     0.112451719378    12.000000000000
         C           -2.188751006636     1.872852854934     0.433920719378    12.000000000000
         H            1.642396993364    -2.365899145066    -1.186529280622     1.007825032230
         H            1.814112993364    -0.668127145066    -1.604263280622     1.007825032230
         H            2.490338993364    -2.003815145066     1.057218719378     1.007825032230
         H            3.541492993364    -1.075557145066    -0.017636280622     1.007825032230
         H            1.318929993364    -0.092026145066     1.829598719378     1.007825032230
         H            2.996360993364     0.438400854934     1.794786719378     1.007825032230
         H            2.454923993364     1.989183854934     0.138021719378     1.007825032230
         H           -0.455227006636    -3.179966145066    -0.446618280622     1.007825032230
         H           -3.587042006636    -0.439334145066     0.626758719378     1.007825032230
         H           -2.811167006636    -2.756434145066     0.221205719378     1.007825032230
         H           -1.541640006636     2.423911854934     1.122574719378     1.007825032230
         H           -2.209080006636     2.437676854934    -0.500434280622     1.007825032230
         H           -3.196869006636     1.844634854934     0.856982719378     1.007825032230

  Nuclear repulsion =  795.753160444410582
  Reference energy  = -553.641795347844209

  ==> Basis Set <==

  Basis Set: AUG-CC-PVTZ
    Blend: AUG-CC-PVTZ
    Number of shells: 299
    Number of basis functions: 897
    Number of Cartesian functions: 1040
    Spherical Harmonics?: true
    Max angular momentum: 3

  ==> CGRSolver (by Rob Parrish) <==

   Number of roots    =         1
   Preconditioning    =    JACOBI
   Convergence cutoff =     1E-06
   Maximum iterations =       100

  ==> CPHFRHamiltonian (by Rob Parrish) <== 

  ==> MemDFJK: Density-Fitted J/K Matrices <==

    J tasked:                   Yes
    K tasked:                   Yes
    wK tasked:                   No
    OpenMP threads:              32
    Memory [MiB]:             22888
    Algorithm:                 Core
    Schwarz Cutoff:           1E-12
    Mask sparsity (%):       6.2552
    Fitting Condition:        1E-10

   => Auxiliary Basis Set <=

  Basis Set: (AUG-CC-PVTZ AUX)
    Blend: AUG-CC-PVTZ-JKFIT
    Number of shells: 572
    Number of basis functions: 1950
    Number of Cartesian functions: 2418
    Spherical Harmonics?: true
    Max angular momentum: 4

  ==> CPHF Iterations <==

  => Iterations <=

             Iter  Converged  Remaining    Residual
  CGR           1          0          1   1.196E-01
  CGR           2          0          1   3.769E-02
  CGR           3          0          1   1.921E-02
  CGR           4          0          1   8.367E-03
  CGR           5          0          1   4.039E-03
  CGR           6          0          1   1.743E-03
  CGR           7          0          1   5.632E-04
  CGR           8          0          1   1.919E-04
  CGR           9          0          1   6.155E-05
  CGR          10          0          1   2.102E-05
  CGR          11          0          1   9.608E-06
  CGR          12          0          1   4.113E-06
  CGR          13          0          1   2.002E-06
  CGR          14          1          0   6.397E-07

    CGRSolver converged.

	-----------------------------------------------------------
	 ==================> DF-MP2 Energies <==================== 
	-----------------------------------------------------------
	 Reference Energy          =    -553.6417953478442087 [Eh]
	 Singles Energy            =      -0.0000000000000000 [Eh]
	 Same-Spin Energy          =      -0.6044717923483789 [Eh]
	 Opposite-Spin Energy      =      -1.9034900910001777 [Eh]
	 Correlation Energy        =      -2.5079618833485569 [Eh]
	 Total Energy              =    -556.1497572311927797 [Eh]
	-----------------------------------------------------------
	 ================> DF-SCS-MP2 Energies <================== 
	-----------------------------------------------------------
	 SCS Same-Spin Scale       =       0.3333333333333333 [-]
	 SCS Opposite-Spin Scale   =       1.2000000000000000 [-]
	 SCS Same-Spin Energy      =      -0.2014905974494596 [Eh]
	 SCS Opposite-Spin Energy  =      -2.2841881092002132 [Eh]
	 SCS Correlation Energy    =      -2.4856787066496726 [Eh]
	 SCS Total Energy          =    -556.1274740544938595 [Eh]
	-----------------------------------------------------------



Properties will be evaluated at   0.000000,  -0.000000,  -0.000000 [a0]

Properties computed using the MP2 density matrix

  Nuclear Dipole Moment: [e a0]
     X:     2.3002      Y:    -3.2241      Z:     3.6425

  Electronic Dipole Moment: [e a0]
     X:    -1.6152      Y:     2.2247      Z:    -2.7754

  Dipole Moment: [e a0]
     X:     0.6850      Y:    -0.9993      Z:     0.8671     Total:     1.4898

  Dipole Moment: [D]
     X:     1.7410      Y:    -2.5400      Z:     2.2038     Total:     3.7868


*** tstop() called on c402-023.stampede2.tacc.utexas.edu at Mon Mar  1 03:05:51 2021
Module time:
	user time   =    4991.15 seconds =      83.19 minutes
	system time =     102.08 seconds =       1.70 minutes
	total time  =        453 seconds =       7.55 minutes
Total time:
	user time   =    6540.24 seconds =     109.00 minutes
	system time =     179.20 seconds =       2.99 minutes
	total time  =        530 seconds =       8.83 minutes

    Psi4 stopped on: Monday, 01 March 2021 03:05AM
    Psi4 wall time for execution: 0:08:51.85

*** Psi4 exiting successfully. Buy a developer a beer!
