
    -----------------------------------------------------------------------
          Psi4: An Open-Source Ab Initio Electronic Structure Package
                               Psi4 1.4a3.dev225 

                         Git: Rev {master} 7105e37 


    D. G. A. Smith, L. A. Burns, A. C. Simmonett, R. M. Parrish,
    M. C. Schieber, R. Galvelis, P. Kraus, H. Kruse, R. Di Remigio,
    A. Alenaizan, A. M. James, S. Lehtola, J. P. Misiewicz, M. Scheurer,
    R. A. Shaw, J. B. Schriber, Y. Xie, Z. L. Glick, D. A. Sirianni,
    J. S. O'Brien, J. M. Waldrop, A. Kumar, E. G. Hohenstein,
    B. P. Pritchard, B. R. Brooks, H. F. Schaefer III, A. Yu. Sokolov,
    K. Patkowski, A. E. DePrince III, U. Bozkaya, R. A. King,
    F. A. Evangelista, J. M. Turney, T. D. Crawford, C. D. Sherrill,
    J. Chem. Phys. 152(18) 184108 (2020). https://doi.org/10.1063/5.0006002

                            Additional Code Authors
    E. T. Seidl, C. L. Janssen, E. F. Valeev, M. L. Leininger,
    J. F. Gonthier, R. M. Richard, H. R. McAlexander, M. Saitow, X. Wang,
    P. Verma, and M. H. Lechner

             Previous Authors, Complete List of Code Contributors,
                       and Citations for Specific Modules
    https://github.com/psi4/psi4/blob/master/codemeta.json
    https://github.com/psi4/psi4/graphs/contributors
    http://psicode.org/psi4manual/master/introduction.html#citing-psifour

    -----------------------------------------------------------------------


    Psi4 started on: Thursday, 01 April 2021 05:54AM

    Process ID: 88971
    Host:       c450-021.stampede2.tacc.utexas.edu
    PSIDATADIR: /home1/07844/xy3866/miniconda3/envs/p4env/share/psi4
    Memory:     500.0 MiB
    Threads:    8
    
  ==> Input File <==

--------------------------------------------------------------------------
#psi4
#
memory 32 gb

molecule  {
0 1
  O        0.3130990     2.3704440    -1.0483590
  N        1.7883250     1.2487180     0.2800910
  C        1.5287440    -1.3320340    -0.8115580
  C        2.5082430    -1.1273300     0.3546920
  C        0.0936770    -1.0844130    -0.4156830
  C       -0.3593510     0.2288580    -0.1728470
  C        2.1500350     0.1348000     1.1432270
  C       -1.6973100     0.4876920     0.1815770
  C        0.5874820     1.3794060    -0.3635620
  C       -0.8057180    -2.1460500    -0.2745700
  C       -2.5635920    -0.6025190     0.3218070
  C       -2.1294290    -1.9083920     0.0915650
  C       -2.2005820     1.8899870     0.4130340
  H        1.6305660    -2.3487650    -1.2074160
  H        1.8022820    -0.6509930    -1.6251500
  H        2.4785080    -1.9866810     1.0363320
  H        3.5296620    -1.0584230    -0.0385230
  H        1.3070990    -0.0748920     1.8087120
  H        2.9845300     0.4555350     1.7739000
  H        2.4430930     2.0063180     0.1171350
  H       -0.4670580    -3.1628320    -0.4675050
  H       -3.5798523    -0.4255129     0.6006530
  H       -2.8229980    -2.7393000     0.2003190
  H       -1.5534710     2.4410460     1.1016880
  H       -2.2209110     2.4548110    -0.5213210
  H       -3.2087000     1.8617690     0.8360960
units angstrom
no_reorient  #important for SAPT in psi4, default
symmetry c1  #important for SAPT in psi4, default
}

set PROPERTIES_ORIGIN ["COM"]
properties('MP2/aug-cc-pvtz', properties = ['dipole'])
--------------------------------------------------------------------------

  Memory set to  29.802 GiB by Python driver.
    SCF Algorithm Type (re)set to DF.

*** tstart() called on c450-021.stampede2.tacc.utexas.edu
*** at Thu Apr  1 05:55:03 2021

   => Loading Basis Set <=

    Name: AUG-CC-PVTZ
    Role: ORBITAL
    Keyword: BASIS
    atoms 1     entry O          line   331 file /home1/07844/xy3866/miniconda3/envs/p4env/share/psi4/basis/aug-cc-pvtz.gbs 
    atoms 2     entry N          line   285 file /home1/07844/xy3866/miniconda3/envs/p4env/share/psi4/basis/aug-cc-pvtz.gbs 
    atoms 3-13  entry C          line   239 file /home1/07844/xy3866/miniconda3/envs/p4env/share/psi4/basis/aug-cc-pvtz.gbs 
    atoms 14-26 entry H          line    40 file /home1/07844/xy3866/miniconda3/envs/p4env/share/psi4/basis/aug-cc-pvtz.gbs 


         ---------------------------------------------------------
                                   SCF
               by Justin Turney, Rob Parrish, Andy Simmonett
                          and Daniel G. A. Smith
                              RHF Reference
                        8 Threads,  30517 MiB Core
         ---------------------------------------------------------

  ==> Geometry <==

    Molecular point group: c1
    Full point group: C1

    Geometry (in Angstrom), charge = 0, multiplicity = 1:

       Center              X                  Y                   Z               Mass       
    ------------   -----------------  -----------------  -----------------  -----------------
         O            0.326021052041     2.352238250806    -1.027851331848    15.994914619570
         N            1.801247052041     1.230512250806     0.300598668152    14.003074004430
         C            1.541666052041    -1.350239749194    -0.791050331848    12.000000000000
         C            2.521165052041    -1.145535749194     0.375199668152    12.000000000000
         C            0.106599052041    -1.102618749194    -0.395175331848    12.000000000000
         C           -0.346428947959     0.210652250806    -0.152339331848    12.000000000000
         C            2.162957052041     0.116594250806     1.163734668152    12.000000000000
         C           -1.684387947959     0.469486250806     0.202084668152    12.000000000000
         C            0.600404052041     1.361200250806    -0.343054331848    12.000000000000
         C           -0.792795947959    -2.164255749194    -0.254062331848    12.000000000000
         C           -2.550669947959    -0.620724749194     0.342314668152    12.000000000000
         C           -2.116506947959    -1.926597749194     0.112072668152    12.000000000000
         C           -2.187659947959     1.871781250806     0.433541668152    12.000000000000
         H            1.643488052041    -2.366970749194    -1.186908331848     1.007825032230
         H            1.815204052041    -0.669198749194    -1.604642331848     1.007825032230
         H            2.491430052041    -2.004886749194     1.056839668152     1.007825032230
         H            3.542584052041    -1.076628749194    -0.018015331848     1.007825032230
         H            1.320021052041    -0.093097749194     1.829219668152     1.007825032230
         H            2.997452052041     0.437329250806     1.794407668152     1.007825032230
         H            2.456015052041     1.988112250806     0.137642668152     1.007825032230
         H           -0.454135947959    -3.181037749194    -0.446997331848     1.007825032230
         H           -3.566930247959    -0.443718649194     0.621160668152     1.007825032230
         H           -2.810075947959    -2.757505749194     0.220826668152     1.007825032230
         H           -1.540548947959     2.422840250806     1.122195668152     1.007825032230
         H           -2.207988947959     2.436605250806    -0.500813331848     1.007825032230
         H           -3.195777947959     1.843563250806     0.856603668152     1.007825032230

  Running in c1 symmetry.

  Rotational constants: A =      0.03748  B =      0.02843  C =      0.01854 [cm^-1]
  Rotational constants: A =   1123.74738  B =    852.16986  C =    555.87402 [MHz]
  Nuclear repulsion =  796.086673408781735

  Charge       = 0
  Multiplicity = 1
  Electrons    = 94
  Nalpha       = 47
  Nbeta        = 47

  ==> Algorithm <==

  SCF Algorithm Type is DF.
  DIIS enabled.
  MOM disabled.
  Fractional occupation disabled.
  Guess Type is SAD.
  Energy threshold   = 1.00e-10
  Density threshold  = 1.00e-10
  Integral threshold = 1.00e-12

  ==> Primary Basis <==

  Basis Set: AUG-CC-PVTZ
    Blend: AUG-CC-PVTZ
    Number of shells: 299
    Number of basis functions: 897
    Number of Cartesian functions: 1040
    Spherical Harmonics?: true
    Max angular momentum: 3

   => Loading Basis Set <=

    Name: (AUG-CC-PVTZ AUX)
    Role: JKFIT
    Keyword: DF_BASIS_SCF
    atoms 1     entry O          line   286 file /home1/07844/xy3866/miniconda3/envs/p4env/share/psi4/basis/aug-cc-pvtz-jkfit.gbs 
    atoms 2     entry N          line   224 file /home1/07844/xy3866/miniconda3/envs/p4env/share/psi4/basis/aug-cc-pvtz-jkfit.gbs 
    atoms 3-13  entry C          line   162 file /home1/07844/xy3866/miniconda3/envs/p4env/share/psi4/basis/aug-cc-pvtz-jkfit.gbs 
    atoms 14-26 entry H          line    70 file /home1/07844/xy3866/miniconda3/envs/p4env/share/psi4/basis/aug-cc-pvtz-jkfit.gbs 

  ==> Integral Setup <==

  DFHelper Memory: AOs need 10.666 GiB; user supplied 22.352 GiB. Using in-core AOs.

  ==> MemDFJK: Density-Fitted J/K Matrices <==

    J tasked:                   Yes
    K tasked:                   Yes
    wK tasked:                   No
    OpenMP threads:               8
    Memory [MiB]:             22888
    Algorithm:                 Core
    Schwarz Cutoff:           1E-12
    Mask sparsity (%):      10.7946
    Fitting Condition:        1E-10

   => Auxiliary Basis Set <=

  Basis Set: (AUG-CC-PVTZ AUX)
    Blend: AUG-CC-PVTZ-JKFIT
    Number of shells: 572
    Number of basis functions: 1950
    Number of Cartesian functions: 2418
    Spherical Harmonics?: true
    Max angular momentum: 4

  Minimum eigenvalue in the overlap matrix is 3.5906480479E-07.
  Reciprocal condition number of the overlap matrix is 1.5041411313E-08.
    Using symmetric orthogonalization.

  ==> Pre-Iterations <==

  SCF Guess: Superposition of Atomic Densities via on-the-fly atomic UHF (no occupation information).

   -------------------------
    Irrep   Nso     Nmo    
   -------------------------
     A        897     897 
   -------------------------
    Total     897     897
   -------------------------

  ==> Iterations <==

                           Total Energy        Delta E     RMS |[F,P]|

   @DF-RHF iter SAD:  -553.50828011294232   -5.53508e+02   0.00000e+00 
   @DF-RHF iter   1:  -553.23584217766415    2.72438e-01   9.30650e-04 DIIS
   @DF-RHF iter   2:  -553.56212406108330   -3.26282e-01   4.70160e-04 DIIS
   @DF-RHF iter   3:  -553.63729177251219   -7.51677e-02   1.00557e-04 DIIS
   @DF-RHF iter   4:  -553.64251932404670   -5.22755e-03   4.28444e-05 DIIS
   @DF-RHF iter   5:  -553.64328224647306   -7.62922e-04   9.51837e-06 DIIS
   @DF-RHF iter   6:  -553.64334818230986   -6.59358e-05   4.47715e-06 DIIS
   @DF-RHF iter   7:  -553.64336290113431   -1.47188e-05   1.63467e-06 DIIS
   @DF-RHF iter   8:  -553.64336626555257   -3.36442e-06   8.21448e-07 DIIS
   @DF-RHF iter   9:  -553.64336702313960   -7.57587e-07   3.07614e-07 DIIS
   @DF-RHF iter  10:  -553.64336715779041   -1.34651e-07   9.79894e-08 DIIS
   @DF-RHF iter  11:  -553.64336717104868   -1.32583e-08   4.08561e-08 DIIS
   @DF-RHF iter  12:  -553.64336717363949   -2.59081e-09   1.92569e-08 DIIS
   @DF-RHF iter  13:  -553.64336717436890   -7.29415e-10   8.80690e-09 DIIS
   @DF-RHF iter  14:  -553.64336717453466   -1.65755e-10   4.08995e-09 DIIS
   @DF-RHF iter  15:  -553.64336717456194   -2.72848e-11   1.58263e-09 DIIS
   @DF-RHF iter  16:  -553.64336717456297   -1.02318e-12   6.24410e-10 DIIS
   @DF-RHF iter  17:  -553.64336717456445   -1.47793e-12   1.83152e-10 DIIS
   @DF-RHF iter  18:  -553.64336717456558   -1.13687e-12   6.00526e-11 DIIS
  Energy and wave function converged.


  ==> Post-Iterations <==

    Orbital Energies [Eh]
    ---------------------

    Doubly Occupied:                                                      

       1A    -20.512648     2A    -15.583003     3A    -11.350244  
       4A    -11.274869     5A    -11.254233     6A    -11.253292  
       7A    -11.244212     8A    -11.241844     9A    -11.238209  
      10A    -11.237362    11A    -11.235135    12A    -11.230331  
      13A    -11.215928    14A     -1.367539    15A     -1.235312  
      16A     -1.163677    17A     -1.084706    18A     -1.044635  
      19A     -1.028980    20A     -0.943122    21A     -0.933698  
      22A     -0.873713    23A     -0.830253    24A     -0.785635  
      25A     -0.769849    26A     -0.695273    27A     -0.682980  
      28A     -0.660062    29A     -0.658783    30A     -0.619734  
      31A     -0.615344    32A     -0.591178    33A     -0.584431  
      34A     -0.570047    35A     -0.566792    36A     -0.553214  
      37A     -0.531539    38A     -0.531221    39A     -0.513926  
      40A     -0.505310    41A     -0.488804    42A     -0.479204  
      43A     -0.474014    44A     -0.417407    45A     -0.386001  
      46A     -0.336336    47A     -0.327415  

    Virtual:                                                              

      48A      0.023742    49A      0.028905    50A      0.030847  
      51A      0.037434    52A      0.042060    53A      0.043719  
      54A      0.052715    55A      0.056273    56A      0.056474  
      57A      0.060521    58A      0.065763    59A      0.072709  
      60A      0.080165    61A      0.091227    62A      0.096222  
      63A      0.097943    64A      0.100719    65A      0.105317  
      66A      0.107768    67A      0.111887    68A      0.115985  
      69A      0.117476    70A      0.119188    71A      0.123882  
      72A      0.124576    73A      0.128155    74A      0.131590  
      75A      0.134423    76A      0.138559    77A      0.144034  
      78A      0.144876    79A      0.145534    80A      0.149385  
      81A      0.153917    82A      0.157092    83A      0.161704  
      84A      0.166213    85A      0.166944    86A      0.169507  
      87A      0.173749    88A      0.179229    89A      0.183691  
      90A      0.187244    91A      0.190488    92A      0.198579  
      93A      0.203588    94A      0.206915    95A      0.212666  
      96A      0.214479    97A      0.226397    98A      0.228446  
      99A      0.232318   100A      0.235612   101A      0.241333  
     102A      0.244639   103A      0.247884   104A      0.253829  
     105A      0.254947   106A      0.261168   107A      0.266216  
     108A      0.274532   109A      0.278583   110A      0.282964  
     111A      0.283818   112A      0.287203   113A      0.292415  
     114A      0.294176   115A      0.299534   116A      0.301309  
     117A      0.311228   118A      0.314738   119A      0.317367  
     120A      0.320858   121A      0.326076   122A      0.327277  
     123A      0.329835   124A      0.332703   125A      0.335785  
     126A      0.338002   127A      0.345925   128A      0.348020  
     129A      0.354460   130A      0.358420   131A      0.363093  
     132A      0.363752   133A      0.368793   134A      0.373029  
     135A      0.376305   136A      0.381203   137A      0.384434  
     138A      0.388853   139A      0.395620   140A      0.399198  
     141A      0.401212   142A      0.405816   143A      0.412621  
     144A      0.416773   145A      0.418898   146A      0.425602  
     147A      0.426452   148A      0.431120   149A      0.435030  
     150A      0.443259   151A      0.444817   152A      0.447361  
     153A      0.448217   154A      0.451173   155A      0.457209  
     156A      0.458960   157A      0.466028   158A      0.468850  
     159A      0.469779   160A      0.471098   161A      0.474969  
     162A      0.475476   163A      0.479169   164A      0.481933  
     165A      0.485781   166A      0.491997   167A      0.496410  
     168A      0.497561   169A      0.504099   170A      0.507477  
     171A      0.510277   172A      0.511283   173A      0.517136  
     174A      0.520143   175A      0.523287   176A      0.527462  
     177A      0.533514   178A      0.535296   179A      0.540440  
     180A      0.542362   181A      0.546067   182A      0.550780  
     183A      0.554441   184A      0.558055   185A      0.561115  
     186A      0.561190   187A      0.568792   188A      0.572809  
     189A      0.576991   190A      0.578420   191A      0.585076  
     192A      0.588650   193A      0.591220   194A      0.597727  
     195A      0.603008   196A      0.606719   197A      0.609412  
     198A      0.612867   199A      0.617839   200A      0.618296  
     201A      0.622521   202A      0.627593   203A      0.639274  
     204A      0.640929   205A      0.649131   206A      0.654216  
     207A      0.655893   208A      0.657639   209A      0.664179  
     210A      0.668926   211A      0.678621   212A      0.684001  
     213A      0.686161   214A      0.690439   215A      0.699524  
     216A      0.701075   217A      0.708941   218A      0.714544  
     219A      0.724653   220A      0.729418   221A      0.734151  
     222A      0.739377   223A      0.744162   224A      0.750151  
     225A      0.751118   226A      0.756834   227A      0.764470  
     228A      0.767715   229A      0.770296   230A      0.778573  
     231A      0.785136   232A      0.791781   233A      0.793189  
     234A      0.805577   235A      0.807216   236A      0.816527  
     237A      0.824382   238A      0.828768   239A      0.837990  
     240A      0.843869   241A      0.846538   242A      0.850238  
     243A      0.853181   244A      0.858948   245A      0.863410  
     246A      0.866503   247A      0.873473   248A      0.874353  
     249A      0.879053   250A      0.885991   251A      0.889897  
     252A      0.896409   253A      0.901373   254A      0.908759  
     255A      0.913547   256A      0.915528   257A      0.923353  
     258A      0.926526   259A      0.931432   260A      0.936683  
     261A      0.941834   262A      0.943188   263A      0.954372  
     264A      0.956126   265A      0.960800   266A      0.968111  
     267A      0.972628   268A      0.975045   269A      0.979888  
     270A      0.984563   271A      0.987165   272A      0.990370  
     273A      0.992166   274A      0.996504   275A      0.997640  
     276A      1.005857   277A      1.009006   278A      1.012855  
     279A      1.016431   280A      1.022118   281A      1.023859  
     282A      1.033718   283A      1.037457   284A      1.042017  
     285A      1.044794   286A      1.047541   287A      1.059351  
     288A      1.061908   289A      1.068281   290A      1.071592  
     291A      1.072699   292A      1.084549   293A      1.087474  
     294A      1.088135   295A      1.094310   296A      1.096151  
     297A      1.104741   298A      1.105958   299A      1.112940  
     300A      1.115890   301A      1.119891   302A      1.126585  
     303A      1.131580   304A      1.136537   305A      1.137781  
     306A      1.143567   307A      1.148163   308A      1.156899  
     309A      1.158270   310A      1.164024   311A      1.168705  
     312A      1.169031   313A      1.176312   314A      1.179324  
     315A      1.186099   316A      1.190494   317A      1.196921  
     318A      1.198998   319A      1.203195   320A      1.204384  
     321A      1.207080   322A      1.215027   323A      1.216455  
     324A      1.222548   325A      1.229312   326A      1.233313  
     327A      1.238017   328A      1.246029   329A      1.250428  
     330A      1.255035   331A      1.256367   332A      1.262269  
     333A      1.271816   334A      1.272416   335A      1.280426  
     336A      1.287253   337A      1.292759   338A      1.296315  
     339A      1.300701   340A      1.308020   341A      1.311368  
     342A      1.317520   343A      1.318583   344A      1.333557  
     345A      1.339227   346A      1.347877   347A      1.358280  
     348A      1.360838   349A      1.374679   350A      1.378136  
     351A      1.388110   352A      1.392496   353A      1.394460  
     354A      1.399932   355A      1.408722   356A      1.411531  
     357A      1.414715   358A      1.424217   359A      1.431014  
     360A      1.435275   361A      1.436666   362A      1.446515  
     363A      1.457318   364A      1.461578   365A      1.467346  
     366A      1.477881   367A      1.484585   368A      1.487769  
     369A      1.490863   370A      1.497356   371A      1.499416  
     372A      1.506140   373A      1.513001   374A      1.522402  
     375A      1.529878   376A      1.535725   377A      1.540803  
     378A      1.548392   379A      1.550681   380A      1.561335  
     381A      1.569788   382A      1.573649   383A      1.578584  
     384A      1.582037   385A      1.588572   386A      1.598611  
     387A      1.601768   388A      1.609374   389A      1.610949  
     390A      1.621038   391A      1.626365   392A      1.627192  
     393A      1.632668   394A      1.640490   395A      1.651094  
     396A      1.652315   397A      1.665459   398A      1.669625  
     399A      1.673311   400A      1.676101   401A      1.685463  
     402A      1.697450   403A      1.698709   404A      1.701120  
     405A      1.713886   406A      1.719705   407A      1.723449  
     408A      1.736817   409A      1.738365   410A      1.740251  
     411A      1.748398   412A      1.754205   413A      1.762020  
     414A      1.765706   415A      1.773905   416A      1.776419  
     417A      1.778775   418A      1.783033   419A      1.793958  
     420A      1.801836   421A      1.805348   422A      1.818774  
     423A      1.827047   424A      1.832058   425A      1.839780  
     426A      1.846358   427A      1.849210   428A      1.856459  
     429A      1.860660   430A      1.866266   431A      1.874122  
     432A      1.881951   433A      1.885140   434A      1.890710  
     435A      1.895641   436A      1.902906   437A      1.904629  
     438A      1.916296   439A      1.919796   440A      1.930373  
     441A      1.937615   442A      1.950295   443A      1.956920  
     444A      1.958217   445A      1.967318   446A      1.970651  
     447A      1.978070   448A      1.985205   449A      2.001292  
     450A      2.006268   451A      2.012437   452A      2.017187  
     453A      2.021161   454A      2.027317   455A      2.036501  
     456A      2.042107   457A      2.051382   458A      2.053398  
     459A      2.062064   460A      2.069257   461A      2.078228  
     462A      2.081684   463A      2.090593   464A      2.100933  
     465A      2.108305   466A      2.116791   467A      2.119194  
     468A      2.130921   469A      2.134543   470A      2.139912  
     471A      2.148553   472A      2.151910   473A      2.160643  
     474A      2.164166   475A      2.168525   476A      2.175741  
     477A      2.186278   478A      2.192118   479A      2.203850  
     480A      2.211268   481A      2.215008   482A      2.220138  
     483A      2.243204   484A      2.251132   485A      2.253082  
     486A      2.266243   487A      2.268968   488A      2.274735  
     489A      2.286404   490A      2.289713   491A      2.293414  
     492A      2.299837   493A      2.310341   494A      2.315897  
     495A      2.319631   496A      2.325116   497A      2.332650  
     498A      2.344463   499A      2.351578   500A      2.358472  
     501A      2.365711   502A      2.375329   503A      2.386259  
     504A      2.398310   505A      2.404917   506A      2.417918  
     507A      2.429925   508A      2.435031   509A      2.445945  
     510A      2.457279   511A      2.463186   512A      2.480350  
     513A      2.486098   514A      2.493385   515A      2.499414  
     516A      2.518554   517A      2.526795   518A      2.535117  
     519A      2.535702   520A      2.557328   521A      2.561988  
     522A      2.569944   523A      2.581219   524A      2.602169  
     525A      2.607116   526A      2.617925   527A      2.620400  
     528A      2.636589   529A      2.644630   530A      2.650285  
     531A      2.665646   532A      2.674152   533A      2.691674  
     534A      2.704089   535A      2.710534   536A      2.727820  
     537A      2.737784   538A      2.745237   539A      2.762625  
     540A      2.770272   541A      2.788493   542A      2.791448  
     543A      2.805956   544A      2.831567   545A      2.832412  
     546A      2.852004   547A      2.866527   548A      2.880675  
     549A      2.883710   550A      2.916208   551A      2.921306  
     552A      2.939116   553A      2.958224   554A      2.965326  
     555A      2.986550   556A      3.015179   557A      3.024760  
     558A      3.069004   559A      3.093822   560A      3.134502  
     561A      3.154726   562A      3.175534   563A      3.200956  
     564A      3.204301   565A      3.214122   566A      3.230963  
     567A      3.253081   568A      3.271946   569A      3.284492  
     570A      3.304570   571A      3.329293   572A      3.344452  
     573A      3.370297   574A      3.377604   575A      3.389614  
     576A      3.407559   577A      3.418681   578A      3.441461  
     579A      3.445119   580A      3.451125   581A      3.465531  
     582A      3.481290   583A      3.491585   584A      3.501443  
     585A      3.507956   586A      3.519873   587A      3.522567  
     588A      3.526566   589A      3.535522   590A      3.545661  
     591A      3.557405   592A      3.568780   593A      3.576667  
     594A      3.579325   595A      3.592889   596A      3.604909  
     597A      3.618558   598A      3.622534   599A      3.634515  
     600A      3.648126   601A      3.651723   602A      3.652799  
     603A      3.658973   604A      3.676697   605A      3.686528  
     606A      3.698746   607A      3.705507   608A      3.708767  
     609A      3.713450   610A      3.726182   611A      3.734796  
     612A      3.747335   613A      3.751880   614A      3.756704  
     615A      3.774626   616A      3.780871   617A      3.784144  
     618A      3.785270   619A      3.799666   620A      3.806638  
     621A      3.813493   622A      3.836645   623A      3.842256  
     624A      3.845529   625A      3.851187   626A      3.857121  
     627A      3.865493   628A      3.870102   629A      3.877892  
     630A      3.888373   631A      3.892838   632A      3.900445  
     633A      3.904834   634A      3.914285   635A      3.923442  
     636A      3.933372   637A      3.935361   638A      3.950966  
     639A      3.959544   640A      3.966509   641A      3.970895  
     642A      3.977778   643A      3.988058   644A      3.992832  
     645A      4.003892   646A      4.007346   647A      4.010241  
     648A      4.024651   649A      4.032794   650A      4.038317  
     651A      4.049137   652A      4.052017   653A      4.062574  
     654A      4.067355   655A      4.073909   656A      4.083300  
     657A      4.090030   658A      4.099546   659A      4.104990  
     660A      4.105831   661A      4.126432   662A      4.135512  
     663A      4.145588   664A      4.149061   665A      4.158567  
     666A      4.173087   667A      4.173839   668A      4.184747  
     669A      4.194171   670A      4.200205   671A      4.215721  
     672A      4.220901   673A      4.231461   674A      4.242241  
     675A      4.251353   676A      4.257659   677A      4.263713  
     678A      4.271677   679A      4.272103   680A      4.289593  
     681A      4.303544   682A      4.307067   683A      4.312896  
     684A      4.319942   685A      4.334499   686A      4.344287  
     687A      4.346678   688A      4.356224   689A      4.365582  
     690A      4.371515   691A      4.382990   692A      4.387830  
     693A      4.399052   694A      4.410162   695A      4.413277  
     696A      4.418239   697A      4.424718   698A      4.437143  
     699A      4.447174   700A      4.452599   701A      4.464493  
     702A      4.477158   703A      4.480285   704A      4.489110  
     705A      4.498267   706A      4.503459   707A      4.513332  
     708A      4.518734   709A      4.536241   710A      4.545302  
     711A      4.559000   712A      4.567257   713A      4.583363  
     714A      4.590093   715A      4.601071   716A      4.606436  
     717A      4.615452   718A      4.621852   719A      4.631086  
     720A      4.647088   721A      4.656842   722A      4.670546  
     723A      4.677781   724A      4.679362   725A      4.684671  
     726A      4.699492   727A      4.715850   728A      4.720024  
     729A      4.736717   730A      4.749678   731A      4.758246  
     732A      4.770277   733A      4.780879   734A      4.787050  
     735A      4.797832   736A      4.807040   737A      4.814436  
     738A      4.819144   739A      4.836752   740A      4.844256  
     741A      4.847208   742A      4.868245   743A      4.887308  
     744A      4.892679   745A      4.901044   746A      4.910497  
     747A      4.917195   748A      4.922571   749A      4.935206  
     750A      4.936685   751A      4.958927   752A      4.966422  
     753A      4.973952   754A      4.995713   755A      5.004070  
     756A      5.008340   757A      5.016708   758A      5.030807  
     759A      5.055063   760A      5.063989   761A      5.076514  
     762A      5.088159   763A      5.093239   764A      5.108161  
     765A      5.118435   766A      5.120296   767A      5.130217  
     768A      5.145865   769A      5.163747   770A      5.168786  
     771A      5.176276   772A      5.180389   773A      5.190823  
     774A      5.202728   775A      5.212539   776A      5.226324  
     777A      5.228872   778A      5.248012   779A      5.252778  
     780A      5.266781   781A      5.283863   782A      5.287424  
     783A      5.301632   784A      5.322116   785A      5.333335  
     786A      5.335906   787A      5.344983   788A      5.351868  
     789A      5.356918   790A      5.368045   791A      5.379728  
     792A      5.393534   793A      5.419913   794A      5.426339  
     795A      5.428923   796A      5.452033   797A      5.464624  
     798A      5.468637   799A      5.487852   800A      5.497598  
     801A      5.507379   802A      5.524886   803A      5.547939  
     804A      5.565056   805A      5.578886   806A      5.595597  
     807A      5.616739   808A      5.622561   809A      5.636714  
     810A      5.646860   811A      5.673638   812A      5.689429  
     813A      5.714980   814A      5.728849   815A      5.742074  
     816A      5.751977   817A      5.761790   818A      5.782033  
     819A      5.785598   820A      5.792293   821A      5.810894  
     822A      5.819134   823A      5.836305   824A      5.841700  
     825A      5.866272   826A      5.899566   827A      5.933092  
     828A      5.948308   829A      5.986863   830A      6.016714  
     831A      6.050973   832A      6.093452   833A      6.103094  
     834A      6.126226   835A      6.146081   836A      6.163355  
     837A      6.178971   838A      6.187182   839A      6.211533  
     840A      6.227810   841A      6.243703   842A      6.252124  
     843A      6.270962   844A      6.298095   845A      6.311891  
     846A      6.339145   847A      6.367406   848A      6.390837  
     849A      6.415237   850A      6.426204   851A      6.487106  
     852A      6.495258   853A      6.528967   854A      6.564690  
     855A      6.599132   856A      6.615506   857A      6.659264  
     858A      6.727759   859A      6.776837   860A      6.788150  
     861A      6.809735   862A      6.845508   863A      6.867191  
     864A      6.898225   865A      6.915857   866A      6.925272  
     867A      6.955983   868A      6.989466   869A      7.029263  
     870A      7.054058   871A      7.069941   872A      7.100807  
     873A      7.150554   874A      7.225440   875A      7.312830  
     876A      7.334005   877A      7.523838   878A      7.553291  
     879A      7.636368   880A      7.729709   881A      7.859955  
     882A      7.934360   883A      8.024823   884A      8.108348  
     885A     16.086823   886A     16.512610   887A     16.955090  
     888A     17.470535   889A     18.314518   890A     18.698201  
     891A     19.132205   892A     19.347553   893A     19.963225  
     894A     20.246577   895A     21.217208   896A     21.671097  
     897A     21.801830  

    Final Occupation by Irrep:
              A 
    DOCC [    47 ]

  @DF-RHF Final Energy:  -553.64336717456558

   => Energetics <=

    Nuclear Repulsion Energy =            796.0866734087817349
    One-Electron Energy =               -2332.0171899444621886
    Two-Electron Energy =                 982.2871493611148708
    Total Energy =                       -553.6433671745655829

Computation Completed

*** tstop() called on c450-021.stampede2.tacc.utexas.edu at Thu Apr  1 05:57:35 2021
Module time:
	user time   =    1006.69 seconds =      16.78 minutes
	system time =      19.68 seconds =       0.33 minutes
	total time  =        152 seconds =       2.53 minutes
Total time:
	user time   =    1006.69 seconds =      16.78 minutes
	system time =      19.68 seconds =       0.33 minutes
	total time  =        152 seconds =       2.53 minutes
   => Loading Basis Set <=

    Name: (AUG-CC-PVTZ AUX)
    Role: RIFIT
    Keyword: DF_BASIS_MP2
    atoms 1     entry O          line   264 file /home1/07844/xy3866/miniconda3/envs/p4env/share/psi4/basis/aug-cc-pvtz-ri.gbs 
    atoms 2     entry N          line   206 file /home1/07844/xy3866/miniconda3/envs/p4env/share/psi4/basis/aug-cc-pvtz-ri.gbs 
    atoms 3-13  entry C          line   148 file /home1/07844/xy3866/miniconda3/envs/p4env/share/psi4/basis/aug-cc-pvtz-ri.gbs 
    atoms 14-26 entry H          line    30 file /home1/07844/xy3866/miniconda3/envs/p4env/share/psi4/basis/aug-cc-pvtz-ri.gbs 


*** tstart() called on c450-021.stampede2.tacc.utexas.edu
*** at Thu Apr  1 05:57:37 2021


  //>>>>>>>>>>>>>>>>>>>>>>>>>>>>>>>>>>>//
  //               DFMP2               //
  //<<<<<<<<<<<<<<<<<<<<<<<<<<<<<<<<<<<//

	 --------------------------------------------------------
	                          DF-MP2                         
	      2nd-Order Density-Fitted Moller-Plesset Theory     
	              RMP2 Wavefunction,   8 Threads             
	                                                         
	        Rob Parrish, Justin Turney, Andy Simmonett,      
	           Ed Hohenstein, and C. David Sherrill          
	 --------------------------------------------------------

   => Auxiliary Basis Set <=

  Basis Set: (AUG-CC-PVTZ AUX)
    Blend: AUG-CC-PVTZ-RI
    Number of shells: 546
    Number of basis functions: 1976
    Number of Cartesian functions: 2483
    Spherical Harmonics?: true
    Max angular momentum: 4

	 --------------------------------------------------------
	                 NBF =   897, NAUX =  1976
	 --------------------------------------------------------
	   CLASS    FOCC     OCC    AOCC    AVIR     VIR    FVIR
	   PAIRS       0      47      47     850     850       0
	 --------------------------------------------------------

  DFHelper Memory: AOs need 11.198 GiB; user supplied 22.352 GiB. Using in-core AOs.


         ------------------------------------------------------------
                                     CPHF                           
                                  Rob Parrish                       
         ------------------------------------------------------------

  ==> Geometry <==

    Molecular point group: c1
    Full point group: C1

    Geometry (in Angstrom), charge = 0, multiplicity = 1:

       Center              X                  Y                   Z               Mass       
    ------------   -----------------  -----------------  -----------------  -----------------
         O            0.326021052041     2.352238250806    -1.027851331848    15.994914619570
         N            1.801247052041     1.230512250806     0.300598668152    14.003074004430
         C            1.541666052041    -1.350239749194    -0.791050331848    12.000000000000
         C            2.521165052041    -1.145535749194     0.375199668152    12.000000000000
         C            0.106599052041    -1.102618749194    -0.395175331848    12.000000000000
         C           -0.346428947959     0.210652250806    -0.152339331848    12.000000000000
         C            2.162957052041     0.116594250806     1.163734668152    12.000000000000
         C           -1.684387947959     0.469486250806     0.202084668152    12.000000000000
         C            0.600404052041     1.361200250806    -0.343054331848    12.000000000000
         C           -0.792795947959    -2.164255749194    -0.254062331848    12.000000000000
         C           -2.550669947959    -0.620724749194     0.342314668152    12.000000000000
         C           -2.116506947959    -1.926597749194     0.112072668152    12.000000000000
         C           -2.187659947959     1.871781250806     0.433541668152    12.000000000000
         H            1.643488052041    -2.366970749194    -1.186908331848     1.007825032230
         H            1.815204052041    -0.669198749194    -1.604642331848     1.007825032230
         H            2.491430052041    -2.004886749194     1.056839668152     1.007825032230
         H            3.542584052041    -1.076628749194    -0.018015331848     1.007825032230
         H            1.320021052041    -0.093097749194     1.829219668152     1.007825032230
         H            2.997452052041     0.437329250806     1.794407668152     1.007825032230
         H            2.456015052041     1.988112250806     0.137642668152     1.007825032230
         H           -0.454135947959    -3.181037749194    -0.446997331848     1.007825032230
         H           -3.566930247959    -0.443718649194     0.621160668152     1.007825032230
         H           -2.810075947959    -2.757505749194     0.220826668152     1.007825032230
         H           -1.540548947959     2.422840250806     1.122195668152     1.007825032230
         H           -2.207988947959     2.436605250806    -0.500813331848     1.007825032230
         H           -3.195777947959     1.843563250806     0.856603668152     1.007825032230

  Nuclear repulsion =  796.086673408781735
  Reference energy  = -553.643367174565583

  ==> Basis Set <==

  Basis Set: AUG-CC-PVTZ
    Blend: AUG-CC-PVTZ
    Number of shells: 299
    Number of basis functions: 897
    Number of Cartesian functions: 1040
    Spherical Harmonics?: true
    Max angular momentum: 3

  ==> CGRSolver (by Rob Parrish) <==

   Number of roots    =         1
   Preconditioning    =    JACOBI
   Convergence cutoff =     1E-06
   Maximum iterations =       100

  ==> CPHFRHamiltonian (by Rob Parrish) <== 

  ==> MemDFJK: Density-Fitted J/K Matrices <==

    J tasked:                   Yes
    K tasked:                   Yes
    wK tasked:                   No
    OpenMP threads:               8
    Memory [MiB]:             22888
    Algorithm:                 Core
    Schwarz Cutoff:           1E-12
    Mask sparsity (%):       6.2420
    Fitting Condition:        1E-10

   => Auxiliary Basis Set <=

  Basis Set: (AUG-CC-PVTZ AUX)
    Blend: AUG-CC-PVTZ-JKFIT
    Number of shells: 572
    Number of basis functions: 1950
    Number of Cartesian functions: 2418
    Spherical Harmonics?: true
    Max angular momentum: 4

  ==> CPHF Iterations <==

  => Iterations <=

             Iter  Converged  Remaining    Residual
  CGR           1          0          1   1.197E-01
  CGR           2          0          1   3.776E-02
  CGR           3          0          1   1.929E-02
  CGR           4          0          1   8.292E-03
  CGR           5          0          1   3.964E-03
  CGR           6          0          1   1.700E-03
  CGR           7          0          1   5.415E-04
  CGR           8          0          1   1.849E-04
  CGR           9          0          1   5.885E-05
  CGR          10          0          1   1.861E-05
  CGR          11          0          1   7.762E-06
  CGR          12          0          1   3.034E-06
  CGR          13          0          1   1.532E-06
  CGR          14          1          0   5.452E-07

    CGRSolver converged.

	-----------------------------------------------------------
	 ==================> DF-MP2 Energies <==================== 
	-----------------------------------------------------------
	 Reference Energy          =    -553.6433671745655829 [Eh]
	 Singles Energy            =      -0.0000000000000000 [Eh]
	 Same-Spin Energy          =      -0.6041368085273250 [Eh]
	 Opposite-Spin Energy      =      -1.9029261875635970 [Eh]
	 Correlation Energy        =      -2.5070629960909221 [Eh]
	 Total Energy              =    -556.1504301706564775 [Eh]
	-----------------------------------------------------------
	 ================> DF-SCS-MP2 Energies <================== 
	-----------------------------------------------------------
	 SCS Same-Spin Scale       =       0.3333333333333333 [-]
	 SCS Opposite-Spin Scale   =       1.2000000000000000 [-]
	 SCS Same-Spin Energy      =      -0.2013789361757750 [Eh]
	 SCS Opposite-Spin Energy  =      -2.2835114250763162 [Eh]
	 SCS Correlation Energy    =      -2.4848903612520914 [Eh]
	 SCS Total Energy          =    -556.1282575358176246 [Eh]
	-----------------------------------------------------------



Properties will be evaluated at  -0.000000,   0.000000,   0.000000 [a0]

Properties computed using the MP2 density matrix

  Nuclear Dipole Moment: [e a0]
     X:     2.3313      Y:    -3.2402      Z:     3.6330

  Electronic Dipole Moment: [e a0]
     X:    -1.6548      Y:     2.2416      Z:    -2.7647

  Dipole Moment: [e a0]
     X:     0.6765      Y:    -0.9986      Z:     0.8683     Total:     1.4862

  Dipole Moment: [D]
     X:     1.7194      Y:    -2.5383      Z:     2.2070     Total:     3.7776


*** tstop() called on c450-021.stampede2.tacc.utexas.edu at Thu Apr  1 06:08:24 2021
Module time:
	user time   =    4145.08 seconds =      69.08 minutes
	system time =      54.05 seconds =       0.90 minutes
	total time  =        647 seconds =      10.78 minutes
Total time:
	user time   =    5153.06 seconds =      85.88 minutes
	system time =      73.77 seconds =       1.23 minutes
	total time  =        801 seconds =      13.35 minutes

    Psi4 stopped on: Thursday, 01 April 2021 06:08AM
    Psi4 wall time for execution: 0:13:22.58

*** Psi4 exiting successfully. Buy a developer a beer!
