54387989                                                                
Freq      RMP2-FC                                                     6-31G(d)            
Number of atoms                            I               20
Info1-9                                    I   N=           9
          32          30        1002           0           0         100
           6           2           1
Charge                                     I                0
Multiplicity                               I                1
Number of electrons                        I               92
Number of alpha electrons                  I               46
Number of beta electrons                   I               46
Number of basis functions                  I              187
Number of independent functions            I              187
Number of point charges in /Mol/           I                0
Number of translation vectors              I                0
Atomic numbers                             I   N=          20
          16           8           8           7           7           7
           6           6           6           6           6           1
           1           1           1           1           1           1
           1           1
Nuclear charges                            R   N=          20
  1.60000000E+01  8.00000000E+00  8.00000000E+00  7.00000000E+00  7.00000000E+00
  7.00000000E+00  6.00000000E+00  6.00000000E+00  6.00000000E+00  6.00000000E+00
  6.00000000E+00  1.00000000E+00  1.00000000E+00  1.00000000E+00  1.00000000E+00
  1.00000000E+00  1.00000000E+00  1.00000000E+00  1.00000000E+00  1.00000000E+00
Current cartesian coordinates              R   N=          60
  1.44335184E+00 -1.36461426E+00 -5.90152094E-01  1.40386148E+00 -3.54151403E+00
  1.12962996E+00  2.15256166E+00 -1.60567959E+00 -3.24116259E+00  3.28179360E+00
  8.31914441E-01  6.85229755E-01 -3.49407167E+00 -1.48102261E+00  8.68220867E-01
 -2.50771818E+00  2.03067611E+00 -1.26784721E+00 -1.66522166E+00 -1.62631454E-01
 -3.74696016E-01  2.76029961E+00  1.38306112E+00  3.35000478E+00  3.70457933E+00
  3.09995932E+00 -8.66134644E-01 -5.66274351E+00 -7.10280533E-02  7.52223426E-01
 -5.00416451E+00  2.08875495E+00 -5.65533648E-01  2.54813225E+00 -3.85461819E-01
  4.38257870E+00  1.06292821E+00  2.55678276E+00  3.58359737E+00  4.39061850E+00
  2.40031105E+00  4.10281391E+00  4.10229513E+00  2.52514068E+00 -2.80088999E+00
  5.35935748E+00  4.06361787E+00 -9.49628258E-02  2.06819075E+00  4.36927674E+00
 -8.35191391E-01 -3.21405470E+00 -3.19410312E+00  1.68805512E+00 -7.41945696E+00
 -6.99761459E-01  1.58026232E+00 -6.19954696E+00  3.67590353E+00 -1.04597598E+00
Force Field                                I                0
Int Atom Types                             I   N=          20
           0           0           0           0           0           0
           0           0           0           0           0           0
           0           0           0           0           0           0
           0           0
MM charges                                 R   N=          20
  0.00000000E+00  0.00000000E+00  0.00000000E+00  0.00000000E+00  0.00000000E+00
  0.00000000E+00  0.00000000E+00  0.00000000E+00  0.00000000E+00  0.00000000E+00
  0.00000000E+00  0.00000000E+00  0.00000000E+00  0.00000000E+00  0.00000000E+00
  0.00000000E+00  0.00000000E+00  0.00000000E+00  0.00000000E+00  0.00000000E+00
Integer atomic weights                     I   N=          20
          32          16          16          14          14          14
          12          12          12          12          12           1
           1           1           1           1           1           1
           1           1
Real atomic weights                        R   N=          20
  3.19720718E+01  1.59949146E+01  1.59949146E+01  1.40030740E+01  1.40030740E+01
  1.40030740E+01  1.20000000E+01  1.20000000E+01  1.20000000E+01  1.20000000E+01
  1.20000000E+01  1.00782504E+00  1.00782504E+00  1.00782504E+00  1.00782504E+00
  1.00782504E+00  1.00782504E+00  1.00782504E+00  1.00782504E+00  1.00782504E+00
Atom fragment info                         I   N=          20
           0           0           0           0           0           0
           0           0           0           0           0           0
           0           0           0           0           0           0
           0           0
Atom residue num                           I   N=          20
           0           0           0           0           0           0
           0           0           0           0           0           0
           0           0           0           0           0           0
           0           0
Nuclear spins                              I   N=          20
           0           0           0           2           2           2
           0           0           0           0           0           1
           1           1           1           1           1           1
           1           1
Nuclear ZEff                               R   N=          20
 -1.36000000E+01 -5.60000000E+00 -5.60000000E+00 -4.55000000E+00 -4.55000000E+00
 -4.55000000E+00 -3.60000000E+00 -3.60000000E+00 -3.60000000E+00 -3.60000000E+00
 -3.60000000E+00 -1.00000000E+00 -1.00000000E+00 -1.00000000E+00 -1.00000000E+00
 -1.00000000E+00 -1.00000000E+00 -1.00000000E+00 -1.00000000E+00 -1.00000000E+00
Nuclear QMom                               R   N=          20
  0.00000000E+00  0.00000000E+00  0.00000000E+00  2.04400000E+00  2.04400000E+00
  2.04400000E+00  0.00000000E+00  0.00000000E+00  0.00000000E+00  0.00000000E+00
  0.00000000E+00  0.00000000E+00  0.00000000E+00  0.00000000E+00  0.00000000E+00
  0.00000000E+00  0.00000000E+00  0.00000000E+00  0.00000000E+00  0.00000000E+00
Nuclear GFac                               R   N=          20
  0.00000000E+00  0.00000000E+00  0.00000000E+00  4.03761000E-01  4.03761000E-01
  4.03761000E-01  0.00000000E+00  0.00000000E+00  0.00000000E+00  0.00000000E+00
  0.00000000E+00  2.79284600E+00  2.79284600E+00  2.79284600E+00  2.79284600E+00
  2.79284600E+00  2.79284600E+00  2.79284600E+00  2.79284600E+00  2.79284600E+00
MicOpt                                     I   N=          20
          -1          -1          -1          -1          -1          -1
          -1          -1          -1          -1          -1          -1
          -1          -1          -1          -1          -1          -1
          -1          -1
Number of contracted shells                I               63
Number of primitive shells                 I              163
Pure/Cartesian d shells                    I                1
Pure/Cartesian f shells                    I                0
Highest angular momentum                   I                2
Largest degree of contraction              I                6
Shell types                                I   N=          63
           0          -1          -1          -1           2           0
          -1          -1           2           0          -1          -1
           2           0          -1          -1           2           0
          -1          -1           2           0          -1          -1
           2           0          -1          -1           2           0
          -1          -1           2           0          -1          -1
           2           0          -1          -1           2           0
          -1          -1           2           0           0           0
           0           0           0           0           0           0
           0           0           0           0           0           0
           0           0           0
Number of primitives per shell             I   N=          63
           6           6           3           1           1           6
           3           1           1           6           3           1
           1           6           3           1           1           6
           3           1           1           6           3           1
           1           6           3           1           1           6
           3           1           1           6           3           1
           1           6           3           1           1           6
           3           1           1           3           1           3
           1           3           1           3           1           3
           1           3           1           3           1           3
           1           3           1
Shell to atom map                          I   N=          63
           1           1           1           1           1           2
           2           2           2           3           3           3
           3           4           4           4           4           5
           5           5           5           6           6           6
           6           7           7           7           7           8
           8           8           8           9           9           9
           9          10          10          10          10          11
          11          11          11          12          12          13
          13          14          14          15          15          16
          16          17          17          18          18          19
          19          20          20
Primitive exponents                        R   N=         163
  2.19171000E+04  3.30149000E+03  7.54146000E+02  2.12711000E+02  6.79896000E+01
  2.30515000E+01  4.23735000E+02  1.00710000E+02  3.21599000E+01  1.18079000E+01
  4.63110000E+00  1.87025000E+00  2.61584000E+00  9.22167000E-01  3.41287000E-01
  1.17167000E-01  6.50000000E-01  5.48467166E+03  8.25234946E+02  1.88046958E+02
  5.29645000E+01  1.68975704E+01  5.79963534E+00  1.55396162E+01  3.59993359E+00
  1.01376175E+00  2.70005823E-01  8.00000000E-01  5.48467166E+03  8.25234946E+02
  1.88046958E+02  5.29645000E+01  1.68975704E+01  5.79963534E+00  1.55396162E+01
  3.59993359E+00  1.01376175E+00  2.70005823E-01  8.00000000E-01  4.17351146E+03
  6.27457911E+02  1.42902093E+02  4.02343293E+01  1.28202129E+01  4.39043701E+00
  1.16263619E+01  2.71627981E+00  7.72218397E-01  2.12031498E-01  8.00000000E-01
  4.17351146E+03  6.27457911E+02  1.42902093E+02  4.02343293E+01  1.28202129E+01
  4.39043701E+00  1.16263619E+01  2.71627981E+00  7.72218397E-01  2.12031498E-01
  8.00000000E-01  4.17351146E+03  6.27457911E+02  1.42902093E+02  4.02343293E+01
  1.28202129E+01  4.39043701E+00  1.16263619E+01  2.71627981E+00  7.72218397E-01
  2.12031498E-01  8.00000000E-01  3.04752488E+03  4.57369518E+02  1.03948685E+02
  2.92101553E+01  9.28666296E+00  3.16392696E+00  7.86827235E+00  1.88128854E+00
  5.44249258E-01  1.68714478E-01  8.00000000E-01  3.04752488E+03  4.57369518E+02
  1.03948685E+02  2.92101553E+01  9.28666296E+00  3.16392696E+00  7.86827235E+00
  1.88128854E+00  5.44249258E-01  1.68714478E-01  8.00000000E-01  3.04752488E+03
  4.57369518E+02  1.03948685E+02  2.92101553E+01  9.28666296E+00  3.16392696E+00
  7.86827235E+00  1.88128854E+00  5.44249258E-01  1.68714478E-01  8.00000000E-01
  3.04752488E+03  4.57369518E+02  1.03948685E+02  2.92101553E+01  9.28666296E+00
  3.16392696E+00  7.86827235E+00  1.88128854E+00  5.44249258E-01  1.68714478E-01
  8.00000000E-01  3.04752488E+03  4.57369518E+02  1.03948685E+02  2.92101553E+01
  9.28666296E+00  3.16392696E+00  7.86827235E+00  1.88128854E+00  5.44249258E-01
  1.68714478E-01  8.00000000E-01  1.87311370E+01  2.82539436E+00  6.40121692E-01
  1.61277759E-01  1.87311370E+01  2.82539436E+00  6.40121692E-01  1.61277759E-01
  1.87311370E+01  2.82539436E+00  6.40121692E-01  1.61277759E-01  1.87311370E+01
  2.82539436E+00  6.40121692E-01  1.61277759E-01  1.87311370E+01  2.82539436E+00
  6.40121692E-01  1.61277759E-01  1.87311370E+01  2.82539436E+00  6.40121692E-01
  1.61277759E-01  1.87311370E+01  2.82539436E+00  6.40121692E-01  1.61277759E-01
  1.87311370E+01  2.82539436E+00  6.40121692E-01  1.61277759E-01  1.87311370E+01
  2.82539436E+00  6.40121692E-01  1.61277759E-01
Contraction coefficients                   R   N=         163
  1.86924085E-03  1.42303065E-02  6.96962317E-02  2.38487108E-01  4.83307220E-01
  3.38074154E-01 -2.37677050E-03 -3.16930067E-02 -1.13317024E-01  5.60900118E-02
  5.92255124E-01  4.55006095E-01 -2.50373114E-01  6.69567631E-02  1.05450627E+00
  1.00000000E+00  1.00000000E+00  1.83107443E-03  1.39501722E-02  6.84450781E-02
  2.32714336E-01  4.70192898E-01  3.58520853E-01 -1.10777550E-01 -1.48026263E-01
  1.13076702E+00  1.00000000E+00  1.00000000E+00  1.83107443E-03  1.39501722E-02
  6.84450781E-02  2.32714336E-01  4.70192898E-01  3.58520853E-01 -1.10777550E-01
 -1.48026263E-01  1.13076702E+00  1.00000000E+00  1.00000000E+00  1.83477216E-03
  1.39946270E-02  6.85865518E-02  2.32240873E-01  4.69069948E-01  3.60455199E-01
 -1.14961182E-01 -1.69117479E-01  1.14585195E+00  1.00000000E+00  1.00000000E+00
  1.83477216E-03  1.39946270E-02  6.85865518E-02  2.32240873E-01  4.69069948E-01
  3.60455199E-01 -1.14961182E-01 -1.69117479E-01  1.14585195E+00  1.00000000E+00
  1.00000000E+00  1.83477216E-03  1.39946270E-02  6.85865518E-02  2.32240873E-01
  4.69069948E-01  3.60455199E-01 -1.14961182E-01 -1.69117479E-01  1.14585195E+00
  1.00000000E+00  1.00000000E+00  1.83473713E-03  1.40373228E-02  6.88426223E-02
  2.32184443E-01  4.67941348E-01  3.62311985E-01 -1.19332420E-01 -1.60854152E-01
  1.14345644E+00  1.00000000E+00  1.00000000E+00  1.83473713E-03  1.40373228E-02
  6.88426223E-02  2.32184443E-01  4.67941348E-01  3.62311985E-01 -1.19332420E-01
 -1.60854152E-01  1.14345644E+00  1.00000000E+00  1.00000000E+00  1.83473713E-03
  1.40373228E-02  6.88426223E-02  2.32184443E-01  4.67941348E-01  3.62311985E-01
 -1.19332420E-01 -1.60854152E-01  1.14345644E+00  1.00000000E+00  1.00000000E+00
  1.83473713E-03  1.40373228E-02  6.88426223E-02  2.32184443E-01  4.67941348E-01
  3.62311985E-01 -1.19332420E-01 -1.60854152E-01  1.14345644E+00  1.00000000E+00
  1.00000000E+00  1.83473713E-03  1.40373228E-02  6.88426223E-02  2.32184443E-01
  4.67941348E-01  3.62311985E-01 -1.19332420E-01 -1.60854152E-01  1.14345644E+00
  1.00000000E+00  1.00000000E+00  3.34946043E-02  2.34726953E-01  8.13757326E-01
  1.00000000E+00  3.34946043E-02  2.34726953E-01  8.13757326E-01  1.00000000E+00
  3.34946043E-02  2.34726953E-01  8.13757326E-01  1.00000000E+00  3.34946043E-02
  2.34726953E-01  8.13757326E-01  1.00000000E+00  3.34946043E-02  2.34726953E-01
  8.13757326E-01  1.00000000E+00  3.34946043E-02  2.34726953E-01  8.13757326E-01
  1.00000000E+00  3.34946043E-02  2.34726953E-01  8.13757326E-01  1.00000000E+00
  3.34946043E-02  2.34726953E-01  8.13757326E-01  1.00000000E+00  3.34946043E-02
  2.34726953E-01  8.13757326E-01  1.00000000E+00
P(S=P) Contraction coefficients            R   N=         163
  0.00000000E+00  0.00000000E+00  0.00000000E+00  0.00000000E+00  0.00000000E+00
  0.00000000E+00  4.06100998E-03  3.06812999E-02  1.30451999E-01  3.27204999E-01
  4.52850998E-01  2.56041999E-01 -1.45104895E-02  3.10262776E-01  7.54482456E-01
  1.00000000E+00  0.00000000E+00  0.00000000E+00  0.00000000E+00  0.00000000E+00
  0.00000000E+00  0.00000000E+00  0.00000000E+00  7.08742682E-02  3.39752839E-01
  7.27158577E-01  1.00000000E+00  0.00000000E+00  0.00000000E+00  0.00000000E+00
  0.00000000E+00  0.00000000E+00  0.00000000E+00  0.00000000E+00  7.08742682E-02
  3.39752839E-01  7.27158577E-01  1.00000000E+00  0.00000000E+00  0.00000000E+00
  0.00000000E+00  0.00000000E+00  0.00000000E+00  0.00000000E+00  0.00000000E+00
  6.75797439E-02  3.23907296E-01  7.40895140E-01  1.00000000E+00  0.00000000E+00
  0.00000000E+00  0.00000000E+00  0.00000000E+00  0.00000000E+00  0.00000000E+00
  0.00000000E+00  6.75797439E-02  3.23907296E-01  7.40895140E-01  1.00000000E+00
  0.00000000E+00  0.00000000E+00  0.00000000E+00  0.00000000E+00  0.00000000E+00
  0.00000000E+00  0.00000000E+00  6.75797439E-02  3.23907296E-01  7.40895140E-01
  1.00000000E+00  0.00000000E+00  0.00000000E+00  0.00000000E+00  0.00000000E+00
  0.00000000E+00  0.00000000E+00  0.00000000E+00  6.89990666E-02  3.16423961E-01
  7.44308291E-01  1.00000000E+00  0.00000000E+00  0.00000000E+00  0.00000000E+00
  0.00000000E+00  0.00000000E+00  0.00000000E+00  0.00000000E+00  6.89990666E-02
  3.16423961E-01  7.44308291E-01  1.00000000E+00  0.00000000E+00  0.00000000E+00
  0.00000000E+00  0.00000000E+00  0.00000000E+00  0.00000000E+00  0.00000000E+00
  6.89990666E-02  3.16423961E-01  7.44308291E-01  1.00000000E+00  0.00000000E+00
  0.00000000E+00  0.00000000E+00  0.00000000E+00  0.00000000E+00  0.00000000E+00
  0.00000000E+00  6.89990666E-02  3.16423961E-01  7.44308291E-01  1.00000000E+00
  0.00000000E+00  0.00000000E+00  0.00000000E+00  0.00000000E+00  0.00000000E+00
  0.00000000E+00  0.00000000E+00  6.89990666E-02  3.16423961E-01  7.44308291E-01
  1.00000000E+00  0.00000000E+00  0.00000000E+00  0.00000000E+00  0.00000000E+00
  0.00000000E+00  0.00000000E+00  0.00000000E+00  0.00000000E+00  0.00000000E+00
  0.00000000E+00  0.00000000E+00  0.00000000E+00  0.00000000E+00  0.00000000E+00
  0.00000000E+00  0.00000000E+00  0.00000000E+00  0.00000000E+00  0.00000000E+00
  0.00000000E+00  0.00000000E+00  0.00000000E+00  0.00000000E+00  0.00000000E+00
  0.00000000E+00  0.00000000E+00  0.00000000E+00  0.00000000E+00  0.00000000E+00
  0.00000000E+00  0.00000000E+00  0.00000000E+00  0.00000000E+00  0.00000000E+00
  0.00000000E+00  0.00000000E+00  0.00000000E+00
Coordinates of each shell                  R   N=         189
  1.44335184E+00 -1.36461426E+00 -5.90152094E-01  1.44335184E+00 -1.36461426E+00
 -5.90152094E-01  1.44335184E+00 -1.36461426E+00 -5.90152094E-01  1.44335184E+00
 -1.36461426E+00 -5.90152094E-01  1.44335184E+00 -1.36461426E+00 -5.90152094E-01
  1.40386148E+00 -3.54151403E+00  1.12962996E+00  1.40386148E+00 -3.54151403E+00
  1.12962996E+00  1.40386148E+00 -3.54151403E+00  1.12962996E+00  1.40386148E+00
 -3.54151403E+00  1.12962996E+00  2.15256166E+00 -1.60567959E+00 -3.24116259E+00
  2.15256166E+00 -1.60567959E+00 -3.24116259E+00  2.15256166E+00 -1.60567959E+00
 -3.24116259E+00  2.15256166E+00 -1.60567959E+00 -3.24116259E+00  3.28179360E+00
  8.31914441E-01  6.85229755E-01  3.28179360E+00  8.31914441E-01  6.85229755E-01
  3.28179360E+00  8.31914441E-01  6.85229755E-01  3.28179360E+00  8.31914441E-01
  6.85229755E-01 -3.49407167E+00 -1.48102261E+00  8.68220867E-01 -3.49407167E+00
 -1.48102261E+00  8.68220867E-01 -3.49407167E+00 -1.48102261E+00  8.68220867E-01
 -3.49407167E+00 -1.48102261E+00  8.68220867E-01 -2.50771818E+00  2.03067611E+00
 -1.26784721E+00 -2.50771818E+00  2.03067611E+00 -1.26784721E+00 -2.50771818E+00
  2.03067611E+00 -1.26784721E+00 -2.50771818E+00  2.03067611E+00 -1.26784721E+00
 -1.66522166E+00 -1.62631454E-01 -3.74696016E-01 -1.66522166E+00 -1.62631454E-01
 -3.74696016E-01 -1.66522166E+00 -1.62631454E-01 -3.74696016E-01 -1.66522166E+00
 -1.62631454E-01 -3.74696016E-01  2.76029961E+00  1.38306112E+00  3.35000478E+00
  2.76029961E+00  1.38306112E+00  3.35000478E+00  2.76029961E+00  1.38306112E+00
  3.35000478E+00  2.76029961E+00  1.38306112E+00  3.35000478E+00  3.70457933E+00
  3.09995932E+00 -8.66134644E-01  3.70457933E+00  3.09995932E+00 -8.66134644E-01
  3.70457933E+00  3.09995932E+00 -8.66134644E-01  3.70457933E+00  3.09995932E+00
 -8.66134644E-01 -5.66274351E+00 -7.10280533E-02  7.52223426E-01 -5.66274351E+00
 -7.10280533E-02  7.52223426E-01 -5.66274351E+00 -7.10280533E-02  7.52223426E-01
 -5.66274351E+00 -7.10280533E-02  7.52223426E-01 -5.00416451E+00  2.08875495E+00
 -5.65533648E-01 -5.00416451E+00  2.08875495E+00 -5.65533648E-01 -5.00416451E+00
  2.08875495E+00 -5.65533648E-01 -5.00416451E+00  2.08875495E+00 -5.65533648E-01
  2.54813225E+00 -3.85461819E-01  4.38257870E+00  2.54813225E+00 -3.85461819E-01
  4.38257870E+00  1.06292821E+00  2.55678276E+00  3.58359737E+00  1.06292821E+00
  2.55678276E+00  3.58359737E+00  4.39061850E+00  2.40031105E+00  4.10281391E+00
  4.39061850E+00  2.40031105E+00  4.10281391E+00  4.10229513E+00  2.52514068E+00
 -2.80088999E+00  4.10229513E+00  2.52514068E+00 -2.80088999E+00  5.35935748E+00
  4.06361787E+00 -9.49628258E-02  5.35935748E+00  4.06361787E+00 -9.49628258E-02
  2.06819075E+00  4.36927674E+00 -8.35191391E-01  2.06819075E+00  4.36927674E+00
 -8.35191391E-01 -3.21405470E+00 -3.19410312E+00  1.68805512E+00 -3.21405470E+00
 -3.19410312E+00  1.68805512E+00 -7.41945696E+00 -6.99761459E-01  1.58026232E+00
 -7.41945696E+00 -6.99761459E-01  1.58026232E+00 -6.19954696E+00  3.67590353E+00
 -1.04597598E+00 -6.19954696E+00  3.67590353E+00 -1.04597598E+00
Constraint Structure                       R   N=          60
  1.44335184E+00 -1.36461426E+00 -5.90152094E-01  1.40386148E+00 -3.54151403E+00
  1.12962996E+00  2.15256166E+00 -1.60567959E+00 -3.24116259E+00  3.28179360E+00
  8.31914441E-01  6.85229755E-01 -3.49407167E+00 -1.48102261E+00  8.68220867E-01
 -2.50771818E+00  2.03067611E+00 -1.26784721E+00 -1.66522166E+00 -1.62631454E-01
 -3.74696016E-01  2.76029961E+00  1.38306112E+00  3.35000478E+00  3.70457933E+00
  3.09995932E+00 -8.66134644E-01 -5.66274351E+00 -7.10280533E-02  7.52223426E-01
 -5.00416451E+00  2.08875495E+00 -5.65533648E-01  2.54813225E+00 -3.85461819E-01
  4.38257870E+00  1.06292821E+00  2.55678276E+00  3.58359737E+00  4.39061850E+00
  2.40031105E+00  4.10281391E+00  4.10229513E+00  2.52514068E+00 -2.80088999E+00
  5.35935748E+00  4.06361787E+00 -9.49628258E-02  2.06819075E+00  4.36927674E+00
 -8.35191391E-01 -3.21405470E+00 -3.19410312E+00  1.68805512E+00 -7.41945696E+00
 -6.99761459E-01  1.58026232E+00 -6.19954696E+00  3.67590353E+00 -1.04597598E+00
Num ILSW                                   I              100
ILSW                                       I   N=         100
           0           1           0           0           2           0
           0           0           0           0           0          -1
           0           0           0           0           0           0
           0           0           0           0           1           0
           1           0           0           0           0           0
           0           0      100000           0          -1           0
           0           0           0           0           0           0
           0           0           0           1           1           0
           0           0           1           0           0           0
           0           0           4          40           0           0
           0           0           0           0           0           0
           0           0           0           0           0           0
           0           0           0           0           0           0
           0           0           0           0           0           0
           0           0           0           0           0           0
           0           0           0           0           0           0
           0           0           0           0
Num RLSW                                   I               40
RLSW                                       R   N=          40
  1.00000000E+00  1.00000000E+00  1.00000000E+00  1.00000000E+00  1.00000000E+00
  0.00000000E+00  0.00000000E+00  1.00000000E+00  0.00000000E+00  0.00000000E+00
  0.00000000E+00  0.00000000E+00  1.00000000E+00  0.00000000E+00  0.00000000E+00
  0.00000000E+00  0.00000000E+00  1.00000000E+00  0.00000000E+00  0.00000000E+00
  0.00000000E+00  0.00000000E+00  1.00000000E+00  0.00000000E+00  0.00000000E+00
  0.00000000E+00  0.00000000E+00  1.00000000E+00  0.00000000E+00  0.00000000E+00
  0.00000000E+00  0.00000000E+00  0.00000000E+00  0.00000000E+00  0.00000000E+00
  0.00000000E+00  0.00000000E+00  0.00000000E+00  1.00000000E+00  1.00000000E+00
MxBond                                     I                4
NBond                                      I   N=          20
           4           1           1           3           3           2
           3           4           4           3           3           1
           1           1           1           1           1           1
           1           1
IBond                                      I   N=          80
           2           3           4           7           1           0
           0           0           1           0           0           0
           1           8           9           0           7          10
          18           0           7          11           0           0
           1           5           6           0           4          12
          13          14           4          15          16          17
           5          11          19           0           6          10
          20           0           8           0           0           0
           8           0           0           0           8           0
           0           0           9           0           0           0
           9           0           0           0           9           0
           0           0           5           0           0           0
          10           0           0           0          11           0
           0           0
RBond                                      R   N=          80
  2.00000000E+00  2.00000000E+00  1.00000000E+00  1.00000000E+00  2.00000000E+00
  0.00000000E+00  0.00000000E+00  0.00000000E+00  2.00000000E+00  0.00000000E+00
  0.00000000E+00  0.00000000E+00  1.00000000E+00  1.00000000E+00  1.00000000E+00
  0.00000000E+00  1.50000000E+00  1.50000000E+00  1.00000000E+00  0.00000000E+00
  1.50000000E+00  1.00000000E+00  0.00000000E+00  0.00000000E+00  1.00000000E+00
  1.50000000E+00  1.50000000E+00  0.00000000E+00  1.00000000E+00  1.00000000E+00
  1.00000000E+00  1.00000000E+00  1.00000000E+00  1.00000000E+00  1.00000000E+00
  1.00000000E+00  1.50000000E+00  1.50000000E+00  1.00000000E+00  0.00000000E+00
  1.00000000E+00  1.50000000E+00  1.00000000E+00  0.00000000E+00  1.00000000E+00
  0.00000000E+00  0.00000000E+00  0.00000000E+00  1.00000000E+00  0.00000000E+00
  0.00000000E+00  0.00000000E+00  1.00000000E+00  0.00000000E+00  0.00000000E+00
  0.00000000E+00  1.00000000E+00  0.00000000E+00  0.00000000E+00  0.00000000E+00
  1.00000000E+00  0.00000000E+00  0.00000000E+00  0.00000000E+00  1.00000000E+00
  0.00000000E+00  0.00000000E+00  0.00000000E+00  1.00000000E+00  0.00000000E+00
  0.00000000E+00  0.00000000E+00  1.00000000E+00  0.00000000E+00  0.00000000E+00
  0.00000000E+00  1.00000000E+00  0.00000000E+00  0.00000000E+00  0.00000000E+00
Virial Ratio                               R      2.002247726701857E+00
SCF Energy                                 R     -9.050516959193561E+02
MP2 Energy                                 R     -9.066990908146868E+02
Total Energy                               R     -9.066990908146868E+02
Post-SCF wavefunction norm                 R      1.757026532423369E+00
RMS Force                                  R      2.609649149629492E-07
RMS Density                                R      2.456864159072107E-09
External E-field                           R   N=          35
  0.00000000E+00  0.00000000E+00  0.00000000E+00  0.00000000E+00  0.00000000E+00
  0.00000000E+00  0.00000000E+00  0.00000000E+00  0.00000000E+00  0.00000000E+00
  0.00000000E+00  0.00000000E+00  0.00000000E+00  0.00000000E+00  0.00000000E+00
  0.00000000E+00  0.00000000E+00  0.00000000E+00  0.00000000E+00  0.00000000E+00
  0.00000000E+00  0.00000000E+00  0.00000000E+00  0.00000000E+00  0.00000000E+00
  0.00000000E+00  0.00000000E+00  0.00000000E+00  0.00000000E+00  0.00000000E+00
  0.00000000E+00  0.00000000E+00  0.00000000E+00  0.00000000E+00  0.00000000E+00
IOpCl                                      I                0
IROHF                                      I                0
Alpha Orbital Energies                     R   N=         187
 -9.22242304E+01 -2.05669363E+01 -2.05642536E+01 -1.56606036E+01 -1.56154200E+01
 -1.55896347E+01 -1.13370877E+01 -1.12947938E+01 -1.12760404E+01 -1.12729665E+01
 -1.12663245E+01 -9.19446919E+00 -6.88045645E+00 -6.88033102E+00 -6.87986882E+00
 -1.46762601E+00 -1.36979769E+00 -1.34610919E+00 -1.25878853E+00 -1.19742492E+00
 -1.04985986E+00 -9.81875156E-01 -9.61280887E-01 -8.77471018E-01 -8.39398054E-01
 -8.17779187E-01 -7.52964290E-01 -7.10468556E-01 -6.76170638E-01 -6.67375005E-01
 -6.41271856E-01 -6.31398323E-01 -6.22648006E-01 -6.15266753E-01 -6.06790243E-01
 -5.77618436E-01 -5.70931487E-01 -5.41359780E-01 -5.08903866E-01 -5.02196261E-01
 -4.81114770E-01 -4.73430972E-01 -4.66502797E-01 -4.24558432E-01 -4.14208731E-01
 -3.43281456E-01  1.25438192E-01  1.99039412E-01  2.15174854E-01  2.32392981E-01
  2.34138553E-01  2.60306991E-01  2.70361193E-01  2.84485607E-01  2.87556643E-01
  2.97298847E-01  3.12899092E-01  3.15736861E-01  3.25144387E-01  3.43927579E-01
  3.60934578E-01  3.72567915E-01  3.78443103E-01  4.00990233E-01  4.29096966E-01
  4.51123300E-01  5.02379821E-01  5.30401686E-01  5.66987153E-01  5.91459786E-01
  6.24979985E-01  7.01669781E-01  7.09152707E-01  7.24983778E-01  7.44276139E-01
  7.56583080E-01  7.64220568E-01  7.78715366E-01  8.05054782E-01  8.24845082E-01
  8.45006972E-01  8.60384747E-01  8.77204227E-01  9.06231734E-01  9.19761091E-01
  9.47036533E-01  9.70034222E-01  9.93997603E-01  1.01496231E+00  1.02630180E+00
  1.02835086E+00  1.03168682E+00  1.05929191E+00  1.06939166E+00  1.07423531E+00
  1.09743153E+00  1.12639152E+00  1.13176836E+00  1.14026396E+00  1.15243778E+00
  1.16378453E+00  1.17807294E+00  1.19977003E+00  1.21008071E+00  1.22002308E+00
  1.25616890E+00  1.26789514E+00  1.27055615E+00  1.30919344E+00  1.31513595E+00
  1.33492465E+00  1.35124378E+00  1.42897443E+00  1.43035946E+00  1.45829464E+00
  1.46698100E+00  1.48655658E+00  1.51876299E+00  1.54923886E+00  1.59803542E+00
  1.60445846E+00  1.62562130E+00  1.63400288E+00  1.65271260E+00  1.69013966E+00
  1.72689576E+00  1.73605873E+00  1.80257164E+00  1.83557702E+00  1.88301288E+00