
    -----------------------------------------------------------------------
          Psi4: An Open-Source Ab Initio Electronic Structure Package
                               Psi4 1.3.2 release

                         Git: Rev {HEAD} ecbda83 


    R. M. Parrish, L. A. Burns, D. G. A. Smith, A. C. Simmonett,
    A. E. DePrince III, E. G. Hohenstein, U. Bozkaya, A. Yu. Sokolov,
    R. Di Remigio, R. M. Richard, J. F. Gonthier, A. M. James,
    H. R. McAlexander, A. Kumar, M. Saitow, X. Wang, B. P. Pritchard,
    P. Verma, H. F. Schaefer III, K. Patkowski, R. A. King, E. F. Valeev,
    F. A. Evangelista, J. M. Turney, T. D. Crawford, and C. D. Sherrill,
    J. Chem. Theory Comput. 13(7) pp 3185--3197 (2017).
    (doi: 10.1021/acs.jctc.7b00174)


                         Additional Contributions by
    P. Kraus, H. Kruse, M. H. Lechner, M. C. Schieber, R. A. Shaw,
    A. Alenaizan, R. Galvelis, Z. L. Glick, S. Lehtola, and J. P. Misiewicz

    -----------------------------------------------------------------------


    Psi4 started on: Monday, 09 November 2020 01:37AM

    Process ID: 19117
    Host:       node37.bme.utexas.edu
    PSIDATADIR: /home/xy3866/psi4conda/share/psi4
    Memory:     500.0 MiB
    Threads:    8
    
  ==> Input File <==

--------------------------------------------------------------------------
#psi4
#
memory 32 gb

molecule  {
0 1
  O       -1.4243350     1.8531120    -0.0084660
  N       -1.1176450    -0.4263010     0.0065070
  N        0.7429240     1.0712790     0.0095610
  N        2.8919430     0.2615640    -0.0759850
  C       -0.2733660    -1.4960510    -0.0007800
  C        1.0765330    -1.3300920    -0.0040440
  C       -0.6338910     0.9109410     0.0155220
  C       -2.5617390    -0.6507120     0.0005160
  C        1.5376510     0.0247200    -0.0002060
  H       -0.7522370    -2.4720050    -0.0099570
  H        1.7553550    -2.1750520    -0.0313920
  H       -2.8635010    -1.2105310     0.8892080
  H       -2.8583950    -1.1972750    -0.8980640
  H       -3.0263160     0.3321150     0.0069490
  H        3.5027140    -0.4263080     0.3467730
  H        3.1229134     1.2411413     0.2650707
units angstrom
no_reorient  #important for SAPT in psi4, default
symmetry c1  #important for SAPT in psi4, default
}

set PROPERTIES_ORIGIN ["COM"]
properties('MP2/aug-cc-pvtz', properties = ['dipole'])
--------------------------------------------------------------------------

  Memory set to  29.802 GiB by Python driver.
    SCF Algorithm Type (re)set to DF.

*** tstart() called on node37.bme.utexas.edu
*** at Mon Nov  9 01:37:19 2020

   => Loading Basis Set <=

    Name: AUG-CC-PVTZ
    Role: ORBITAL
    Keyword: BASIS
    atoms 1     entry O          line   327 file /home/xy3866/psi4conda/share/psi4/basis/aug-cc-pvtz.gbs 
    atoms 2-4   entry N          line   281 file /home/xy3866/psi4conda/share/psi4/basis/aug-cc-pvtz.gbs 
    atoms 5-9   entry C          line   235 file /home/xy3866/psi4conda/share/psi4/basis/aug-cc-pvtz.gbs 
    atoms 10-16 entry H          line    36 file /home/xy3866/psi4conda/share/psi4/basis/aug-cc-pvtz.gbs 


         ---------------------------------------------------------
                                   SCF
               by Justin Turney, Rob Parrish, Andy Simmonett
                          and Daniel G. A. Smith
                              RHF Reference
                        8 Threads,  30517 MiB Core
         ---------------------------------------------------------

  ==> Geometry <==

    Molecular point group: c1
    Full point group: C1

    Geometry (in Angstrom), charge = 0, multiplicity = 1:

       Center              X                  Y                   Z               Mass       
    ------------   -----------------  -----------------  -----------------  -----------------
         O           -1.432976997269     1.806044018005    -0.006312597166    15.994914619570
         N           -1.126286997269    -0.473368981995     0.008660402834    14.003074004430
         N            0.734282002731     1.024211018005     0.011714402834    14.003074004430
         N            2.883301002731     0.214496018005    -0.073831597166    14.003074004430
         C           -0.282007997269    -1.543118981995     0.001373402834    12.000000000000
         C            1.067891002731    -1.377159981995    -0.001890597166    12.000000000000
         C           -0.642532997269     0.863873018005     0.017675402834    12.000000000000
         C           -2.570380997269    -0.697779981995     0.002669402834    12.000000000000
         C            1.529009002731    -0.022347981995     0.001947402834    12.000000000000
         H           -0.760878997269    -2.519072981995    -0.007803597166     1.007825032230
         H            1.746713002731    -2.222119981995    -0.029238597166     1.007825032230
         H           -2.872142997269    -1.257598981995     0.891361402834     1.007825032230
         H           -2.867036997269    -1.244342981995    -0.895910597166     1.007825032230
         H           -3.034957997269     0.285047018005     0.009102402834     1.007825032230
         H            3.494072002731    -0.473375981995     0.348926402834     1.007825032230
         H            3.114271402731     1.194073318005     0.267224102834     1.007825032230

  Running in c1 symmetry.

  Rotational constants: A =      0.10894  B =      0.04746  C =      0.03330 [cm^-1]
  Rotational constants: A =   3265.92226  B =   1422.78870  C =    998.42882 [MHz]
  Nuclear repulsion =  440.764095255600409

  Charge       = 0
  Multiplicity = 1
  Electrons    = 66
  Nalpha       = 33
  Nbeta        = 33

  ==> Algorithm <==

  SCF Algorithm Type is DF.
  DIIS enabled.
  MOM disabled.
  Fractional occupation disabled.
  Guess Type is SAD.
  Energy threshold   = 1.00e-10
  Density threshold  = 1.00e-10
  Integral threshold = 0.00e+00

  ==> Primary Basis <==

  Basis Set: AUG-CC-PVTZ
    Blend: AUG-CC-PVTZ
    Number of shells: 189
    Number of basis function: 575
    Number of Cartesian functions: 670
    Spherical Harmonics?: true
    Max angular momentum: 3

   => Loading Basis Set <=

    Name: (AUG-CC-PVTZ AUX)
    Role: JKFIT
    Keyword: DF_BASIS_SCF
    atoms 1     entry O          line   286 file /home/xy3866/psi4conda/share/psi4/basis/aug-cc-pvtz-jkfit.gbs 
    atoms 2-4   entry N          line   224 file /home/xy3866/psi4conda/share/psi4/basis/aug-cc-pvtz-jkfit.gbs 
    atoms 5-9   entry C          line   162 file /home/xy3866/psi4conda/share/psi4/basis/aug-cc-pvtz-jkfit.gbs 
    atoms 10-16 entry H          line    70 file /home/xy3866/psi4conda/share/psi4/basis/aug-cc-pvtz-jkfit.gbs 

  ==> Pre-Iterations <==

   -------------------------------------------------------
    Irrep   Nso     Nmo     Nalpha   Nbeta   Ndocc  Nsocc
   -------------------------------------------------------
     A        575     575       0       0       0       0
   -------------------------------------------------------
    Total     575     575      33      33      33       0
   -------------------------------------------------------

  ==> Integral Setup <==

  DFHelper Memory: AOs need 3.049 GiB; user supplied 22.352 GiB. Using in-core AOs.

  ==> MemDFJK: Density-Fitted J/K Matrices <==

    J tasked:                   Yes
    K tasked:                   Yes
    wK tasked:                   No
    OpenMP threads:               8
    Memory [MiB]:             22888
    Algorithm:                 Disk
    Schwarz Cutoff:           1E-12
    Mask sparsity (%):       4.7685
    Fitting Condition:        1E-10

   => Auxiliary Basis Set <=

  Basis Set: (AUG-CC-PVTZ AUX)
    Blend: AUG-CC-PVTZ-JKFIT
    Number of shells: 368
    Number of basis function: 1258
    Number of Cartesian functions: 1564
    Spherical Harmonics?: true
    Max angular momentum: 4

  Minimum eigenvalue in the overlap matrix is 2.2202479801E-06.
  Using Symmetric Orthogonalization.

  SCF Guess: Superposition of Atomic Densities via on-the-fly atomic UHF.

  ==> Iterations <==

                           Total Energy        Delta E     RMS |[F,P]|

   @DF-RHF iter SAD:  -431.13816743045612   -4.31138e+02   0.00000e+00 
   @DF-RHF iter   1:  -431.52310353366886   -3.84936e-01   1.28895e-03 DIIS
   @DF-RHF iter   2:  -431.73202573960873   -2.08922e-01   7.21818e-04 DIIS
   @DF-RHF iter   3:  -431.79169000052178   -5.96643e-02   1.52995e-04 DIIS
   @DF-RHF iter   4:  -431.79605414870986   -4.36415e-03   6.52328e-05 DIIS
   @DF-RHF iter   5:  -431.79692350530775   -8.69357e-04   1.41255e-05 DIIS
   @DF-RHF iter   6:  -431.79701370383515   -9.01985e-05   7.41201e-06 DIIS
   @DF-RHF iter   7:  -431.79703885050048   -2.51467e-05   2.63237e-06 DIIS
   @DF-RHF iter   8:  -431.79704307216457   -4.22166e-06   1.07929e-06 DIIS
   @DF-RHF iter   9:  -431.79704361131354   -5.39149e-07   4.17686e-07 DIIS
   @DF-RHF iter  10:  -431.79704371040549   -9.90919e-08   1.45474e-07 DIIS
   @DF-RHF iter  11:  -431.79704372228127   -1.18758e-08   5.42160e-08 DIIS
   @DF-RHF iter  12:  -431.79704372368269   -1.40142e-09   1.65384e-08 DIIS
   @DF-RHF iter  13:  -431.79704372385322   -1.70530e-10   6.38105e-09 DIIS
   @DF-RHF iter  14:  -431.79704372387840   -2.51816e-11   2.93265e-09 DIIS
   @DF-RHF iter  15:  -431.79704372388210   -3.69482e-12   1.27179e-09 DIIS
   @DF-RHF iter  16:  -431.79704372388358   -1.47793e-12   4.24269e-10 DIIS
   @DF-RHF iter  17:  -431.79704372388483   -1.25056e-12   2.15523e-10 DIIS
   @DF-RHF iter  18:  -431.79704372388323    1.59162e-12   5.50357e-11 DIIS
  Energy and wave function converged.


  ==> Post-Iterations <==

    Orbital Energies [Eh]
    ---------------------

    Doubly Occupied:                                                      

       1A    -20.504147     2A    -15.626130     3A    -15.595522  
       4A    -15.544508     5A    -11.372851     6A    -11.349170  
       7A    -11.327736     8A    -11.270916     9A    -11.246297  
      10A     -1.383162    11A     -1.296072    12A     -1.266723  
      13A     -1.169040    14A     -1.072799    15A     -0.965027  
      16A     -0.898986    17A     -0.853164    18A     -0.755006  
      19A     -0.722814    20A     -0.686062    21A     -0.665204  
      22A     -0.656099    23A     -0.620669    24A     -0.598780  
      25A     -0.591403    26A     -0.580750    27A     -0.559435  
      28A     -0.523331    29A     -0.476915    30A     -0.441425  
      31A     -0.420388    32A     -0.389967    33A     -0.339426  

    Virtual:                                                              

      34A      0.017180    35A      0.025697    36A      0.036266  
      37A      0.041334    38A      0.048176    39A      0.057596  
      40A      0.071725    41A      0.077006    42A      0.080491  
      43A      0.084082    44A      0.096813    45A      0.100867  
      46A      0.102286    47A      0.104806    48A      0.115200  
      49A      0.116608    50A      0.128077    51A      0.132819  
      52A      0.133163    53A      0.136062    54A      0.141855  
      55A      0.148124    56A      0.151594    57A      0.163603  
      58A      0.167189    59A      0.169815    60A      0.177488  
      61A      0.183175    62A      0.198676    63A      0.202317  
      64A      0.211038    65A      0.221033    66A      0.225619  
      67A      0.228737    68A      0.233619    69A      0.236479  
      70A      0.247657    71A      0.251978    72A      0.259126  
      73A      0.263120    74A      0.271275    75A      0.272769  
      76A      0.283030    77A      0.287980    78A      0.292145  
      79A      0.300190    80A      0.304315    81A      0.308518  
      82A      0.313352    83A      0.321446    84A      0.334442  
      85A      0.337246    86A      0.340630    87A      0.350389  
      88A      0.352822    89A      0.360160    90A      0.363141  
      91A      0.369389    92A      0.372094    93A      0.389323  
      94A      0.394102    95A      0.397167    96A      0.401244  
      97A      0.404736    98A      0.412517    99A      0.419780  
     100A      0.424799   101A      0.428602   102A      0.430603  
     103A      0.434481   104A      0.439804   105A      0.443727  
     106A      0.451479   107A      0.459800   108A      0.464222  
     109A      0.467985   110A      0.471769   111A      0.477300  
     112A      0.485964   113A      0.494253   114A      0.496892  
     115A      0.500148   116A      0.506469   117A      0.511506  
     118A      0.518841   119A      0.524001   120A      0.531631  
     121A      0.536413   122A      0.540147   123A      0.547414  
     124A      0.556778   125A      0.563289   126A      0.572535  
     127A      0.579669   128A      0.590662   129A      0.598563  
     130A      0.601734   131A      0.607241   132A      0.619495  
     133A      0.626969   134A      0.636244   135A      0.648950  
     136A      0.652958   137A      0.663184   138A      0.666556  
     139A      0.677276   140A      0.695850   141A      0.704875  
     142A      0.705101   143A      0.715866   144A      0.716501  
     145A      0.726752   146A      0.737476   147A      0.744086  
     148A      0.754339   149A      0.756970   150A      0.766938  
     151A      0.772121   152A      0.785819   153A      0.789615  
     154A      0.794291   155A      0.801866   156A      0.815265  
     157A      0.823835   158A      0.836946   159A      0.840913  
     160A      0.850253   161A      0.851053   162A      0.873587  
     163A      0.878291   164A      0.881668   165A      0.892413  
     166A      0.898305   167A      0.899444   168A      0.904785  
     169A      0.909932   170A      0.911084   171A      0.922237  
     172A      0.930970   173A      0.935075   174A      0.942838  
     175A      0.947050   176A      0.957263   177A      0.965171  
     178A      0.969285   179A      0.982385   180A      0.987292  
     181A      0.995720   182A      1.004591   183A      1.010459  
     184A      1.012457   185A      1.028503   186A      1.033365  
     187A      1.035332   188A      1.042002   189A      1.047144  
     190A      1.055385   191A      1.058993   192A      1.068027  
     193A      1.077906   194A      1.085423   195A      1.090397  
     196A      1.100369   197A      1.104369   198A      1.119200  
     199A      1.126810   200A      1.133110   201A      1.138781  
     202A      1.147671   203A      1.156685   204A      1.159201  
     205A      1.167700   206A      1.174156   207A      1.177556  
     208A      1.179855   209A      1.190499   210A      1.199821  
     211A      1.205127   212A      1.211644   213A      1.225227  
     214A      1.230268   215A      1.237092   216A      1.241973  
     217A      1.249931   218A      1.258741   219A      1.281288  
     220A      1.288321   221A      1.303336   222A      1.308027  
     223A      1.314537   224A      1.316864   225A      1.323932  
     226A      1.330195   227A      1.351942   228A      1.362330  
     229A      1.375514   230A      1.391341   231A      1.401148  
     232A      1.407186   233A      1.416611   234A      1.419336  
     235A      1.438508   236A      1.443260   237A      1.448245  
     238A      1.461794   239A      1.468306   240A      1.471409  
     241A      1.482875   242A      1.492411   243A      1.502600  
     244A      1.512334   245A      1.517964   246A      1.539567  
     247A      1.542167   248A      1.554583   249A      1.566894  
     250A      1.577583   251A      1.589505   252A      1.594523  
     253A      1.595003   254A      1.610496   255A      1.630142  
     256A      1.634043   257A      1.638483   258A      1.650713  
     259A      1.657127   260A      1.665869   261A      1.688366  
     262A      1.692182   263A      1.699517   264A      1.710723  
     265A      1.719851   266A      1.735389   267A      1.747287  
     268A      1.757481   269A      1.765591   270A      1.773672  
     271A      1.785619   272A      1.804002   273A      1.814004  
     274A      1.818641   275A      1.838894   276A      1.858639  
     277A      1.866809   278A      1.875956   279A      1.882443  
     280A      1.896654   281A      1.897984   282A      1.924739  
     283A      1.931549   284A      1.940043   285A      1.944148  
     286A      1.960680   287A      1.972292   288A      1.994170  
     289A      2.001597   290A      2.023604   291A      2.027818  
     292A      2.037737   293A      2.054075   294A      2.068179  
     295A      2.077874   296A      2.092393   297A      2.094785  
     298A      2.103002   299A      2.124830   300A      2.148368  
     301A      2.174140   302A      2.181413   303A      2.188538  
     304A      2.199303   305A      2.210195   306A      2.218449  
     307A      2.224185   308A      2.229317   309A      2.244459  
     310A      2.246860   311A      2.265329   312A      2.283452  
     313A      2.298343   314A      2.312912   315A      2.342717  
     316A      2.353165   317A      2.359329   318A      2.369899  
     319A      2.386647   320A      2.391304   321A      2.399492  
     322A      2.427744   323A      2.433420   324A      2.441764  
     325A      2.463784   326A      2.487092   327A      2.494083  
     328A      2.513638   329A      2.522910   330A      2.535863  
     331A      2.552120   332A      2.558178   333A      2.575944  
     334A      2.600095   335A      2.614342   336A      2.622595  
     337A      2.625564   338A      2.654711   339A      2.678506  
     340A      2.688825   341A      2.696600   342A      2.730799  
     343A      2.737950   344A      2.757286   345A      2.765046  
     346A      2.772970   347A      2.797628   348A      2.829251  
     349A      2.846429   350A      2.875327   351A      2.899674  
     352A      2.931784   353A      2.961964   354A      2.990769  
     355A      3.003970   356A      3.016877   357A      3.047862  
     358A      3.064600   359A      3.069061   360A      3.082814  
     361A      3.165411   362A      3.182547   363A      3.211818  
     364A      3.223682   365A      3.227474   366A      3.269089  
     367A      3.307120   368A      3.314337   369A      3.329885  
     370A      3.365302   371A      3.396231   372A      3.402696  
     373A      3.436468   374A      3.464197   375A      3.469444  
     376A      3.484220   377A      3.503723   378A      3.509215  
     379A      3.525074   380A      3.545444   381A      3.564354  
     382A      3.580283   383A      3.603441   384A      3.606598  
     385A      3.622115   386A      3.659643   387A      3.660887  
     388A      3.670860   389A      3.685445   390A      3.695601  
     391A      3.702404   392A      3.722013   393A      3.739802  
     394A      3.746003   395A      3.764614   396A      3.790803  
     397A      3.804563   398A      3.810672   399A      3.811904  
     400A      3.822147   401A      3.833814   402A      3.866511  
     403A      3.873255   404A      3.908033   405A      3.912071  
     406A      3.920716   407A      3.938142   408A      3.946786  
     409A      3.968495   410A      3.976449   411A      4.000549  
     412A      4.013830   413A      4.024634   414A      4.031078  
     415A      4.046025   416A      4.072447   417A      4.086725  
     418A      4.098066   419A      4.103281   420A      4.103372  
     421A      4.131386   422A      4.141823   423A      4.149671  
     424A      4.157313   425A      4.172274   426A      4.202187  
     427A      4.221254   428A      4.236917   429A      4.245208  
     430A      4.250303   431A      4.268279   432A      4.274390  
     433A      4.299231   434A      4.313070   435A      4.319484  
     436A      4.344104   437A      4.345513   438A      4.364246  
     439A      4.395504   440A      4.409420   441A      4.417133  
     442A      4.434478   443A      4.454351   444A      4.461997  
     445A      4.476671   446A      4.513252   447A      4.525306  
     448A      4.552338   449A      4.557808   450A      4.569390  
     451A      4.591391   452A      4.625573   453A      4.639513  
     454A      4.659835   455A      4.668571   456A      4.682073  
     457A      4.699868   458A      4.709434   459A      4.753108  
     460A      4.757527   461A      4.766451   462A      4.786668  
     463A      4.801141   464A      4.831043   465A      4.856645  
     466A      4.869287   467A      4.882939   468A      4.888725  
     469A      4.922103   470A      4.934390   471A      4.961757  
     472A      4.975611   473A      5.009515   474A      5.015994  
     475A      5.039330   476A      5.048631   477A      5.074867  
     478A      5.089541   479A      5.096204   480A      5.105818  
     481A      5.151895   482A      5.177946   483A      5.186213  
     484A      5.204863   485A      5.216777   486A      5.225983  
     487A      5.233307   488A      5.257582   489A      5.285206  
     490A      5.300158   491A      5.311317   492A      5.346601  
     493A      5.374541   494A      5.379333   495A      5.409590  
     496A      5.463132   497A      5.463446   498A      5.493657  
     499A      5.525189   500A      5.540555   501A      5.592928  
     502A      5.604504   503A      5.635499   504A      5.660454  
     505A      5.678044   506A      5.694778   507A      5.697848  
     508A      5.718387   509A      5.769160   510A      5.794744  
     511A      5.807873   512A      5.830194   513A      5.832547  
     514A      5.857079   515A      5.883661   516A      5.902277  
     517A      5.923206   518A      5.940089   519A      5.950219  
     520A      5.957488   521A      5.998427   522A      6.036272  
     523A      6.051686   524A      6.084127   525A      6.104730  
     526A      6.124821   527A      6.163750   528A      6.180645  
     529A      6.201034   530A      6.208843   531A      6.265518  
     532A      6.293178   533A      6.346090   534A      6.380340  
     535A      6.417211   536A      6.537580   537A      6.640751  
     538A      6.651992   539A      6.671175   540A      6.705859  
     541A      6.733843   542A      6.737013   543A      6.771211  
     544A      6.776743   545A      6.828761   546A      6.844498  
     547A      6.909346   548A      6.920959   549A      6.963316  
     550A      6.986540   551A      7.032985   552A      7.040187  
     553A      7.131104   554A      7.176657   555A      7.219921  
     556A      7.250273   557A      7.303667   558A      7.408423  
     559A      7.423463   560A      7.464551   561A      7.702088  
     562A      7.714553   563A      7.847601   564A      7.887760  
     565A      7.980325   566A      8.083157   567A     15.696239  
     568A     15.822300   569A     16.331102   570A     17.485874  
     571A     17.978830   572A     18.686337   573A     19.581472  
     574A     20.285599   575A     20.796454  

    Final Occupation by Irrep:
              A 
    DOCC [    33 ]

  @DF-RHF Final Energy:  -431.79704372388323

   => Energetics <=

    Nuclear Repulsion Energy =            440.7640952556004095
    One-Electron Energy =               -1461.5824260601502829
    Two-Electron Energy =                 589.0212870806666388
    Total Energy =                       -431.7970437238832346

Computation Completed

*** tstop() called on node37.bme.utexas.edu at Mon Nov  9 01:38:44 2020
Module time:
	user time   =     295.97 seconds =       4.93 minutes
	system time =      67.09 seconds =       1.12 minutes
	total time  =         85 seconds =       1.42 minutes
Total time:
	user time   =     295.97 seconds =       4.93 minutes
	system time =      67.09 seconds =       1.12 minutes
	total time  =         85 seconds =       1.42 minutes
   => Loading Basis Set <=

    Name: (AUG-CC-PVTZ AUX)
    Role: RIFIT
    Keyword: DF_BASIS_MP2
    atoms 1     entry O          line   264 file /home/xy3866/psi4conda/share/psi4/basis/aug-cc-pvtz-ri.gbs 
    atoms 2-4   entry N          line   206 file /home/xy3866/psi4conda/share/psi4/basis/aug-cc-pvtz-ri.gbs 
    atoms 5-9   entry C          line   148 file /home/xy3866/psi4conda/share/psi4/basis/aug-cc-pvtz-ri.gbs 
    atoms 10-16 entry H          line    30 file /home/xy3866/psi4conda/share/psi4/basis/aug-cc-pvtz-ri.gbs 


*** tstart() called on node37.bme.utexas.edu
*** at Mon Nov  9 01:38:44 2020


  //>>>>>>>>>>>>>>>>>>>>>>>>>>>>>>>>>>>//
  //               DFMP2               //
  //<<<<<<<<<<<<<<<<<<<<<<<<<<<<<<<<<<<//

	 --------------------------------------------------------
	                          DF-MP2                         
	      2nd-Order Density-Fitted Moller-Plesset Theory     
	              RMP2 Wavefunction,   8 Threads             
	                                                         
	        Rob Parrish, Justin Turney, Andy Simmonett,      
	           Ed Hohenstein, and C. David Sherrill          
	 --------------------------------------------------------

   => Auxiliary Basis Set <=

  Basis Set: (AUG-CC-PVTZ AUX)
    Blend: AUG-CC-PVTZ-RI
    Number of shells: 350
    Number of basis function: 1276
    Number of Cartesian functions: 1609
    Spherical Harmonics?: true
    Max angular momentum: 4

	 --------------------------------------------------------
	                 NBF =   575, NAUX =  1276
	 --------------------------------------------------------
	   CLASS    FOCC     OCC    AOCC    AVIR     VIR    FVIR
	   PAIRS       0      33      33     542     542       0
	 --------------------------------------------------------

  DFHelper Memory: AOs need 3.049 GiB; user supplied 22.352 GiB. Using in-core AOs.


         ------------------------------------------------------------
                                     CPHF                           
                                  Rob Parrish                       
         ------------------------------------------------------------

  ==> Geometry <==

    Molecular point group: c1
    Full point group: C1

    Geometry (in Angstrom), charge = 0, multiplicity = 1:

       Center              X                  Y                   Z               Mass       
    ------------   -----------------  -----------------  -----------------  -----------------
         O           -1.432976997269     1.806044018005    -0.006312597166    15.994914619570
         N           -1.126286997269    -0.473368981995     0.008660402834    14.003074004430
         N            0.734282002731     1.024211018005     0.011714402834    14.003074004430
         N            2.883301002731     0.214496018005    -0.073831597166    14.003074004430
         C           -0.282007997269    -1.543118981995     0.001373402834    12.000000000000
         C            1.067891002731    -1.377159981995    -0.001890597166    12.000000000000
         C           -0.642532997269     0.863873018005     0.017675402834    12.000000000000
         C           -2.570380997269    -0.697779981995     0.002669402834    12.000000000000
         C            1.529009002731    -0.022347981995     0.001947402834    12.000000000000
         H           -0.760878997269    -2.519072981995    -0.007803597166     1.007825032230
         H            1.746713002731    -2.222119981995    -0.029238597166     1.007825032230
         H           -2.872142997269    -1.257598981995     0.891361402834     1.007825032230
         H           -2.867036997269    -1.244342981995    -0.895910597166     1.007825032230
         H           -3.034957997269     0.285047018005     0.009102402834     1.007825032230
         H            3.494072002731    -0.473375981995     0.348926402834     1.007825032230
         H            3.114271402731     1.194073318005     0.267224102834     1.007825032230

  Nuclear repulsion =  440.764095255600409
  Reference energy  = -431.797043723883235

  ==> Basis Set <==

  Basis Set: AUG-CC-PVTZ
    Blend: AUG-CC-PVTZ
    Number of shells: 189
    Number of basis function: 575
    Number of Cartesian functions: 670
    Spherical Harmonics?: true
    Max angular momentum: 3

  ==> CGRSolver (by Rob Parrish) <==

   Number of roots    =         1
   Preconditioning    =    JACOBI
   Convergence cutoff =     1E-06
   Maximum iterations =       100

  ==> CPHFRHamiltonian (by Rob Parrish) <== 

  ==> MemDFJK: Density-Fitted J/K Matrices <==

    J tasked:                   Yes
    K tasked:                   Yes
    wK tasked:                   No
    OpenMP threads:               8
    Memory [MiB]:             22888
    Algorithm:                 Disk
    Schwarz Cutoff:           1E-12
    Mask sparsity (%):       4.7685
    Fitting Condition:        1E-10

   => Auxiliary Basis Set <=

  Basis Set: (AUG-CC-PVTZ AUX)
    Blend: AUG-CC-PVTZ-JKFIT
    Number of shells: 368
    Number of basis function: 1258
    Number of Cartesian functions: 1564
    Spherical Harmonics?: true
    Max angular momentum: 4

  ==> CPHF Iterations <==

  => Iterations <=

             Iter  Converged  Remaining    Residual
  CGR           1          0          1   1.466E-01
  CGR           2          0          1   4.923E-02
  CGR           3          0          1   2.297E-02
  CGR           4          0          1   6.856E-03
  CGR           5          0          1   3.074E-03
  CGR           6          0          1   1.215E-03
  CGR           7          0          1   3.971E-04
  CGR           8          0          1   1.559E-04
  CGR           9          0          1   5.375E-05
  CGR          10          0          1   2.165E-05
  CGR          11          0          1   8.052E-06
  CGR          12          0          1   2.923E-06
  CGR          13          0          1   1.042E-06
  CGR          14          1          0   3.533E-07

    CGRSolver converged.

	-----------------------------------------------------------
	 ==================> DF-MP2 Energies <==================== 
	-----------------------------------------------------------
	 Reference Energy          =    -431.7970437238832346 [Eh]
	 Singles Energy            =      -0.0000000000000000 [Eh]
	 Same-Spin Energy          =      -0.4507353898555789 [Eh]
	 Opposite-Spin Energy      =      -1.3731476647378584 [Eh]
	 Correlation Energy        =      -1.8238830545934372 [Eh]
	 Total Energy              =    -433.6209267784766439 [Eh]
	-----------------------------------------------------------
	 ================> DF-SCS-MP2 Energies <================== 
	-----------------------------------------------------------
	 SCS Same-Spin Scale       =       0.3333333333333333 [-]
	 SCS Opposite-Spin Scale   =       1.2000000000000000 [-]
	 SCS Same-Spin Energy      =      -0.1502451299518596 [Eh]
	 SCS Opposite-Spin Energy  =      -1.6477771976854301 [Eh]
	 SCS Correlation Energy    =      -1.7980223276372898 [Eh]
	 SCS Total Energy          =    -433.5950660515205186 [Eh]
	-----------------------------------------------------------



Properties will be evaluated at  -0.000000,  -0.000000,  -0.000000 [a0]

Properties computed using the MP2 density matrix

  Nuclear Dipole Moment: [e a0]
     X:    -1.1203      Y:    -5.8409      Z:     0.5473

  Electronic Dipole Moment: [e a0]
     X:     1.7430      Y:     3.6115      Z:    -0.1523

  Dipole Moment: [e a0]
     X:     0.6227      Y:    -2.2294      Z:     0.3950     Total:     2.3482

  Dipole Moment: [D]
     X:     1.5828      Y:    -5.6666      Z:     1.0040     Total:     5.9686


*** tstop() called on node37.bme.utexas.edu at Mon Nov  9 01:41:53 2020
Module time:
	user time   =     930.16 seconds =      15.50 minutes
	system time =     112.50 seconds =       1.88 minutes
	total time  =        189 seconds =       3.15 minutes
Total time:
	user time   =    1227.36 seconds =      20.46 minutes
	system time =     179.69 seconds =       2.99 minutes
	total time  =        274 seconds =       4.57 minutes

    Psi4 stopped on: Monday, 09 November 2020 01:41AM
    Psi4 wall time for execution: 0:04:34.85

*** Psi4 exiting successfully. Buy a developer a beer!
