201_2-Butyne Gaussian SP Calculation on node58.bme.utexas.edu           
Freq      RMP2-FC                                                     6-31G(d)            
Number of atoms                            I               10
Info1-9                                    I   N=           9
          21          20        1002           0           0         100
           6           2           1
Charge                                     I                0
Multiplicity                               I                1
Number of electrons                        I               30
Number of alpha electrons                  I               15
Number of beta electrons                   I               15
Number of basis functions                  I               72
Number of independent functions            I               72
Number of point charges in /Mol/           I                0
Number of translation vectors              I                0
Atomic numbers                             I   N=          10
           6           6           6           6           1           1
           1           1           1           1
Nuclear charges                            R   N=          10
  6.00000000E+00  6.00000000E+00  6.00000000E+00  6.00000000E+00  1.00000000E+00
  1.00000000E+00  1.00000000E+00  1.00000000E+00  1.00000000E+00  1.00000000E+00
Current cartesian coordinates              R   N=          30
 -3.92040473E+00 -3.91240262E-05  6.65628408E-05  3.92040536E+00  1.49117181E-05
  2.00630903E-04 -1.15407055E+00  1.40094659E-04  1.76220589E-04  1.15406929E+00
 -6.55772063E-05 -7.36671673E-04 -4.66172540E+00 -3.52546412E-01  1.89726957E+00
 -4.66181407E+00  1.81923047E+00 -6.43159058E-01 -4.66161972E+00 -1.46687878E+00
 -1.25379744E+00  4.66211515E+00 -1.56728859E+00 -1.12522966E+00  4.66101740E+00
 -1.91381786E-01  1.92063363E+00  4.66203042E+00  1.75856326E+00 -7.93957491E-01
Force Field                                I                0
Int Atom Types                             I   N=          10
           0           0           0           0           0           0
           0           0           0           0
MM charges                                 R   N=          10
  0.00000000E+00  0.00000000E+00  0.00000000E+00  0.00000000E+00  0.00000000E+00
  0.00000000E+00  0.00000000E+00  0.00000000E+00  0.00000000E+00  0.00000000E+00
Integer atomic weights                     I   N=          10
          12          12          12          12           1           1
           1           1           1           1
Real atomic weights                        R   N=          10
  1.20000000E+01  1.20000000E+01  1.20000000E+01  1.20000000E+01  1.00782504E+00
  1.00782504E+00  1.00782504E+00  1.00782504E+00  1.00782504E+00  1.00782504E+00
Atom fragment info                         I   N=          10
           0           0           0           0           0           0
           0           0           0           0
Atom residue num                           I   N=          10
           0           0           0           0           0           0
           0           0           0           0
Nuclear spins                              I   N=          10
           0           0           0           0           1           1
           1           1           1           1
Nuclear ZEff                               R   N=          10
 -3.60000000E+00 -3.60000000E+00 -3.60000000E+00 -3.60000000E+00 -1.00000000E+00
 -1.00000000E+00 -1.00000000E+00 -1.00000000E+00 -1.00000000E+00 -1.00000000E+00
Nuclear QMom                               R   N=          10
  0.00000000E+00  0.00000000E+00  0.00000000E+00  0.00000000E+00  0.00000000E+00
  0.00000000E+00  0.00000000E+00  0.00000000E+00  0.00000000E+00  0.00000000E+00
Nuclear GFac                               R   N=          10
  0.00000000E+00  0.00000000E+00  0.00000000E+00  0.00000000E+00  2.79284600E+00
  2.79284600E+00  2.79284600E+00  2.79284600E+00  2.79284600E+00  2.79284600E+00
MicOpt                                     I   N=          10
          -1          -1          -1          -1          -1          -1
          -1          -1          -1          -1
Number of contracted shells                I               28
Number of primitive shells                 I               68
Pure/Cartesian d shells                    I                1
Pure/Cartesian f shells                    I                0
Highest angular momentum                   I                2
Largest degree of contraction              I                6
Shell types                                I   N=          28
           0          -1          -1           2           0          -1
          -1           2           0          -1          -1           2
           0          -1          -1           2           0           0
           0           0           0           0           0           0
           0           0           0           0
Number of primitives per shell             I   N=          28
           6           3           1           1           6           3
           1           1           6           3           1           1
           6           3           1           1           3           1
           3           1           3           1           3           1
           3           1           3           1
Shell to atom map                          I   N=          28
           1           1           1           1           2           2
           2           2           3           3           3           3
           4           4           4           4           5           5
           6           6           7           7           8           8
           9           9          10          10
Primitive exponents                        R   N=          68
  3.04752488E+03  4.57369518E+02  1.03948685E+02  2.92101553E+01  9.28666296E+00
  3.16392696E+00  7.86827235E+00  1.88128854E+00  5.44249258E-01  1.68714478E-01
  8.00000000E-01  3.04752488E+03  4.57369518E+02  1.03948685E+02  2.92101553E+01
  9.28666296E+00  3.16392696E+00  7.86827235E+00  1.88128854E+00  5.44249258E-01
  1.68714478E-01  8.00000000E-01  3.04752488E+03  4.57369518E+02  1.03948685E+02
  2.92101553E+01  9.28666296E+00  3.16392696E+00  7.86827235E+00  1.88128854E+00
  5.44249258E-01  1.68714478E-01  8.00000000E-01  3.04752488E+03  4.57369518E+02
  1.03948685E+02  2.92101553E+01  9.28666296E+00  3.16392696E+00  7.86827235E+00
  1.88128854E+00  5.44249258E-01  1.68714478E-01  8.00000000E-01  1.87311370E+01
  2.82539436E+00  6.40121692E-01  1.61277759E-01  1.87311370E+01  2.82539436E+00
  6.40121692E-01  1.61277759E-01  1.87311370E+01  2.82539436E+00  6.40121692E-01
  1.61277759E-01  1.87311370E+01  2.82539436E+00  6.40121692E-01  1.61277759E-01
  1.87311370E+01  2.82539436E+00  6.40121692E-01  1.61277759E-01  1.87311370E+01
  2.82539436E+00  6.40121692E-01  1.61277759E-01
Contraction coefficients                   R   N=          68
  1.83473713E-03  1.40373228E-02  6.88426223E-02  2.32184443E-01  4.67941348E-01
  3.62311985E-01 -1.19332420E-01 -1.60854152E-01  1.14345644E+00  1.00000000E+00
  1.00000000E+00  1.83473713E-03  1.40373228E-02  6.88426223E-02  2.32184443E-01
  4.67941348E-01  3.62311985E-01 -1.19332420E-01 -1.60854152E-01  1.14345644E+00
  1.00000000E+00  1.00000000E+00  1.83473713E-03  1.40373228E-02  6.88426223E-02
  2.32184443E-01  4.67941348E-01  3.62311985E-01 -1.19332420E-01 -1.60854152E-01
  1.14345644E+00  1.00000000E+00  1.00000000E+00  1.83473713E-03  1.40373228E-02
  6.88426223E-02  2.32184443E-01  4.67941348E-01  3.62311985E-01 -1.19332420E-01
 -1.60854152E-01  1.14345644E+00  1.00000000E+00  1.00000000E+00  3.34946043E-02
  2.34726953E-01  8.13757326E-01  1.00000000E+00  3.34946043E-02  2.34726953E-01
  8.13757326E-01  1.00000000E+00  3.34946043E-02  2.34726953E-01  8.13757326E-01
  1.00000000E+00  3.34946043E-02  2.34726953E-01  8.13757326E-01  1.00000000E+00
  3.34946043E-02  2.34726953E-01  8.13757326E-01  1.00000000E+00  3.34946043E-02
  2.34726953E-01  8.13757326E-01  1.00000000E+00
P(S=P) Contraction coefficients            R   N=          68
  0.00000000E+00  0.00000000E+00  0.00000000E+00  0.00000000E+00  0.00000000E+00
  0.00000000E+00  6.89990666E-02  3.16423961E-01  7.44308291E-01  1.00000000E+00
  0.00000000E+00  0.00000000E+00  0.00000000E+00  0.00000000E+00  0.00000000E+00
  0.00000000E+00  0.00000000E+00  6.89990666E-02  3.16423961E-01  7.44308291E-01
  1.00000000E+00  0.00000000E+00  0.00000000E+00  0.00000000E+00  0.00000000E+00
  0.00000000E+00  0.00000000E+00  0.00000000E+00  6.89990666E-02  3.16423961E-01
  7.44308291E-01  1.00000000E+00  0.00000000E+00  0.00000000E+00  0.00000000E+00
  0.00000000E+00  0.00000000E+00  0.00000000E+00  0.00000000E+00  6.89990666E-02
  3.16423961E-01  7.44308291E-01  1.00000000E+00  0.00000000E+00  0.00000000E+00
  0.00000000E+00  0.00000000E+00  0.00000000E+00  0.00000000E+00  0.00000000E+00
  0.00000000E+00  0.00000000E+00  0.00000000E+00  0.00000000E+00  0.00000000E+00
  0.00000000E+00  0.00000000E+00  0.00000000E+00  0.00000000E+00  0.00000000E+00
  0.00000000E+00  0.00000000E+00  0.00000000E+00  0.00000000E+00  0.00000000E+00
  0.00000000E+00  0.00000000E+00  0.00000000E+00
Coordinates of each shell                  R   N=          84
 -3.92040473E+00 -3.91240262E-05  6.65628408E-05 -3.92040473E+00 -3.91240262E-05
  6.65628408E-05 -3.92040473E+00 -3.91240262E-05  6.65628408E-05 -3.92040473E+00
 -3.91240262E-05  6.65628408E-05  3.92040536E+00  1.49117181E-05  2.00630903E-04
  3.92040536E+00  1.49117181E-05  2.00630903E-04  3.92040536E+00  1.49117181E-05
  2.00630903E-04  3.92040536E+00  1.49117181E-05  2.00630903E-04 -1.15407055E+00
  1.40094659E-04  1.76220589E-04 -1.15407055E+00  1.40094659E-04  1.76220589E-04
 -1.15407055E+00  1.40094659E-04  1.76220589E-04 -1.15407055E+00  1.40094659E-04
  1.76220589E-04  1.15406929E+00 -6.55772063E-05 -7.36671673E-04  1.15406929E+00
 -6.55772063E-05 -7.36671673E-04  1.15406929E+00 -6.55772063E-05 -7.36671673E-04
  1.15406929E+00 -6.55772063E-05 -7.36671673E-04 -4.66172540E+00 -3.52546412E-01
  1.89726957E+00 -4.66172540E+00 -3.52546412E-01  1.89726957E+00 -4.66181407E+00
  1.81923047E+00 -6.43159058E-01 -4.66181407E+00  1.81923047E+00 -6.43159058E-01
 -4.66161972E+00 -1.46687878E+00 -1.25379744E+00 -4.66161972E+00 -1.46687878E+00
 -1.25379744E+00  4.66211515E+00 -1.56728859E+00 -1.12522966E+00  4.66211515E+00
 -1.56728859E+00 -1.12522966E+00  4.66101740E+00 -1.91381786E-01  1.92063363E+00
  4.66101740E+00 -1.91381786E-01  1.92063363E+00  4.66203042E+00  1.75856326E+00
 -7.93957491E-01  4.66203042E+00  1.75856326E+00 -7.93957491E-01
Constraint Structure                       R   N=          30
 -3.92040473E+00 -3.91240262E-05  6.65628408E-05  3.92040536E+00  1.49117181E-05
  2.00630903E-04 -1.15407055E+00  1.40094659E-04  1.76220589E-04  1.15406929E+00
 -6.55772063E-05 -7.36671673E-04 -4.66172540E+00 -3.52546412E-01  1.89726957E+00
 -4.66181407E+00  1.81923047E+00 -6.43159058E-01 -4.66161972E+00 -1.46687878E+00
 -1.25379744E+00  4.66211515E+00 -1.56728859E+00 -1.12522966E+00  4.66101740E+00
 -1.91381786E-01  1.92063363E+00  4.66203042E+00  1.75856326E+00 -7.93957491E-01
Num ILSW                                   I              100
ILSW                                       I   N=         100
           0           1           0           0           2           0
           0           0           0           0           0          -1
           0           0           0           0           0           0
           0           0           0           0           1           0
           1           0           0           0           0           0
           0           0      100000           0          -1           0
           0           0           0           0           0           0
           0           0           0           1           1           0
           0           0           1           0           0           0
           0           0           4          40           0           0
           0           0           0           0           0           0
           0           0           0           0           0           0
           0           0           0           0           0           0
           0           0           0           0           0           0
           0           0           0           0           0           0
           0           0           0           0           0           0
           0           0           0           0
Num RLSW                                   I               40
RLSW                                       R   N=          40
  1.00000000E+00  1.00000000E+00  1.00000000E+00  1.00000000E+00  1.00000000E+00
  0.00000000E+00  0.00000000E+00  1.00000000E+00  0.00000000E+00  0.00000000E+00
  0.00000000E+00  0.00000000E+00  1.00000000E+00  0.00000000E+00  0.00000000E+00
  0.00000000E+00  0.00000000E+00  1.00000000E+00  0.00000000E+00  0.00000000E+00
  0.00000000E+00  0.00000000E+00  1.00000000E+00  0.00000000E+00  0.00000000E+00
  0.00000000E+00  0.00000000E+00  1.00000000E+00  0.00000000E+00  0.00000000E+00
  0.00000000E+00  0.00000000E+00  0.00000000E+00  0.00000000E+00  0.00000000E+00
  0.00000000E+00  0.00000000E+00  0.00000000E+00  1.00000000E+00  1.00000000E+00
MxBond                                     I                4
NBond                                      I   N=          10
           4           4           2           2           1           1
           1           1           1           1
IBond                                      I   N=          40
           3           5           6           7           4           8
           9          10           1           4           0           0
           2           3           0           0           1           0
           0           0           1           0           0           0
           1           0           0           0           2           0
           0           0           2           0           0           0
           2           0           0           0
RBond                                      R   N=          40
  1.00000000E+00  1.00000000E+00  1.00000000E+00  1.00000000E+00  1.00000000E+00
  1.00000000E+00  1.00000000E+00  1.00000000E+00  1.00000000E+00  3.00000000E+00
  0.00000000E+00  0.00000000E+00  1.00000000E+00  3.00000000E+00  0.00000000E+00
  0.00000000E+00  1.00000000E+00  0.00000000E+00  0.00000000E+00  0.00000000E+00
  1.00000000E+00  0.00000000E+00  0.00000000E+00  0.00000000E+00  1.00000000E+00
  0.00000000E+00  0.00000000E+00  0.00000000E+00  1.00000000E+00  0.00000000E+00
  0.00000000E+00  0.00000000E+00  1.00000000E+00  0.00000000E+00  0.00000000E+00
  0.00000000E+00  1.00000000E+00  0.00000000E+00  0.00000000E+00  0.00000000E+00
Virial Ratio                               R      2.002202727891471E+00
SCF Energy                                 R     -1.549064311937469E+02
MP2 Energy                                 R     -1.554157149902321E+02
Total Energy                               R     -1.554157149902321E+02
Post-SCF wavefunction norm                 R      1.540372546271962E+00
RMS Force                                  R      4.175047161907878E-06
RMS Density                                R      2.044056206500595E-09
External E-field                           R   N=          35
  0.00000000E+00  0.00000000E+00  0.00000000E+00  0.00000000E+00  0.00000000E+00
  0.00000000E+00  0.00000000E+00  0.00000000E+00  0.00000000E+00  0.00000000E+00
  0.00000000E+00  0.00000000E+00  0.00000000E+00  0.00000000E+00  0.00000000E+00
  0.00000000E+00  0.00000000E+00  0.00000000E+00  0.00000000E+00  0.00000000E+00
  0.00000000E+00  0.00000000E+00  0.00000000E+00  0.00000000E+00  0.00000000E+00
  0.00000000E+00  0.00000000E+00  0.00000000E+00  0.00000000E+00  0.00000000E+00
  0.00000000E+00  0.00000000E+00  0.00000000E+00  0.00000000E+00  0.00000000E+00
IOpCl                                      I                0
IROHF                                      I                0
Alpha Orbital Energies                     R   N=          72
 -1.12427598E+01 -1.12427595E+01 -1.12212306E+01 -1.12179406E+01 -1.05367824E+00
 -9.98616796E-01 -9.06132210E-01 -6.50521693E-01 -5.90346646E-01 -5.86987034E-01
 -5.86980336E-01 -5.71431247E-01 -5.71422968E-01 -3.52345320E-01 -3.52342740E-01
  2.21609858E-01  2.21613758E-01  2.56498245E-01  2.57496687E-01  3.20027846E-01
  3.20033237E-01  3.73974470E-01  3.73984027E-01  3.83329109E-01  4.38359382E-01
  5.83315167E-01  6.32397435E-01  7.41591935E-01  7.41594658E-01  8.24509328E-01
  8.24525902E-01  8.83282664E-01  8.83299168E-01  1.00796618E+00  1.02983067E+00
  1.04514051E+00  1.04515449E+00  1.12833756E+00  1.12834429E+00  1.15532843E+00
  1.15535201E+00  1.19213190E+00  1.19959539E+00  1.24056817E+00  1.42652937E+00
  1.64751129E+00  1.64752885E+00  1.69598362E+00  1.79543069E+00  1.83377245E+00
  1.83379822E+00  1.88815913E+00  1.98722281E+00  1.98725304E+00  2.22820483E+00
  2.22827643E+00  2.32288881E+00  2.32298302E+00  2.34561927E+00  2.57079707E+00
  2.57914986E+00  2.57916216E+00  2.63166115E+00  2.63169054E+00  3.09613510E+00
  3.20935872E+00  3.20936551E+00  3.86255570E+00  4.51219972E+00  4.58848540E+00
  4.92084247E+00  5.20868408E+00
Alpha MO coefficients                      R   N=        5184
  7.30149168E-01  2.08715839E-02  4.26535988E-04  4.62772202E-08  6.58913291E-08
 -1.10208879E-02 -6.03574391E-04 -1.29451693E-08  2.34230331E-08 -1.17421084E-03
 -1.32751580E-03 -1.32751953E-03  3.04475264E-08  7.26189113E-08 -2.38248393E-09
 -6.76885488E-01 -1.93421860E-02  4.05383267E-04  5.49573322E-08  1.30163955E-07
  1.01059118E-02 -5.12307446E-04 -1.54880481E-07  4.22883879E-07  1.07831309E-03
  1.22944719E-03  1.22952020E-03 -2.94368783E-08 -1.35982682E-07 -2.31438260E-09
  1.08857404E-02  2.04947874E-04 -1.69173432E-04  6.03906593E-08  2.46798428E-07
  4.92649759E-03 -5.42343976E-05 -2.31557100E-07 -4.58396933E-07 -8.94992881E-04
 -1.62430984E-04 -1.62425826E-04  7.65797083E-10  2.23398314E-07 -2.57443329E-09
 -1.00261606E-02 -1.61957576E-04 -1.87612870E-04  6.30710092E-08  2.59654402E-07
 -4.62634177E-03  1.47272301E-04 -1.22059145E-07 -1.09620752E-06  8.57450206E-04
  1.51780368E-04  1.51784279E-04 -3.65474742E-08  2.10833970E-08 -1.97028996E-09
  1.29751517E-04  1.86446693E-03  1.29747952E-04  1.86448562E-03  1.29751519E-04
  1.86448875E-03 -1.18337630E-04 -1.72836334E-03 -1.18432837E-04 -1.72862308E-03
 -1.18312367E-04 -1.72829573E-03  6.76872502E-01  1.94390306E-02  2.63612279E-04
  3.81145398E-08  5.28999364E-08 -1.16850448E-02 -1.18428814E-03 -1.62732612E-07
 -1.07500620E-07 -1.22399687E-03 -1.24641356E-03 -1.24642229E-03 -3.99686049E-09
  2.02277139E-09  7.98372254E-09  7.30137134E-01  2.09613582E-02 -2.95103890E-04
 -5.71677732E-08 -1.08582933E-07 -1.24848176E-02  1.22652777E-03  2.54155661E-07
  3.26929275E-07 -1.30926888E-03 -1.34320518E-03 -1.34322415E-03  8.32112645E-09
 -1.98723060E-08 -1.19087753E-08  1.09561230E-02  5.60847704E-04  2.50290854E-04
 -1.13606424E-08 -1.17533382E-07  3.78359435E-03 -2.66325238E-03 -2.40621756E-07
 -7.14927797E-07 -4.62689655E-04 -1.34662000E-04 -1.34662086E-04 -6.47719083E-08
 -2.25377313E-07 -7.42260380E-10  1.17476646E-02  5.74735998E-04 -2.36782262E-04
  1.42975758E-08  6.40389990E-09  4.14520324E-03  2.65974041E-03  1.85187301E-07
  1.32286638E-06 -5.29032375E-04 -1.46556697E-04 -1.46556383E-04 -5.60738517E-08
 -2.86855064E-07  2.67471602E-10  1.45741785E-04  1.72902060E-03  1.45737735E-04
  1.72900604E-03  1.45717790E-04  1.72891986E-03  1.55140260E-04  1.86506527E-03
  1.55141212E-04  1.86501758E-03  1.55093173E-04  1.86490378E-03 -1.16043430E-02
 -1.11382279E-04 -5.72733130E-04 -1.72150963E-08  6.33838129E-08  1.64221821E-03
  8.53163334E-04 -1.98853547E-07 -9.34458732E-07 -9.09600516E-04 -1.00079295E-04
 -1.00164373E-04 -1.00163921E-07 -1.45469369E-07  5.19111815E-08 -1.16038580E-02
 -1.11368439E-04  5.72714997E-04 -6.00950933E-09  1.17331042E-07  1.64214793E-03
 -8.53122958E-04  2.43939030E-07  7.49402245E-07 -9.09572821E-04 -1.00176143E-04
 -1.00060385E-04 -5.76011329E-08 -5.06326105E-07 -4.08989853E-08  7.03427801E-01
  1.81050756E-02 -6.05510457E-04 -1.17362195E-07 -3.77926736E-07 -4.06109127E-03
  1.33386390E-03  4.11986501E-07  1.53476922E-06 -2.51274577E-04 -2.03491782E-03
 -2.03491821E-03  8.57759540E-09 -8.52742315E-08  5.52726616E-09  7.03403178E-01
  1.81043855E-02  6.05523695E-04  9.51684928E-08  5.04898116E-07 -4.06071269E-03
 -1.33391149E-03 -3.83985346E-07 -1.76261206E-06 -2.51276208E-04 -2.03485861E-03
 -2.03485438E-03 -8.94420391E-09  3.74669624E-08 -5.07628412E-09 -7.05403321E-05
  1.66772179E-04 -7.06702602E-05  1.66429007E-04 -7.07670209E-05  1.66153373E-04
 -7.05477171E-05  1.66762849E-04 -7.07913842E-05  1.66069095E-04 -7.06270449E-05
  1.66503927E-04  1.08009029E-02  2.63258427E-04  4.24476897E-04  3.49672964E-08
  5.94212176E-08 -1.89130541E-03 -1.13118232E-03  7.17793548E-08  1.48808320E-07
  7.35809791E-04  1.10182955E-04  1.10181363E-04  8.03549472E-08  1.12398370E-07
 -7.12942911E-09 -1.08012096E-02 -2.63257405E-04  4.24494927E-04  1.94635531E-08
  1.78718743E-07  1.89135635E-03 -1.13120895E-03  6.83109048E-08  3.23058935E-07
 -7.35841384E-04 -1.10209853E-04 -1.10162268E-04 -4.50463618E-08 -4.08356869E-07
 -1.36848632E-08 -7.04344242E-01 -1.96729718E-02 -3.70586017E-04  2.33442774E-07
  9.79224201E-07  1.08359207E-02  1.46318054E-03 -3.92541906E-07 -9.41183694E-07
  1.74262633E-04  1.73425325E-03  1.73424932E-03  6.10796139E-08  5.51647788E-07
 -3.47246861E-09  7.04368837E-01  1.96736039E-02 -3.70568066E-04  2.24629831E-07
  9.73852687E-07 -1.08360559E-02  1.46313831E-03 -2.71731631E-07 -1.93045830E-06
 -1.74273860E-04 -1.73432303E-03 -1.73432079E-03 -1.03014140E-07 -1.98506501E-07
 -3.71111682E-09  1.14559303E-04 -1.76215063E-04  1.14545957E-04 -1.76204007E-04
  1.14557161E-04 -1.76114151E-04 -1.14532226E-04  1.76332554E-04 -1.14595730E-04
  1.75989516E-04 -1.14542102E-04  1.76227469E-04 -9.47258422E-02  1.78868927E-01
  4.64284959E-02  3.03703169E-06  1.33371145E-06  1.43724640E-01 -2.07895591E-03
  5.77591746E-07  3.74571176E-06  9.25947927E-03  2.40558627E-03  2.40491764E-03
  4.27184486E-07  3.78002822E-07  5.09278246E-07 -9.47250747E-02  1.78867490E-01
 -4.64280700E-02 -3.74784939E-06 -8.90298868E-06  1.43723383E-01  2.07899600E-03
 -2.19763628E-06  1.65202268E-06  9.25944184E-03  2.40515990E-03  2.40530925E-03
  2.96173403E-07  2.35907490E-06 -4.90716034E-07 -1.34733634E-01  2.51116311E-01
  3.91437474E-02 -1.17071602E-05 -3.20132510E-05  1.78686188E-01 -1.20614594E-02
 -2.59018404E-06 -7.00846084E-06  2.06345453E-02 -9.45826085E-03 -9.45827759E-03
 -1.59948677E-07 -3.97482295E-06  2.67326228E-08 -1.34733208E-01  2.51115469E-01
 -3.91445389E-02  8.38035893E-06  5.69952293E-05  1.78685779E-01  1.20613204E-02
  1.85129430E-06  1.21114240E-05  2.06344384E-02 -9.45822447E-03 -9.45822032E-03
 -5.98036107E-07 -1.43197170E-07 -1.60178719E-08  5.34026648E-02  7.67265881E-03
  5.34035099E-02  7.67473939E-03  5.34036536E-02  7.67606796E-03  5.34020144E-02
  7.67315764E-03  5.34056994E-02  7.67567640E-03  5.34008729E-02  7.67444688E-03
 -1.33052604E-01  2.49831681E-01  2.47473980E-02  3.76259855E-06  5.09176011E-06
  2.33287620E-01 -2.42122136E-03 -2.65597930E-07 -1.91595808E-06  4.88057391E-03
  5.17497532E-03  5.17375972E-03 -2.33037338E-07 -6.92164681E-07  8.18566049E-07
  1.33053081E-01 -2.49832610E-01  2.47473817E-02  6.10845269E-06  7.18367295E-06
 -2.33288277E-01 -2.42134555E-03  1.75365885E-06 -6.78601943E-06 -4.88063068E-03
 -5.17452344E-03 -5.17425542E-03  4.33670132E-08  8.24352016E-07  7.37966876E-07
 -5.67598115E-02  1.13447689E-01 -1.07209743E-01 -6.10796400E-06 -9.61158543E-06
  3.90547364E-02 -3.93661995E-02  1.33347693E-06  8.73310799E-06  1.99775188E-02
 -5.62883813E-03 -5.62877812E-03  3.97944391E-07 -4.49379494E-06 -3.28196944E-09
  5.67606143E-02 -1.13449153E-01 -1.07209010E-01 -3.22885633E-06 -3.20513511E-05
 -3.90560474E-02 -3.93663368E-02  1.78912590E-06  5.17023608E-06 -1.99776334E-02
  5.62886855E-03  5.62884813E-03  5.29999816E-07 -3.03219414E-06 -1.63824093E-08
  8.34820639E-02  1.71975730E-02  8.34813770E-02  1.71957978E-02  8.34795704E-02
  1.71946109E-02 -8.34826822E-02 -1.71974556E-02 -8.34815915E-02 -1.71940020E-02
 -8.34797428E-02 -1.71967157E-02 -9.87289268E-02  1.81690243E-01 -4.86301394E-02
  1.87457255E-06  1.10591816E-05  2.43809675E-01  3.95370428E-03  3.32476216E-06
  4.96864641E-06 -3.30321855E-03  7.20207009E-03  7.20152134E-03 -5.46593859E-07
  3.30788897E-07  3.09450345E-07 -9.87290253E-02  1.81690457E-01  4.86303471E-02
 -6.15790525E-06  4.36067917E-06  2.43809412E-01 -3.95344096E-03 -3.98406754E-06
 -1.09898174E-05 -3.30322184E-03  7.20285221E-03  7.20075809E-03  4.08860392E-09
 -2.68486863E-06 -2.89854898E-07  1.02798506E-01 -1.84899722E-01 -2.30375981E-01
  1.13544388E-05  6.45826490E-05 -1.93485999E-01  8.46370674E-03  4.83574751E-06
  1.93380187E-05 -5.31630793E-03  7.09265150E-03  7.09267350E-03  3.16637628E-06
  1.27184412E-05 -6.09713936E-08  1.02798566E-01 -1.84899823E-01  2.30375848E-01
 -1.37484701E-05 -4.79593366E-05 -1.93486673E-01 -8.46290109E-03 -4.36638576E-06
 -2.30543855E-05 -5.31632038E-03  7.09267059E-03  7.09267791E-03  2.93752585E-06
  1.44015079E-05  5.86839456E-08  7.67109508E-02  2.40664260E-02  7.67074150E-02
  2.40645180E-02  7.67030995E-02  2.40639104E-02  7.67118884E-02  2.40651476E-02
  7.67019445E-02  2.40646437E-02  7.67079942E-02  2.40651424E-02  2.46927538E-02
 -4.05147896E-02  2.82315657E-01  1.71694447E-05  9.76720407E-06 -1.29433473E-01
  9.91235197E-02  5.07990344E-07 -1.82766007E-05  2.02233595E-02 -1.37233696E-02
 -1.37225828E-02  2.68196401E-06  9.59100567E-07 -5.86742491E-07 -2.46926273E-02
  4.05145832E-02  2.82314420E-01  7.08976244E-06  1.10023090E-04  1.29432919E-01
  9.91230808E-02 -3.09748026E-06  1.70231345E-05 -2.02232733E-02  1.37235378E-02
  1.37222616E-02 -7.11758585E-07 -1.37489966E-05 -1.08481746E-06 -9.20894962E-02
  1.89280829E-01 -1.67587328E-01 -6.37652743E-06 -4.12901750E-06  6.81398497E-02
 -1.72394746E-01  7.13933845E-06  5.08826503E-05  1.37190727E-02 -6.15846917E-03
 -6.15845230E-03  7.19897819E-07 -1.63668724E-06  2.21467073E-08  9.20894451E-02
 -1.89280650E-01 -1.67586236E-01 -3.66529666E-06 -2.66649450E-05 -6.81397039E-02
 -1.72394495E-01  1.00639593E-05  2.86146783E-05 -1.37190682E-02  6.15842874E-03
  6.15847613E-03 -8.74415537E-08 -3.71228134E-06  5.78700899E-09 -8.17869731E-02
 -5.16829394E-02 -8.17914718E-02 -5.16920961E-02 -8.17937341E-02 -5.16980284E-02
  8.17838839E-02  5.16818281E-02  8.17934247E-02  5.16988133E-02  8.17937900E-02
  5.16916285E-02 -3.13153128E-03  3.24379691E-03 -2.95057683E-01 -3.84908195E-05
 -1.49386481E-04 -5.99789796E-03 -1.50974268E-01 -2.30197720E-05 -8.52208426E-05
 -2.07178083E-02  1.26835478E-02  1.26699734E-02 -2.37732350E-06  2.00144322E-06
  6.87622193E-06 -3.13154096E-03  3.24381038E-03  2.95058455E-01  1.12560172E-04
  4.38898119E-04 -5.99732299E-03  1.50974454E-01  6.02664523E-05  2.40415057E-04
 -2.07178681E-02  1.26610674E-02  1.26925094E-02  2.24791343E-06 -5.58445740E-06
 -1.39746533E-05  1.14117204E-02 -3.60695381E-02  3.33038617E-01  2.55000916E-06
 -7.08467210E-05 -2.71921419E-02  6.81026990E-02  3.77826257E-06 -1.08363839E-05
 -5.97298531E-03 -3.80077882E-04 -3.80779937E-04 -1.27922025E-06 -3.81529801E-06
  3.48735397E-07  1.14120883E-02 -3.60703064E-02 -3.33039217E-01  4.11546171E-05
  9.96499815E-05 -2.71917731E-02 -6.81043423E-02  1.40810523E-05  3.47067444E-05
 -5.97308382E-03 -3.81175070E-04 -3.79654567E-04 -1.03770182E-06 -6.80681534E-06
 -6.21682414E-07  7.11462797E-02  5.11106258E-02  7.12443457E-02  5.11803314E-02
  7.12926439E-02  5.12129973E-02  7.10606411E-02  5.10484828E-02  7.14136391E-02
  5.13003501E-02  7.12096731E-02  5.11554897E-02  1.43522834E-06 -4.60015262E-06
  2.26823599E-05  2.96633574E-01  4.58507743E-03  3.07307192E-05  2.54634626E-05
  1.52847777E-01  2.36446880E-03  2.99631094E-06  8.37523004E-03 -8.37990482E-03
 -9.19957445E-03 -1.43174958E-04 -1.62972323E-02 -2.18466018E-06  7.62253856E-06
 -5.39439628E-05  2.96594240E-01  4.18291673E-03 -2.51691403E-05 -1.39558795E-05
  1.52825659E-01  2.15333044E-03  4.88671820E-06  4.59211285E-03 -4.59683936E-03
  9.20439200E-03  1.29421310E-04 -1.81879795E-02 -4.34317643E-06  9.84484809E-06
 -4.51234441E-05  1.31373011E-01  1.97107278E-03  7.12836038E-05  5.53398803E-05
  5.78392917E-02  8.56470292E-04  5.01078077E-06  3.54397833E-04 -3.57251120E-04
  2.96871149E-04 -2.24850400E-06 -6.68391778E-04 -3.85949403E-07  3.70293427E-06
  6.06387331E-05  1.31366831E-01  1.91264359E-03 -5.85581702E-05  7.71590706E-05
  5.78410496E-02  8.53478767E-04 -2.63793306E-06  1.78601341E-04 -1.76009829E-04
 -2.97682296E-04 -1.09813584E-05 -7.47397953E-04 -2.92326716E-02 -2.18257938E-02
  1.63617843E-01  1.22178884E-01 -1.34415921E-01 -1.00375736E-01 -1.43162668E-01
 -1.06903584E-01 -1.48680201E-02 -1.11051984E-02  1.57993757E-01  1.17983518E-01
  2.89231679E-06 -1.14352149E-05  7.45759434E-05 -4.36187453E-03  2.96592738E-01
  1.08068545E-04  8.47976218E-05 -2.23998283E-03  1.52824242E-01  3.12530623E-06
 -1.41108338E-02  1.41031428E-02  1.35656598E-04 -9.19654624E-03 -9.68485825E-03
  1.69540164E-06  5.11754048E-06 -2.14952781E-04 -4.40617579E-03  2.96631465E-01
 -1.25418266E-04 -5.67396393E-05 -2.27801721E-03  1.52845671E-01  3.77713400E-06
 -1.57641463E-02  1.57629846E-02 -1.35553752E-04  9.19179617E-03 -5.29472052E-03
 -1.05492226E-05  2.34381305E-05 -6.91350188E-05 -1.93822033E-03  1.31373280E-01
  2.65231594E-04  2.25542498E-04 -8.59825536E-04  5.78453868E-02  1.59403480E-05
 -5.75409740E-04  5.66146352E-04 -4.86261052E-06  2.97993098E-04 -4.14197449E-04
  1.15509978E-05 -1.50672750E-05  1.21739625E-04 -1.94498090E-03  1.31379059E-01
 -2.61905109E-04  2.75801017E-04 -8.49923739E-04  5.78437184E-02 -1.64304362E-05