
    -----------------------------------------------------------------------
          Psi4: An Open-Source Ab Initio Electronic Structure Package
                               Psi4 1.4a3.dev225 

                         Git: Rev {master} 7105e37 


    D. G. A. Smith, L. A. Burns, A. C. Simmonett, R. M. Parrish,
    M. C. Schieber, R. Galvelis, P. Kraus, H. Kruse, R. Di Remigio,
    A. Alenaizan, A. M. James, S. Lehtola, J. P. Misiewicz, M. Scheurer,
    R. A. Shaw, J. B. Schriber, Y. Xie, Z. L. Glick, D. A. Sirianni,
    J. S. O'Brien, J. M. Waldrop, A. Kumar, E. G. Hohenstein,
    B. P. Pritchard, B. R. Brooks, H. F. Schaefer III, A. Yu. Sokolov,
    K. Patkowski, A. E. DePrince III, U. Bozkaya, R. A. King,
    F. A. Evangelista, J. M. Turney, T. D. Crawford, C. D. Sherrill,
    J. Chem. Phys. 152(18) 184108 (2020). https://doi.org/10.1063/5.0006002

                            Additional Code Authors
    E. T. Seidl, C. L. Janssen, E. F. Valeev, M. L. Leininger,
    J. F. Gonthier, R. M. Richard, H. R. McAlexander, M. Saitow, X. Wang,
    P. Verma, and M. H. Lechner

             Previous Authors, Complete List of Code Contributors,
                       and Citations for Specific Modules
    https://github.com/psi4/psi4/blob/master/codemeta.json
    https://github.com/psi4/psi4/graphs/contributors
    http://psicode.org/psi4manual/master/introduction.html#citing-psifour

    -----------------------------------------------------------------------


    Psi4 started on: Friday, 19 March 2021 05:37PM

    Process ID: 132312
    Host:       c434-071.stampede2.tacc.utexas.edu
    PSIDATADIR: /home1/07844/xy3866/miniconda3/envs/p4env/share/psi4
    Memory:     500.0 MiB
    Threads:    32
    
  ==> Input File <==

--------------------------------------------------------------------------
#psi4
#
memory 32 gb

molecule  {
-1 1
  O       -0.7074350     1.1407700     0.0087330
  O       -0.7074350    -1.1407700     0.0087330
  N        1.2758540     0.0000000    -0.1055120
  C       -0.1805627     0.0000000    -0.0019930
  H        1.6758320    -0.8356090     0.3096610
  H        1.6758330     0.8356080     0.3096610
units angstrom
no_reorient  #important for SAPT in psi4, default
symmetry c1  #important for SAPT in psi4, default
}

set PROPERTIES_ORIGIN ["COM"]
properties('MP2/aug-cc-pvtz', properties = ['dipole'])
--------------------------------------------------------------------------

  Memory set to  29.802 GiB by Python driver.
    SCF Algorithm Type (re)set to DF.

*** tstart() called on c434-071.stampede2.tacc.utexas.edu
*** at Fri Mar 19 17:38:03 2021

   => Loading Basis Set <=

    Name: AUG-CC-PVTZ
    Role: ORBITAL
    Keyword: BASIS
    atoms 1-2 entry O          line   331 file /home1/07844/xy3866/miniconda3/envs/p4env/share/psi4/basis/aug-cc-pvtz.gbs 
    atoms 3   entry N          line   285 file /home1/07844/xy3866/miniconda3/envs/p4env/share/psi4/basis/aug-cc-pvtz.gbs 
    atoms 4   entry C          line   239 file /home1/07844/xy3866/miniconda3/envs/p4env/share/psi4/basis/aug-cc-pvtz.gbs 
    atoms 5-6 entry H          line    40 file /home1/07844/xy3866/miniconda3/envs/p4env/share/psi4/basis/aug-cc-pvtz.gbs 


         ---------------------------------------------------------
                                   SCF
               by Justin Turney, Rob Parrish, Andy Simmonett
                          and Daniel G. A. Smith
                              RHF Reference
                       32 Threads,  30517 MiB Core
         ---------------------------------------------------------

  ==> Geometry <==

    Molecular point group: c1
    Full point group: C1

    Geometry (in Angstrom), charge = -1, multiplicity = 1:

       Center              X                  Y                   Z               Mass       
    ------------   -----------------  -----------------  -----------------  -----------------
         O           -0.648214985779     1.140770016795     0.018696128888    15.994914619570
         O           -0.648214985779    -1.140769983205     0.018696128888    15.994914619570
         N            1.335074014221     0.000000016795    -0.095548871112    14.003074004430
         C           -0.121342685779     0.000000016795     0.007970128888    12.000000000000
         H            1.735052014221    -0.835608983205     0.319624128888     1.007825032230
         H            1.735053014221     0.835608016795     0.319624128888     1.007825032230

  Running in c1 symmetry.

  Rotational constants: A =      0.38880  B =      0.37469  C =      0.19220 [cm^-1]
  Rotational constants: A =  11656.07722  B =  11232.81926  C =   5762.00509 [MHz]
  Nuclear repulsion =  113.281032052798835

  Charge       = -1
  Multiplicity = 1
  Electrons    = 32
  Nalpha       = 16
  Nbeta        = 16

  ==> Algorithm <==

  SCF Algorithm Type is DF.
  DIIS enabled.
  MOM disabled.
  Fractional occupation disabled.
  Guess Type is SAD.
  Energy threshold   = 1.00e-10
  Density threshold  = 1.00e-10
  Integral threshold = 1.00e-12

  ==> Primary Basis <==

  Basis Set: AUG-CC-PVTZ
    Blend: AUG-CC-PVTZ
    Number of shells: 74
    Number of basis functions: 230
    Number of Cartesian functions: 270
    Spherical Harmonics?: true
    Max angular momentum: 3

   => Loading Basis Set <=

    Name: (AUG-CC-PVTZ AUX)
    Role: JKFIT
    Keyword: DF_BASIS_SCF
    atoms 1-2 entry O          line   286 file /home1/07844/xy3866/miniconda3/envs/p4env/share/psi4/basis/aug-cc-pvtz-jkfit.gbs 
    atoms 3   entry N          line   224 file /home1/07844/xy3866/miniconda3/envs/p4env/share/psi4/basis/aug-cc-pvtz-jkfit.gbs 
    atoms 4   entry C          line   162 file /home1/07844/xy3866/miniconda3/envs/p4env/share/psi4/basis/aug-cc-pvtz-jkfit.gbs 
    atoms 5-6 entry H          line    70 file /home1/07844/xy3866/miniconda3/envs/p4env/share/psi4/basis/aug-cc-pvtz-jkfit.gbs 

  ==> Integral Setup <==

  DFHelper Memory: AOs need 0.225 GiB; user supplied 22.352 GiB. Using in-core AOs.

  ==> MemDFJK: Density-Fitted J/K Matrices <==

    J tasked:                   Yes
    K tasked:                   Yes
    wK tasked:                   No
    OpenMP threads:              32
    Memory [MiB]:             22888
    Algorithm:                 Core
    Schwarz Cutoff:           1E-12
    Mask sparsity (%):       0.2647
    Fitting Condition:        1E-10

   => Auxiliary Basis Set <=

  Basis Set: (AUG-CC-PVTZ AUX)
    Blend: AUG-CC-PVTZ-JKFIT
    Number of shells: 148
    Number of basis functions: 508
    Number of Cartesian functions: 634
    Spherical Harmonics?: true
    Max angular momentum: 4

  Minimum eigenvalue in the overlap matrix is 1.0733895055E-04.
  Reciprocal condition number of the overlap matrix is 1.0150070247E-05.
    Using symmetric orthogonalization.

  ==> Pre-Iterations <==

  SCF Guess: Superposition of Atomic Densities via on-the-fly atomic UHF (no occupation information).

   -------------------------
    Irrep   Nso     Nmo    
   -------------------------
     A        230     230 
   -------------------------
    Total     230     230
   -------------------------

  ==> Iterations <==

                           Total Energy        Delta E     RMS |[F,P]|

   @DF-RHF iter SAD:  -242.14375793145729   -2.42144e+02   0.00000e+00 
   @DF-RHF iter   1:  -243.13158023293133   -9.87822e-01   3.20689e-03 DIIS
   @DF-RHF iter   2:  -243.27728509097815   -1.45705e-01   2.10263e-03 DIIS
   @DF-RHF iter   3:  -243.35001300728680   -7.27279e-02   1.95946e-04 DIIS
   @DF-RHF iter   4:  -243.35128468209527   -1.27167e-03   9.55636e-05 DIIS
   @DF-RHF iter   5:  -243.35156659165895   -2.81910e-04   1.93910e-05 DIIS
   @DF-RHF iter   6:  -243.35158615578533   -1.95641e-05   5.73244e-06 DIIS
   @DF-RHF iter   7:  -243.35158782688734   -1.67110e-06   1.85218e-06 DIIS
   @DF-RHF iter   8:  -243.35158804402806   -2.17141e-07   4.83734e-07 DIIS
   @DF-RHF iter   9:  -243.35158806102970   -1.70016e-08   1.30526e-07 DIIS
   @DF-RHF iter  10:  -243.35158806252744   -1.49774e-09   3.12664e-08 DIIS
   @DF-RHF iter  11:  -243.35158806260424   -7.67955e-11   7.33638e-09 DIIS
   @DF-RHF iter  12:  -243.35158806260770   -3.46745e-12   1.88680e-09 DIIS
   @DF-RHF iter  13:  -243.35158806260787   -1.70530e-13   6.34953e-10 DIIS
   @DF-RHF iter  14:  -243.35158806260807   -1.98952e-13   2.12406e-10 DIIS
   @DF-RHF iter  15:  -243.35158806260799    8.52651e-14   7.70923e-11 DIIS
  Energy and wave function converged.


  ==> Post-Iterations <==

    Orbital Energies [Eh]
    ---------------------

    Doubly Occupied:                                                      

       1A    -20.287345     2A    -20.287313     3A    -15.373797  
       4A    -11.156487     5A     -1.173839     6A     -1.067319  
       7A     -0.966520     8A     -0.549149     9A     -0.484517  
      10A     -0.435427    11A     -0.378460    12A     -0.377476  
      13A     -0.242249    14A     -0.212057    15A     -0.205689  
      16A     -0.195699  

    Virtual:                                                              

      17A      0.132251    18A      0.149880    19A      0.207970  
      20A      0.216895    21A      0.231465    22A      0.245694  
      23A      0.255969    24A      0.262349    25A      0.297545  
      26A      0.326779    27A      0.329994    28A      0.356667  
      29A      0.368107    30A      0.384688    31A      0.386318  
      32A      0.391533    33A      0.396253    34A      0.435726  
      35A      0.453502    36A      0.472550    37A      0.480736  
      38A      0.484299    39A      0.521404    40A      0.526870  
      41A      0.538127    42A      0.557876    43A      0.595065  
      44A      0.598951    45A      0.609309    46A      0.656994  
      47A      0.669282    48A      0.719354    49A      0.722247  
      50A      0.725799    51A      0.764205    52A      0.776249  
      53A      0.790151    54A      0.833498    55A      0.837918  
      56A      0.850820    57A      0.899876    58A      0.903324  
      59A      0.925461    60A      0.951634    61A      0.981901  
      62A      0.994548    63A      1.037528    64A      1.039309  
      65A      1.059114    66A      1.066117    67A      1.083571  
      68A      1.098001    69A      1.117616    70A      1.153152  
      71A      1.163130    72A      1.171931    73A      1.178777  
      74A      1.183550    75A      1.189203    76A      1.243066  
      77A      1.243329    78A      1.269305    79A      1.271016  
      80A      1.314398    81A      1.314886    82A      1.326233  
      83A      1.329884    84A      1.380098    85A      1.383872  
      86A      1.429251    87A      1.436837    88A      1.480881  
      89A      1.505280    90A      1.541302    91A      1.562610  
      92A      1.575597    93A      1.615199    94A      1.650699  
      95A      1.654686    96A      1.690309    97A      1.707576  
      98A      1.751328    99A      1.764791   100A      1.784245  
     101A      1.871681   102A      1.927594   103A      1.929701  
     104A      1.950761   105A      1.962199   106A      2.033509  
     107A      2.110363   108A      2.125332   109A      2.175772  
     110A      2.211153   111A      2.256054   112A      2.275639  
     113A      2.291903   114A      2.336282   115A      2.400729  
     116A      2.437862   117A      2.486551   118A      2.497420  
     119A      2.507823   120A      2.520094   121A      2.577491  
     122A      2.578386   123A      2.603304   124A      2.605028  
     125A      2.629939   126A      2.670834   127A      2.696217  
     128A      2.715585   129A      2.741281   130A      2.794803  
     131A      2.799265   132A      2.810967   133A      2.832855  
     134A      2.872281   135A      2.874968   136A      2.950066  
     137A      3.000824   138A      3.028561   139A      3.060829  
     140A      3.084349   141A      3.125827   142A      3.218090  
     143A      3.228136   144A      3.257787   145A      3.268790  
     146A      3.480245   147A      3.484924   148A      3.600298  
     149A      3.661999   150A      3.739548   151A      3.808388  
     152A      3.865721   153A      3.948292   154A      3.958474  
     155A      4.032751   156A      4.046028   157A      4.105353  
     158A      4.232519   159A      4.237610   160A      4.273530  
     161A      4.353029   162A      4.371661   163A      4.380730  
     164A      4.471381   165A      4.474398   166A      4.481067  
     167A      4.521827   168A      4.566974   169A      4.608823  
     170A      4.687939   171A      4.701241   172A      4.795798  
     173A      4.799072   174A      4.892117   175A      4.951047  
     176A      4.995358   177A      5.077005   178A      5.118939  
     179A      5.182850   180A      5.255108   181A      5.258373  
     182A      5.278473   183A      5.362474   184A      5.400610  
     185A      5.436904   186A      5.467138   187A      5.618834  
     188A      5.710016   189A      5.859328   190A      5.965688  
     191A      6.083624   192A      6.085379   193A      6.188780  
     194A      6.305776   195A      6.403694   196A      6.509405  
     197A      6.563607   198A      6.604882   199A      6.860915  
     200A      6.873824   201A      6.901336   202A      6.909552  
     203A      6.970697   204A      6.993697   205A      7.069912  
     206A      7.132281   207A      7.135531   208A      7.191915  
     209A      7.319802   210A      7.344967   211A      7.356893  
     212A      7.418434   213A      7.497137   214A      7.548537  
     215A      7.562279   216A      7.589104   217A      7.693870  
     218A      7.783770   219A      7.840564   220A      7.888116  
     221A      7.896950   222A      7.960130   223A      8.075518  
     224A      8.081926   225A      8.219013   226A      8.219357  
     227A     14.473268   228A     15.228356   229A     16.237408  
     230A     17.650919  

    Final Occupation by Irrep:
              A 
    DOCC [    16 ]

  @DF-RHF Final Energy:  -243.35158806260799

   => Energetics <=

    Nuclear Repulsion Energy =            113.2810320527988353
    One-Electron Energy =                -566.4785538667437095
    Two-Electron Energy =                 209.8459337513369007
    Total Energy =                       -243.3515880626079877

Computation Completed

*** tstop() called on c434-071.stampede2.tacc.utexas.edu at Fri Mar 19 17:38:09 2021
Module time:
	user time   =      84.20 seconds =       1.40 minutes
	system time =       9.45 seconds =       0.16 minutes
	total time  =          6 seconds =       0.10 minutes
Total time:
	user time   =      84.20 seconds =       1.40 minutes
	system time =       9.45 seconds =       0.16 minutes
	total time  =          6 seconds =       0.10 minutes
   => Loading Basis Set <=

    Name: (AUG-CC-PVTZ AUX)
    Role: RIFIT
    Keyword: DF_BASIS_MP2
    atoms 1-2 entry O          line   264 file /home1/07844/xy3866/miniconda3/envs/p4env/share/psi4/basis/aug-cc-pvtz-ri.gbs 
    atoms 3   entry N          line   206 file /home1/07844/xy3866/miniconda3/envs/p4env/share/psi4/basis/aug-cc-pvtz-ri.gbs 
    atoms 4   entry C          line   148 file /home1/07844/xy3866/miniconda3/envs/p4env/share/psi4/basis/aug-cc-pvtz-ri.gbs 
    atoms 5-6 entry H          line    30 file /home1/07844/xy3866/miniconda3/envs/p4env/share/psi4/basis/aug-cc-pvtz-ri.gbs 


*** tstart() called on c434-071.stampede2.tacc.utexas.edu
*** at Fri Mar 19 17:38:09 2021


  //>>>>>>>>>>>>>>>>>>>>>>>>>>>>>>>>>>>//
  //               DFMP2               //
  //<<<<<<<<<<<<<<<<<<<<<<<<<<<<<<<<<<<//

	 --------------------------------------------------------
	                          DF-MP2                         
	      2nd-Order Density-Fitted Moller-Plesset Theory     
	              RMP2 Wavefunction,  32 Threads             
	                                                         
	        Rob Parrish, Justin Turney, Andy Simmonett,      
	           Ed Hohenstein, and C. David Sherrill          
	 --------------------------------------------------------

   => Auxiliary Basis Set <=

  Basis Set: (AUG-CC-PVTZ AUX)
    Blend: AUG-CC-PVTZ-RI
    Number of shells: 140
    Number of basis functions: 516
    Number of Cartesian functions: 654
    Spherical Harmonics?: true
    Max angular momentum: 4

	 --------------------------------------------------------
	                 NBF =   230, NAUX =   516
	 --------------------------------------------------------
	   CLASS    FOCC     OCC    AOCC    AVIR     VIR    FVIR
	   PAIRS       0      16      16     214     214       0
	 --------------------------------------------------------

  DFHelper Memory: AOs need 0.225 GiB; user supplied 22.352 GiB. Using in-core AOs.


         ------------------------------------------------------------
                                     CPHF                           
                                  Rob Parrish                       
         ------------------------------------------------------------

  ==> Geometry <==

    Molecular point group: c1
    Full point group: C1

    Geometry (in Angstrom), charge = -1, multiplicity = 1:

       Center              X                  Y                   Z               Mass       
    ------------   -----------------  -----------------  -----------------  -----------------
         O           -0.648214985779     1.140770016795     0.018696128888    15.994914619570
         O           -0.648214985779    -1.140769983205     0.018696128888    15.994914619570
         N            1.335074014221     0.000000016795    -0.095548871112    14.003074004430
         C           -0.121342685779     0.000000016795     0.007970128888    12.000000000000
         H            1.735052014221    -0.835608983205     0.319624128888     1.007825032230
         H            1.735053014221     0.835608016795     0.319624128888     1.007825032230

  Nuclear repulsion =  113.281032052798807
  Reference energy  = -243.351588062607988

  ==> Basis Set <==

  Basis Set: AUG-CC-PVTZ
    Blend: AUG-CC-PVTZ
    Number of shells: 74
    Number of basis functions: 230
    Number of Cartesian functions: 270
    Spherical Harmonics?: true
    Max angular momentum: 3

  ==> CGRSolver (by Rob Parrish) <==

   Number of roots    =         1
   Preconditioning    =    JACOBI
   Convergence cutoff =     1E-06
   Maximum iterations =       100

  ==> CPHFRHamiltonian (by Rob Parrish) <== 

  ==> MemDFJK: Density-Fitted J/K Matrices <==

    J tasked:                   Yes
    K tasked:                   Yes
    wK tasked:                   No
    OpenMP threads:              32
    Memory [MiB]:             22888
    Algorithm:                 Core
    Schwarz Cutoff:           1E-12
    Mask sparsity (%):       0.0605
    Fitting Condition:        1E-10

   => Auxiliary Basis Set <=

  Basis Set: (AUG-CC-PVTZ AUX)
    Blend: AUG-CC-PVTZ-JKFIT
    Number of shells: 148
    Number of basis functions: 508
    Number of Cartesian functions: 634
    Spherical Harmonics?: true
    Max angular momentum: 4

  ==> CPHF Iterations <==

  => Iterations <=

             Iter  Converged  Remaining    Residual
  CGR           1          0          1   1.137E-01
  CGR           2          0          1   2.876E-02
  CGR           3          0          1   1.104E-02
  CGR           4          0          1   2.562E-03
  CGR           5          0          1   5.956E-04
  CGR           6          0          1   1.949E-04
  CGR           7          0          1   6.384E-05
  CGR           8          0          1   1.942E-05
  CGR           9          0          1   5.608E-06
  CGR          10          0          1   1.771E-06
  CGR          11          1          0   3.834E-07

    CGRSolver converged.

	-----------------------------------------------------------
	 ==================> DF-MP2 Energies <==================== 
	-----------------------------------------------------------
	 Reference Energy          =    -243.3515880626079877 [Eh]
	 Singles Energy            =      -0.0000000000000000 [Eh]
	 Same-Spin Energy          =      -0.2384255723970696 [Eh]
	 Opposite-Spin Energy      =      -0.6924733392057389 [Eh]
	 Correlation Energy        =      -0.9308989116028086 [Eh]
	 Total Energy              =    -244.2824869742107978 [Eh]
	-----------------------------------------------------------
	 ================> DF-SCS-MP2 Energies <================== 
	-----------------------------------------------------------
	 SCS Same-Spin Scale       =       0.3333333333333333 [-]
	 SCS Opposite-Spin Scale   =       1.2000000000000000 [-]
	 SCS Same-Spin Energy      =      -0.0794751907990232 [Eh]
	 SCS Opposite-Spin Energy  =      -0.8309680070468867 [Eh]
	 SCS Correlation Energy    =      -0.9104431978459099 [Eh]
	 SCS Total Energy          =    -244.2620312604539095 [Eh]
	-----------------------------------------------------------



Properties will be evaluated at  -0.000000,   0.000000,  -0.000000 [a0]

Properties computed using the MP2 density matrix

  Nuclear Dipole Moment: [e a0]
     X:     3.2430      Y:    -0.0000      Z:     0.5997

  Electronic Dipole Moment: [e a0]
     X:    -1.9440      Y:     0.0000      Z:    -0.1803

  Dipole Moment: [e a0]
     X:     1.2990      Y:    -0.0000      Z:     0.4194     Total:     1.3650

  Dipole Moment: [D]
     X:     3.3018      Y:    -0.0000      Z:     1.0660     Total:     3.4696


*** tstop() called on c434-071.stampede2.tacc.utexas.edu at Fri Mar 19 17:38:33 2021
Module time:
	user time   =     137.21 seconds =       2.29 minutes
	system time =       9.47 seconds =       0.16 minutes
	total time  =         24 seconds =       0.40 minutes
Total time:
	user time   =     224.22 seconds =       3.74 minutes
	system time =      19.22 seconds =       0.32 minutes
	total time  =         30 seconds =       0.50 minutes

    Psi4 stopped on: Friday, 19 March 2021 05:38PM
    Psi4 wall time for execution: 0:00:30.79

*** Psi4 exiting successfully. Buy a developer a beer!
