
    -----------------------------------------------------------------------
          Psi4: An Open-Source Ab Initio Electronic Structure Package
                               Psi4 1.3.2 release

                         Git: Rev {HEAD} ecbda83 


    R. M. Parrish, L. A. Burns, D. G. A. Smith, A. C. Simmonett,
    A. E. DePrince III, E. G. Hohenstein, U. Bozkaya, A. Yu. Sokolov,
    R. Di Remigio, R. M. Richard, J. F. Gonthier, A. M. James,
    H. R. McAlexander, A. Kumar, M. Saitow, X. Wang, B. P. Pritchard,
    P. Verma, H. F. Schaefer III, K. Patkowski, R. A. King, E. F. Valeev,
    F. A. Evangelista, J. M. Turney, T. D. Crawford, and C. D. Sherrill,
    J. Chem. Theory Comput. 13(7) pp 3185--3197 (2017).
    (doi: 10.1021/acs.jctc.7b00174)


                         Additional Contributions by
    P. Kraus, H. Kruse, M. H. Lechner, M. C. Schieber, R. A. Shaw,
    A. Alenaizan, R. Galvelis, Z. L. Glick, S. Lehtola, and J. P. Misiewicz

    -----------------------------------------------------------------------


    Psi4 started on: Tuesday, 17 November 2020 01:15AM

    Process ID: 8818
    Host:       node142.bme.utexas.edu
    PSIDATADIR: /home/xy3866/psi4conda/share/psi4
    Memory:     500.0 MiB
    Threads:    8
    
  ==> Input File <==

--------------------------------------------------------------------------
#psi4
#
memory 32 gb

molecule  {
-1 1
  O       -0.4223990     1.5478120    -0.0024970
  O        2.2587260     0.7160740     0.0027440
  O        1.4389110    -1.4330490    -0.0022200
  C       -1.1980010    -0.7166360     0.0011530
  C       -2.6041790    -0.1343280     0.0009050
  C       -0.0542615     0.2839498    -0.1324629
  C        1.3671270    -0.1674410     0.0000880
  H       -1.0203320    -1.3658690    -0.8629620
  H       -1.0198480    -1.3637170     0.8668160
  H       -2.7610710     0.4967440    -0.8780030
  H       -3.3633830    -0.9249560     0.0021580
  H       -2.7605070     0.4989750     0.8783160
units angstrom
no_reorient  #important for SAPT in psi4, default
symmetry c1  #important for SAPT in psi4, default
}

set PROPERTIES_ORIGIN ["COM"]
properties('MP2/aug-cc-pvtz', properties = ['dipole'])
--------------------------------------------------------------------------

  Memory set to  29.802 GiB by Python driver.
    SCF Algorithm Type (re)set to DF.

*** tstart() called on node142.bme.utexas.edu
*** at Tue Nov 17 01:15:12 2020

   => Loading Basis Set <=

    Name: AUG-CC-PVTZ
    Role: ORBITAL
    Keyword: BASIS
    atoms 1-3  entry O          line   327 file /home/xy3866/psi4conda/share/psi4/basis/aug-cc-pvtz.gbs 
    atoms 4-7  entry C          line   235 file /home/xy3866/psi4conda/share/psi4/basis/aug-cc-pvtz.gbs 
    atoms 8-12 entry H          line    36 file /home/xy3866/psi4conda/share/psi4/basis/aug-cc-pvtz.gbs 


         ---------------------------------------------------------
                                   SCF
               by Justin Turney, Rob Parrish, Andy Simmonett
                          and Daniel G. A. Smith
                              RHF Reference
                        8 Threads,  30517 MiB Core
         ---------------------------------------------------------

  ==> Geometry <==

    Molecular point group: c1
    Full point group: C1

    Geometry (in Angstrom), charge = -1, multiplicity = 1:

       Center              X                  Y                   Z               Mass       
    ------------   -----------------  -----------------  -----------------  -----------------
         O           -0.536280478703     1.530033269889     0.013231820215    15.994914619570
         O            2.144844521297     0.698295269889     0.018472820215    15.994914619570
         O            1.325029521297    -1.450827730111     0.013508820215    15.994914619570
         C           -1.311882478703    -0.734414730111     0.016881820215    12.000000000000
         C           -2.718060478703    -0.152106730111     0.016633820215    12.000000000000
         C           -0.168142978703     0.266171069889    -0.116734079785    12.000000000000
         C            1.253245521297    -0.185219730111     0.015816820215    12.000000000000
         H           -1.134213478703    -1.383647730111    -0.847233179785     1.007825032230
         H           -1.133729478703    -1.381495730111     0.882544820215     1.007825032230
         H           -2.874952478703     0.478965269889    -0.862274179785     1.007825032230
         H           -3.477264478703    -0.942734730111     0.017886820215     1.007825032230
         H           -2.874388478703     0.481196269889     0.894044820215     1.007825032230

  Running in c1 symmetry.

  Rotational constants: A =      0.17683  B =      0.06255  C =      0.04704 [cm^-1]
  Rotational constants: A =   5301.29937  B =   1875.30336  C =   1410.36789 [MHz]
  Nuclear repulsion =  284.396784063536074

  Charge       = -1
  Multiplicity = 1
  Electrons    = 54
  Nalpha       = 27
  Nbeta        = 27

  ==> Algorithm <==

  SCF Algorithm Type is DF.
  DIIS enabled.
  MOM disabled.
  Fractional occupation disabled.
  Guess Type is SAD.
  Energy threshold   = 1.00e-10
  Density threshold  = 1.00e-10
  Integral threshold = 0.00e+00

  ==> Primary Basis <==

  Basis Set: AUG-CC-PVTZ
    Blend: AUG-CC-PVTZ
    Number of shells: 143
    Number of basis function: 437
    Number of Cartesian functions: 510
    Spherical Harmonics?: true
    Max angular momentum: 3

   => Loading Basis Set <=

    Name: (AUG-CC-PVTZ AUX)
    Role: JKFIT
    Keyword: DF_BASIS_SCF
    atoms 1-3  entry O          line   286 file /home/xy3866/psi4conda/share/psi4/basis/aug-cc-pvtz-jkfit.gbs 
    atoms 4-7  entry C          line   162 file /home/xy3866/psi4conda/share/psi4/basis/aug-cc-pvtz-jkfit.gbs 
    atoms 8-12 entry H          line    70 file /home/xy3866/psi4conda/share/psi4/basis/aug-cc-pvtz-jkfit.gbs 

  ==> Pre-Iterations <==

   -------------------------------------------------------
    Irrep   Nso     Nmo     Nalpha   Nbeta   Ndocc  Nsocc
   -------------------------------------------------------
     A        437     437       0       0       0       0
   -------------------------------------------------------
    Total     437     437      27      27      27       0
   -------------------------------------------------------

  ==> Integral Setup <==

  DFHelper Memory: AOs need 1.373 GiB; user supplied 22.352 GiB. Using in-core AOs.

  ==> MemDFJK: Density-Fitted J/K Matrices <==

    J tasked:                   Yes
    K tasked:                   Yes
    wK tasked:                   No
    OpenMP threads:               8
    Memory [MiB]:             22888
    Algorithm:                 Core
    Schwarz Cutoff:           1E-12
    Mask sparsity (%):       3.4508
    Fitting Condition:        1E-10

   => Auxiliary Basis Set <=

  Basis Set: (AUG-CC-PVTZ AUX)
    Blend: AUG-CC-PVTZ-JKFIT
    Number of shells: 280
    Number of basis function: 958
    Number of Cartesian functions: 1192
    Spherical Harmonics?: true
    Max angular momentum: 4

  Minimum eigenvalue in the overlap matrix is 1.0349634036E-05.
  Using Symmetric Orthogonalization.

  SCF Guess: Superposition of Atomic Densities via on-the-fly atomic UHF.

  ==> Iterations <==

                           Total Energy        Delta E     RMS |[F,P]|

   @DF-RHF iter SAD:  -377.50011674823588   -3.77500e+02   0.00000e+00 
   @DF-RHF iter   1:  -378.82519092583618   -1.32507e+00   1.85487e-03 DIIS
   @DF-RHF iter   2:  -379.00559746955247   -1.80407e-01   1.33065e-03 DIIS
   @DF-RHF iter   3:  -379.11675777436625   -1.11160e-01   2.05612e-04 DIIS
   @DF-RHF iter   4:  -379.12118053267545   -4.42276e-03   9.38802e-05 DIIS
   @DF-RHF iter   5:  -379.12218532062161   -1.00479e-03   2.43791e-05 DIIS
   @DF-RHF iter   6:  -379.12226786593777   -8.25453e-05   9.76949e-06 DIIS
   @DF-RHF iter   7:  -379.12228438169319   -1.65158e-05   3.29144e-06 DIIS
   @DF-RHF iter   8:  -379.12228710977013   -2.72808e-06   1.85973e-06 DIIS
   @DF-RHF iter   9:  -379.12228793565157   -8.25881e-07   9.61726e-07 DIIS
   @DF-RHF iter  10:  -379.12228820866790   -2.73016e-07   3.09362e-07 DIIS
   @DF-RHF iter  11:  -379.12228824297750   -3.43096e-08   1.02638e-07 DIIS
   @DF-RHF iter  12:  -379.12228824709302   -4.11552e-09   4.57684e-08 DIIS
   @DF-RHF iter  13:  -379.12228824839775   -1.30473e-09   2.45959e-08 DIIS
   @DF-RHF iter  14:  -379.12228824888126   -4.83510e-10   1.02688e-08 DIIS
   @DF-RHF iter  15:  -379.12228824896613   -8.48672e-11   3.76483e-09 DIIS
   @DF-RHF iter  16:  -379.12228824897204   -5.91172e-12   1.50833e-09 DIIS
   @DF-RHF iter  17:  -379.12228824897113    9.09495e-13   6.23673e-10 DIIS
   @DF-RHF iter  18:  -379.12228824897250   -1.36424e-12   2.98355e-10 DIIS
   @DF-RHF iter  19:  -379.12228824897267   -1.70530e-13   1.05918e-10 DIIS
   @DF-RHF iter  20:  -379.12228824897272   -5.68434e-14   5.19397e-11 DIIS
  Energy and wave function converged.


  ==> Post-Iterations <==

    Orbital Energies [Eh]
    ---------------------

    Doubly Occupied:                                                      

       1A    -20.396581     2A    -20.326631     3A    -20.322122  
       4A    -11.183888     5A    -11.167562     6A    -11.100221  
       7A    -11.099566     8A     -1.202849     9A     -1.160867  
      10A     -1.098340    11A     -0.914512    12A     -0.783220  
      13A     -0.677415    14A     -0.537979    15A     -0.491867  
      16A     -0.485230    17A     -0.462056    18A     -0.426139  
      19A     -0.402224    20A     -0.400618    21A     -0.373563  
      22A     -0.362665    23A     -0.303192    24A     -0.299004  
      25A     -0.241466    26A     -0.226612    27A     -0.216445  

    Virtual:                                                              

      28A      0.106524    29A      0.125302    30A      0.128153  
      31A      0.139712    32A      0.149634    33A      0.184635  
      34A      0.187938    35A      0.201278    36A      0.209870  
      37A      0.216188    38A      0.221809    39A      0.234220  
      40A      0.234798    41A      0.235474    42A      0.244228  
      43A      0.247106    44A      0.260052    45A      0.265198  
      46A      0.273878    47A      0.308685    48A      0.312074  
      49A      0.323458    50A      0.333145    51A      0.335626  
      52A      0.351543    53A      0.355523    54A      0.356490  
      55A      0.370820    56A      0.382443    57A      0.391019  
      58A      0.398667    59A      0.405485    60A      0.409535  
      61A      0.417748    62A      0.426582    63A      0.427194  
      64A      0.445384    65A      0.455783    66A      0.462891  
      67A      0.468825    68A      0.473379    69A      0.477761  
      70A      0.482003    71A      0.492670    72A      0.498728  
      73A      0.502553    74A      0.518968    75A      0.525553  
      76A      0.530804    77A      0.544410    78A      0.552490  
      79A      0.554968    80A      0.561205    81A      0.565516  
      82A      0.578367    83A      0.584877    84A      0.595507  
      85A      0.602269    86A      0.605120    87A      0.627449  
      88A      0.629912    89A      0.634685    90A      0.641646  
      91A      0.652806    92A      0.657928    93A      0.670349  
      94A      0.687942    95A      0.702343    96A      0.707767  
      97A      0.719639    98A      0.730794    99A      0.733495  
     100A      0.740007   101A      0.749067   102A      0.767479  
     103A      0.786383   104A      0.797499   105A      0.817247  
     106A      0.840104   107A      0.842873   108A      0.852016  
     109A      0.887198   110A      0.895222   111A      0.902876  
     112A      0.912192   113A      0.924162   114A      0.937054  
     115A      0.945092   116A      0.955611   117A      0.967843  
     118A      0.970186   119A      0.989680   120A      0.993101  
     121A      0.999566   122A      1.008594   123A      1.017177  
     124A      1.022594   125A      1.031257   126A      1.039399  
     127A      1.044313   128A      1.048249   129A      1.059618  
     130A      1.062184   131A      1.066978   132A      1.078826  
     133A      1.083655   134A      1.100273   135A      1.122947  
     136A      1.133680   137A      1.136413   138A      1.143536  
     139A      1.149790   140A      1.162886   141A      1.167379  
     142A      1.183521   143A      1.189175   144A      1.208955  
     145A      1.210125   146A      1.220289   147A      1.226508  
     148A      1.241445   149A      1.252907   150A      1.257731  
     151A      1.269861   152A      1.272652   153A      1.289590  
     154A      1.293303   155A      1.302973   156A      1.307654  
     157A      1.318140   158A      1.334715   159A      1.347921  
     160A      1.350994   161A      1.362455   162A      1.378540  
     163A      1.393392   164A      1.407319   165A      1.416293  
     166A      1.431245   167A      1.438255   168A      1.449553  
     169A      1.458219   170A      1.469905   171A      1.487477  
     172A      1.536979   173A      1.551875   174A      1.566849  
     175A      1.569422   176A      1.579129   177A      1.588602  
     178A      1.610225   179A      1.612805   180A      1.622728  
     181A      1.631586   182A      1.647805   183A      1.663166  
     184A      1.692170   185A      1.711800   186A      1.722464  
     187A      1.738738   188A      1.752316   189A      1.755146  
     190A      1.772890   191A      1.786734   192A      1.797036  
     193A      1.806745   194A      1.809616   195A      1.822334  
     196A      1.831684   197A      1.849423   198A      1.860618  
     199A      1.882517   200A      1.898493   201A      1.905522  
     202A      1.911745   203A      1.925848   204A      1.945074  
     205A      1.960300   206A      1.970335   207A      1.973421  
     208A      1.990903   209A      2.008962   210A      2.028621  
     211A      2.042450   212A      2.059138   213A      2.086573  
     214A      2.095005   215A      2.119862   216A      2.121248  
     217A      2.131035   218A      2.155980   219A      2.163041  
     220A      2.181570   221A      2.202325   222A      2.225155  
     223A      2.249032   224A      2.260102   225A      2.299145  
     226A      2.349349   227A      2.351414   228A      2.355466  
     229A      2.378886   230A      2.383364   231A      2.397561  
     232A      2.425954   233A      2.441946   234A      2.458457  
     235A      2.484347   236A      2.506140   237A      2.521143  
     238A      2.529149   239A      2.549602   240A      2.593411  
     241A      2.613211   242A      2.637317   243A      2.652227  
     244A      2.665078   245A      2.684654   246A      2.695327  
     247A      2.712852   248A      2.726996   249A      2.730453  
     250A      2.733969   251A      2.769856   252A      2.784121  
     253A      2.811925   254A      2.824624   255A      2.827596  
     256A      2.846951   257A      2.868414   258A      2.888290  
     259A      2.917462   260A      2.946988   261A      2.967924  
     262A      2.976103   263A      3.000525   264A      3.046846  
     265A      3.055320   266A      3.084903   267A      3.136384  
     268A      3.152262   269A      3.182381   270A      3.208622  
     271A      3.239840   272A      3.244790   273A      3.266782  
     274A      3.319999   275A      3.361267   276A      3.371830  
     277A      3.395044   278A      3.418063   279A      3.440970  
     280A      3.472074   281A      3.510956   282A      3.551299  
     283A      3.573514   284A      3.596668   285A      3.607701  
     286A      3.617779   287A      3.639348   288A      3.665048  
     289A      3.689750   290A      3.706598   291A      3.728244  
     292A      3.743470   293A      3.794106   294A      3.800009  
     295A      3.807983   296A      3.828430   297A      3.841362  
     298A      3.862235   299A      3.872542   300A      3.901517  
     301A      3.915495   302A      3.940184   303A      3.967888  
     304A      3.973043   305A      3.980651   306A      4.003991  
     307A      4.018160   308A      4.033686   309A      4.051601  
     310A      4.066800   311A      4.087595   312A      4.112661  
     313A      4.130651   314A      4.147859   315A      4.171153  
     316A      4.192902   317A      4.213588   318A      4.234217  
     319A      4.255029   320A      4.285733   321A      4.298208  
     322A      4.312394   323A      4.321138   324A      4.330832  
     325A      4.358030   326A      4.367449   327A      4.397436  
     328A      4.431837   329A      4.443359   330A      4.463122  
     331A      4.485274   332A      4.520385   333A      4.550510  
     334A      4.574382   335A      4.599497   336A      4.641340  
     337A      4.669549   338A      4.694633   339A      4.726289  
     340A      4.729338   341A      4.764567   342A      4.796496  
     343A      4.821366   344A      4.871215   345A      4.878970  
     346A      4.923494   347A      4.939844   348A      4.959883  
     349A      4.971869   350A      4.973879   351A      5.018273  
     352A      5.028476   353A      5.091980   354A      5.124486  
     355A      5.164655   356A      5.185745   357A      5.205880  
     358A      5.240573   359A      5.267179   360A      5.289199  
     361A      5.314202   362A      5.338261   363A      5.353072  
     364A      5.378123   365A      5.402376   366A      5.450274  
     367A      5.451863   368A      5.502679   369A      5.520160  
     370A      5.573016   371A      5.617075   372A      5.648222  
     373A      5.690564   374A      5.726184   375A      5.744972  
     376A      5.792359   377A      5.834925   378A      5.888074  
     379A      5.951683   380A      5.970690   381A      6.075614  
     382A      6.134139   383A      6.207758   384A      6.284066  
     385A      6.289989   386A      6.321033   387A      6.346021  
     388A      6.407083   389A      6.544137   390A      6.596870  
     391A      6.668592   392A      6.845656   393A      6.866437  
     394A      6.871213   395A      6.892231   396A      6.914581  
     397A      6.962331   398A      6.978434   399A      6.995438  
     400A      7.006183   401A      7.100805   402A      7.124369  
     403A      7.147994   404A      7.160850   405A      7.181710  
     406A      7.223095   407A      7.253246   408A      7.297835  
     409A      7.330640   410A      7.391833   411A      7.445806  
     412A      7.484035   413A      7.525717   414A      7.547552  
     415A      7.565430   416A      7.589501   417A      7.606677  
     418A      7.680437   419A      7.787133   420A      7.805084  
     421A      7.844410   422A      7.855710   423A      7.907416  
     424A      7.925690   425A      8.004162   426A      8.065213  
     427A      8.100614   428A      8.120296   429A      8.228295  
     430A      8.269400   431A     13.885379   432A     15.068076  
     433A     15.818508   434A     16.020658   435A     17.780597  
     436A     18.652179   437A     19.362939  

    Final Occupation by Irrep:
              A 
    DOCC [    27 ]

  @DF-RHF Final Energy:  -379.12228824897272

   => Energetics <=

    Nuclear Repulsion Energy =            284.3967840635360744
    One-Electron Energy =               -1093.7124781489933412
    Two-Electron Energy =                 430.1934058364845441
    Total Energy =                       -379.1222882489727226

Computation Completed

*** tstop() called on node142.bme.utexas.edu at Tue Nov 17 01:15:24 2020
Module time:
	user time   =      76.96 seconds =       1.28 minutes
	system time =       2.29 seconds =       0.04 minutes
	total time  =         12 seconds =       0.20 minutes
Total time:
	user time   =      76.96 seconds =       1.28 minutes
	system time =       2.29 seconds =       0.04 minutes
	total time  =         12 seconds =       0.20 minutes
   => Loading Basis Set <=

    Name: (AUG-CC-PVTZ AUX)
    Role: RIFIT
    Keyword: DF_BASIS_MP2
    atoms 1-3  entry O          line   264 file /home/xy3866/psi4conda/share/psi4/basis/aug-cc-pvtz-ri.gbs 
    atoms 4-7  entry C          line   148 file /home/xy3866/psi4conda/share/psi4/basis/aug-cc-pvtz-ri.gbs 
    atoms 8-12 entry H          line    30 file /home/xy3866/psi4conda/share/psi4/basis/aug-cc-pvtz-ri.gbs 


*** tstart() called on node142.bme.utexas.edu
*** at Tue Nov 17 01:15:24 2020


  //>>>>>>>>>>>>>>>>>>>>>>>>>>>>>>>>>>>//
  //               DFMP2               //
  //<<<<<<<<<<<<<<<<<<<<<<<<<<<<<<<<<<<//

	 --------------------------------------------------------
	                          DF-MP2                         
	      2nd-Order Density-Fitted Moller-Plesset Theory     
	              RMP2 Wavefunction,   8 Threads             
	                                                         
	        Rob Parrish, Justin Turney, Andy Simmonett,      
	           Ed Hohenstein, and C. David Sherrill          
	 --------------------------------------------------------

   => Auxiliary Basis Set <=

  Basis Set: (AUG-CC-PVTZ AUX)
    Blend: AUG-CC-PVTZ-RI
    Number of shells: 266
    Number of basis function: 972
    Number of Cartesian functions: 1227
    Spherical Harmonics?: true
    Max angular momentum: 4

	 --------------------------------------------------------
	                 NBF =   437, NAUX =   972
	 --------------------------------------------------------
	   CLASS    FOCC     OCC    AOCC    AVIR     VIR    FVIR
	   PAIRS       0      27      27     410     410       0
	 --------------------------------------------------------

  DFHelper Memory: AOs need 1.373 GiB; user supplied 22.352 GiB. Using in-core AOs.


         ------------------------------------------------------------
                                     CPHF                           
                                  Rob Parrish                       
         ------------------------------------------------------------

  ==> Geometry <==

    Molecular point group: c1
    Full point group: C1

    Geometry (in Angstrom), charge = -1, multiplicity = 1:

       Center              X                  Y                   Z               Mass       
    ------------   -----------------  -----------------  -----------------  -----------------
         O           -0.536280478703     1.530033269889     0.013231820215    15.994914619570
         O            2.144844521297     0.698295269889     0.018472820215    15.994914619570
         O            1.325029521297    -1.450827730111     0.013508820215    15.994914619570
         C           -1.311882478703    -0.734414730111     0.016881820215    12.000000000000
         C           -2.718060478703    -0.152106730111     0.016633820215    12.000000000000
         C           -0.168142978703     0.266171069889    -0.116734079785    12.000000000000
         C            1.253245521297    -0.185219730111     0.015816820215    12.000000000000
         H           -1.134213478703    -1.383647730111    -0.847233179785     1.007825032230
         H           -1.133729478703    -1.381495730111     0.882544820215     1.007825032230
         H           -2.874952478703     0.478965269889    -0.862274179785     1.007825032230
         H           -3.477264478703    -0.942734730111     0.017886820215     1.007825032230
         H           -2.874388478703     0.481196269889     0.894044820215     1.007825032230

  Nuclear repulsion =  284.396784063536074
  Reference energy  = -379.122288248972723

  ==> Basis Set <==

  Basis Set: AUG-CC-PVTZ
    Blend: AUG-CC-PVTZ
    Number of shells: 143
    Number of basis function: 437
    Number of Cartesian functions: 510
    Spherical Harmonics?: true
    Max angular momentum: 3

  ==> CGRSolver (by Rob Parrish) <==

   Number of roots    =         1
   Preconditioning    =    JACOBI
   Convergence cutoff =     1E-06
   Maximum iterations =       100

  ==> CPHFRHamiltonian (by Rob Parrish) <== 

  ==> MemDFJK: Density-Fitted J/K Matrices <==

    J tasked:                   Yes
    K tasked:                   Yes
    wK tasked:                   No
    OpenMP threads:               8
    Memory [MiB]:             22888
    Algorithm:                 Core
    Schwarz Cutoff:           1E-12
    Mask sparsity (%):       3.4508
    Fitting Condition:        1E-10

   => Auxiliary Basis Set <=

  Basis Set: (AUG-CC-PVTZ AUX)
    Blend: AUG-CC-PVTZ-JKFIT
    Number of shells: 280
    Number of basis function: 958
    Number of Cartesian functions: 1192
    Spherical Harmonics?: true
    Max angular momentum: 4

  ==> CPHF Iterations <==

  => Iterations <=

             Iter  Converged  Remaining    Residual
  CGR           1          0          1   1.297E-01
  CGR           2          0          1   4.554E-02
  CGR           3          0          1   1.796E-02
  CGR           4          0          1   8.807E-03
  CGR           5          0          1   3.811E-03
  CGR           6          0          1   1.504E-03
  CGR           7          0          1   6.953E-04
  CGR           8          0          1   2.559E-04
  CGR           9          0          1   9.842E-05
  CGR          10          0          1   5.342E-05
  CGR          11          0          1   2.524E-05
  CGR          12          0          1   1.064E-05
  CGR          13          0          1   2.793E-06
  CGR          14          1          0   7.905E-07

    CGRSolver converged.

	-----------------------------------------------------------
	 ==================> DF-MP2 Energies <==================== 
	-----------------------------------------------------------
	 Reference Energy          =    -379.1222882489727226 [Eh]
	 Singles Energy            =      -0.0000000000000000 [Eh]
	 Same-Spin Energy          =      -0.3769244440641331 [Eh]
	 Opposite-Spin Energy      =      -1.1473625935976042 [Eh]
	 Correlation Energy        =      -1.5242870376617372 [Eh]
	 Total Energy              =    -380.6465752866344587 [Eh]
	-----------------------------------------------------------
	 ================> DF-SCS-MP2 Energies <================== 
	-----------------------------------------------------------
	 SCS Same-Spin Scale       =       0.3333333333333333 [-]
	 SCS Opposite-Spin Scale   =       1.2000000000000000 [-]
	 SCS Same-Spin Energy      =      -0.1256414813547110 [Eh]
	 SCS Opposite-Spin Energy  =      -1.3768351123171250 [Eh]
	 SCS Correlation Energy    =      -1.5024765936718361 [Eh]
	 SCS Total Energy          =    -380.6247648426445380 [Eh]
	-----------------------------------------------------------



Properties will be evaluated at  -0.000000,   0.000000,  -0.000000 [a0]

Properties computed using the MP2 density matrix

  Nuclear Dipole Moment: [e a0]
     X:   -10.7617      Y:    -2.5722      Z:     0.0799

  Electronic Dipole Moment: [e a0]
     X:     8.2444      Y:     2.1480      Z:    -0.1463

  Dipole Moment: [e a0]
     X:    -2.5173      Y:    -0.4241      Z:    -0.0664     Total:     2.5537

  Dipole Moment: [D]
     X:    -6.3984      Y:    -1.0780      Z:    -0.1687     Total:     6.4908


*** tstop() called on node142.bme.utexas.edu at Tue Nov 17 01:15:58 2020
Module time:
	user time   =     231.78 seconds =       3.86 minutes
	system time =       5.72 seconds =       0.10 minutes
	total time  =         34 seconds =       0.57 minutes
Total time:
	user time   =     309.72 seconds =       5.16 minutes
	system time =       8.07 seconds =       0.13 minutes
	total time  =         46 seconds =       0.77 minutes

    Psi4 stopped on: Tuesday, 17 November 2020 01:15AM
    Psi4 wall time for execution: 0:00:45.72

*** Psi4 exiting successfully. Buy a developer a beer!
