
    -----------------------------------------------------------------------
          Psi4: An Open-Source Ab Initio Electronic Structure Package
                               Psi4 1.3.2 release

                         Git: Rev {HEAD} ecbda83 


    R. M. Parrish, L. A. Burns, D. G. A. Smith, A. C. Simmonett,
    A. E. DePrince III, E. G. Hohenstein, U. Bozkaya, A. Yu. Sokolov,
    R. Di Remigio, R. M. Richard, J. F. Gonthier, A. M. James,
    H. R. McAlexander, A. Kumar, M. Saitow, X. Wang, B. P. Pritchard,
    P. Verma, H. F. Schaefer III, K. Patkowski, R. A. King, E. F. Valeev,
    F. A. Evangelista, J. M. Turney, T. D. Crawford, and C. D. Sherrill,
    J. Chem. Theory Comput. 13(7) pp 3185--3197 (2017).
    (doi: 10.1021/acs.jctc.7b00174)


                         Additional Contributions by
    P. Kraus, H. Kruse, M. H. Lechner, M. C. Schieber, R. A. Shaw,
    A. Alenaizan, R. Galvelis, Z. L. Glick, S. Lehtola, and J. P. Misiewicz

    -----------------------------------------------------------------------


    Psi4 started on: Tuesday, 17 November 2020 01:17AM

    Process ID: 8970
    Host:       node142.bme.utexas.edu
    PSIDATADIR: /home/xy3866/psi4conda/share/psi4
    Memory:     500.0 MiB
    Threads:    8
    
  ==> Input File <==

--------------------------------------------------------------------------
#psi4
#
memory 32 gb

molecule  {
-1 1
  O       -0.4223990     1.5478120    -0.0024970
  O        2.2587260     0.7160740     0.0027440
  O        1.4389110    -1.4330490    -0.0022200
  C       -1.1980010    -0.7166360     0.0011530
  C       -2.6041790    -0.1343280     0.0009050
  C       -0.1556054     0.3938269     0.0874602
  C        1.3671270    -0.1674410     0.0000880
  H       -1.0203320    -1.3658690    -0.8629620
  H       -1.0198480    -1.3637170     0.8668160
  H       -2.7610710     0.4967440    -0.8780030
  H       -3.3633830    -0.9249560     0.0021580
  H       -2.7605070     0.4989750     0.8783160
units angstrom
no_reorient  #important for SAPT in psi4, default
symmetry c1  #important for SAPT in psi4, default
}

set PROPERTIES_ORIGIN ["COM"]
properties('MP2/aug-cc-pvtz', properties = ['dipole'])
--------------------------------------------------------------------------

  Memory set to  29.802 GiB by Python driver.
    SCF Algorithm Type (re)set to DF.

*** tstart() called on node142.bme.utexas.edu
*** at Tue Nov 17 01:17:37 2020

   => Loading Basis Set <=

    Name: AUG-CC-PVTZ
    Role: ORBITAL
    Keyword: BASIS
    atoms 1-3  entry O          line   327 file /home/xy3866/psi4conda/share/psi4/basis/aug-cc-pvtz.gbs 
    atoms 4-7  entry C          line   235 file /home/xy3866/psi4conda/share/psi4/basis/aug-cc-pvtz.gbs 
    atoms 8-12 entry H          line    36 file /home/xy3866/psi4conda/share/psi4/basis/aug-cc-pvtz.gbs 


         ---------------------------------------------------------
                                   SCF
               by Justin Turney, Rob Parrish, Andy Simmonett
                          and Daniel G. A. Smith
                              RHF Reference
                        8 Threads,  30517 MiB Core
         ---------------------------------------------------------

  ==> Geometry <==

    Molecular point group: c1
    Full point group: C1

    Geometry (in Angstrom), charge = -1, multiplicity = 1:

       Center              X                  Y                   Z               Mass       
    ------------   -----------------  -----------------  -----------------  -----------------
         O           -0.524242464205     1.516981649388    -0.012891483373    15.994914619570
         O            2.156882535795     0.685243649388    -0.007650483373    15.994914619570
         O            1.337067535795    -1.463879350612    -0.012614483373    15.994914619570
         C           -1.299844464205    -0.747466350612    -0.009241483373    12.000000000000
         C           -2.706022464205    -0.165158350612    -0.009489483373    12.000000000000
         C           -0.257448864205     0.362996549388     0.077065716627    12.000000000000
         C            1.265283535795    -0.198271350612    -0.010306483373    12.000000000000
         H           -1.122175464205    -1.396699350612    -0.873356483373     1.007825032230
         H           -1.121691464205    -1.394547350612     0.856421516627     1.007825032230
         H           -2.862914464205     0.465913649388    -0.888397483373     1.007825032230
         H           -3.465226464205    -0.955786350612    -0.008236483373     1.007825032230
         H           -2.862350464205     0.468144649388     0.867921516627     1.007825032230

  Running in c1 symmetry.

  Rotational constants: A =      0.17554  B =      0.06245  C =      0.04687 [cm^-1]
  Rotational constants: A =   5262.70303  B =   1872.25380  C =   1405.08678 [MHz]
  Nuclear repulsion =  284.819642814977044

  Charge       = -1
  Multiplicity = 1
  Electrons    = 54
  Nalpha       = 27
  Nbeta        = 27

  ==> Algorithm <==

  SCF Algorithm Type is DF.
  DIIS enabled.
  MOM disabled.
  Fractional occupation disabled.
  Guess Type is SAD.
  Energy threshold   = 1.00e-10
  Density threshold  = 1.00e-10
  Integral threshold = 0.00e+00

  ==> Primary Basis <==

  Basis Set: AUG-CC-PVTZ
    Blend: AUG-CC-PVTZ
    Number of shells: 143
    Number of basis function: 437
    Number of Cartesian functions: 510
    Spherical Harmonics?: true
    Max angular momentum: 3

   => Loading Basis Set <=

    Name: (AUG-CC-PVTZ AUX)
    Role: JKFIT
    Keyword: DF_BASIS_SCF
    atoms 1-3  entry O          line   286 file /home/xy3866/psi4conda/share/psi4/basis/aug-cc-pvtz-jkfit.gbs 
    atoms 4-7  entry C          line   162 file /home/xy3866/psi4conda/share/psi4/basis/aug-cc-pvtz-jkfit.gbs 
    atoms 8-12 entry H          line    70 file /home/xy3866/psi4conda/share/psi4/basis/aug-cc-pvtz-jkfit.gbs 

  ==> Pre-Iterations <==

   -------------------------------------------------------
    Irrep   Nso     Nmo     Nalpha   Nbeta   Ndocc  Nsocc
   -------------------------------------------------------
     A        437     437       0       0       0       0
   -------------------------------------------------------
    Total     437     437      27      27      27       0
   -------------------------------------------------------

  ==> Integral Setup <==

  DFHelper Memory: AOs need 1.373 GiB; user supplied 22.352 GiB. Using in-core AOs.

  ==> MemDFJK: Density-Fitted J/K Matrices <==

    J tasked:                   Yes
    K tasked:                   Yes
    wK tasked:                   No
    OpenMP threads:               8
    Memory [MiB]:             22888
    Algorithm:                 Core
    Schwarz Cutoff:           1E-12
    Mask sparsity (%):       3.4477
    Fitting Condition:        1E-10

   => Auxiliary Basis Set <=

  Basis Set: (AUG-CC-PVTZ AUX)
    Blend: AUG-CC-PVTZ-JKFIT
    Number of shells: 280
    Number of basis function: 958
    Number of Cartesian functions: 1192
    Spherical Harmonics?: true
    Max angular momentum: 4

  Minimum eigenvalue in the overlap matrix is 1.0119474360E-05.
  Using Symmetric Orthogonalization.

  SCF Guess: Superposition of Atomic Densities via on-the-fly atomic UHF.

  ==> Iterations <==

                           Total Energy        Delta E     RMS |[F,P]|

   @DF-RHF iter SAD:  -377.61014899197698   -3.77610e+02   0.00000e+00 
   @DF-RHF iter   1:  -378.85784394982517   -1.24769e+00   1.85431e-03 DIIS
   @DF-RHF iter   2:  -379.04875846077442   -1.90915e-01   1.24937e-03 DIIS
   @DF-RHF iter   3:  -379.14563631674378   -9.68779e-02   1.70707e-04 DIIS
   @DF-RHF iter   4:  -379.14912904146826   -3.49272e-03   7.13968e-05 DIIS
   @DF-RHF iter   5:  -379.14980143746345   -6.72396e-04   1.78082e-05 DIIS
   @DF-RHF iter   6:  -379.14985217802916   -5.07406e-05   9.13212e-06 DIIS
   @DF-RHF iter   7:  -379.14986334959752   -1.11716e-05   2.58236e-06 DIIS
   @DF-RHF iter   8:  -379.14986499374498   -1.64415e-06   1.30615e-06 DIIS
   @DF-RHF iter   9:  -379.14986532727045   -3.33525e-07   5.72202e-07 DIIS
   @DF-RHF iter  10:  -379.14986539143672   -6.41663e-08   1.62467e-07 DIIS
   @DF-RHF iter  11:  -379.14986539681439   -5.37767e-09   4.66438e-08 DIIS
   @DF-RHF iter  12:  -379.14986539724038   -4.25985e-10   1.24037e-08 DIIS
   @DF-RHF iter  13:  -379.14986539728488   -4.45084e-11   3.90364e-09 DIIS
   @DF-RHF iter  14:  -379.14986539729063   -5.74119e-12   1.86848e-09 DIIS
   @DF-RHF iter  15:  -379.14986539729341   -2.78533e-12   9.13391e-10 DIIS
   @DF-RHF iter  16:  -379.14986539729358   -1.70530e-13   3.85522e-10 DIIS
   @DF-RHF iter  17:  -379.14986539729364   -5.68434e-14   1.47001e-10 DIIS
   @DF-RHF iter  18:  -379.14986539729296    6.82121e-13   6.97719e-11 DIIS
  Energy and wave function converged.


  ==> Post-Iterations <==

    Orbital Energies [Eh]
    ---------------------

    Doubly Occupied:                                                      

       1A    -20.401646     2A    -20.319654     3A    -20.315742  
       4A    -11.166733     5A    -11.162769     6A    -11.097442  
       7A    -11.091898     8A     -1.254449     9A     -1.180232  
      10A     -1.089531    11A     -0.914499    12A     -0.764583  
      13A     -0.641321    14A     -0.549645    15A     -0.500224  
      16A     -0.492304    17A     -0.471231    18A     -0.420203  
      19A     -0.404104    20A     -0.398022    21A     -0.383746  
      22A     -0.358913    23A     -0.345877    24A     -0.317355  
      25A     -0.234419    26A     -0.211903    27A     -0.193700  

    Virtual:                                                              

      28A      0.106448    29A      0.124416    30A      0.127699  
      31A      0.140462    32A      0.149649    33A      0.186221  
      34A      0.186755    35A      0.202448    36A      0.207093  
      37A      0.214411    38A      0.222186    39A      0.235112  
      40A      0.236102    41A      0.242430    42A      0.243598  
      43A      0.258063    44A      0.265153    45A      0.271436  
      46A      0.275703    47A      0.308584    48A      0.310527  
      49A      0.322441    50A      0.330063    51A      0.337196  
      52A      0.355598    53A      0.356718    54A      0.358224  
      55A      0.371394    56A      0.385540    57A      0.388860  
      58A      0.395552    59A      0.407973    60A      0.409005  
      61A      0.415175    62A      0.426310    63A      0.427722  
      64A      0.445542    65A      0.454321    66A      0.466520  
      67A      0.468500    68A      0.471878    69A      0.475208  
      70A      0.481812    71A      0.491479    72A      0.502101  
      73A      0.502613    74A      0.520606    75A      0.525392  
      76A      0.529064    77A      0.544625    78A      0.551218  
      79A      0.559383    80A      0.563627    81A      0.568102  
      82A      0.581729    83A      0.584971    84A      0.600944  
      85A      0.606173    86A      0.609874    87A      0.628328  
      88A      0.629250    89A      0.634500    90A      0.640327  
      91A      0.657647    92A      0.660104    93A      0.669547  
      94A      0.684490    95A      0.693495    96A      0.711183  
      97A      0.722024    98A      0.727347    99A      0.734120  
     100A      0.737939   101A      0.752133   102A      0.765299  
     103A      0.795014   104A      0.796701   105A      0.805643  
     106A      0.840575   107A      0.842705   108A      0.865554  
     109A      0.885074   110A      0.900757   111A      0.901194  
     112A      0.919971   113A      0.925760   114A      0.937151  
     115A      0.943787   116A      0.956700   117A      0.965621  
     118A      0.972137   119A      0.994492   120A      0.997417  
     121A      1.002747   122A      1.007117   123A      1.019309  
     124A      1.022036   125A      1.032805   126A      1.038704  
     127A      1.043047   128A      1.048690   129A      1.057727  
     130A      1.067549   131A      1.072348   132A      1.079253  
     133A      1.085345   134A      1.101108   135A      1.128130  
     136A      1.136597   137A      1.141971   138A      1.145165  
     139A      1.148807   140A      1.165061   141A      1.166643  
     142A      1.183902   143A      1.188809   144A      1.209784  
     145A      1.214503   146A      1.219910   147A      1.226508  
     148A      1.241083   149A      1.254976   150A      1.259521  
     151A      1.266571   152A      1.280816   153A      1.288684  
     154A      1.303124   155A      1.307626   156A      1.311449  
     157A      1.321011   158A      1.336582   159A      1.345853  
     160A      1.352344   161A      1.361718   162A      1.373148  
     163A      1.393518   164A      1.405713   165A      1.429897  
     166A      1.432245   167A      1.442898   168A      1.450718  
     169A      1.467687   170A      1.471450   171A      1.474595  
     172A      1.545705   173A      1.553820   174A      1.565216  
     175A      1.571259   176A      1.576083   177A      1.589013  
     178A      1.605303   179A      1.614604   180A      1.625305  
     181A      1.643321   182A      1.651303   183A      1.683949  
     184A      1.699398   185A      1.716401   186A      1.719839  
     187A      1.747763   188A      1.751653   189A      1.759018  
     190A      1.772667   191A      1.780417   192A      1.792189  
     193A      1.803564   194A      1.818020   195A      1.818977  
     196A      1.828930   197A      1.844561   198A      1.862544  
     199A      1.880636   200A      1.893961   201A      1.901136  
     202A      1.917811   203A      1.923662   204A      1.944222  
     205A      1.965203   206A      1.967471   207A      1.976154  
     208A      1.986399   209A      2.016278   210A      2.037723  
     211A      2.040275   212A      2.056237   213A      2.072002  
     214A      2.085438   215A      2.098448   216A      2.113861  
     217A      2.132489   218A      2.155959   219A      2.174720  
     220A      2.189343   221A      2.208900   222A      2.214553  
     223A      2.261148   224A      2.269333   225A      2.295229  
     226A      2.330626   227A      2.341685   228A      2.346762  
     229A      2.364437   230A      2.389144   231A      2.397685  
     232A      2.414773   233A      2.429253   234A      2.455974  
     235A      2.491950   236A      2.508744   237A      2.523057  
     238A      2.536329   239A      2.551054   240A      2.567408  
     241A      2.611855   242A      2.618633   243A      2.662091  
     244A      2.670104   245A      2.706343   246A      2.707397  
     247A      2.715279   248A      2.722949   249A      2.745049  
     250A      2.766804   251A      2.779111   252A      2.787880  
     253A      2.806583   254A      2.823108   255A      2.845355  
     256A      2.848541   257A      2.886615   258A      2.906573  
     259A      2.917329   260A      2.929448   261A      2.969172  
     262A      2.981409   263A      3.011109   264A      3.040363  
     265A      3.058732   266A      3.089406   267A      3.132123  
     268A      3.162324   269A      3.190451   270A      3.200493  
     271A      3.215506   272A      3.256727   273A      3.282034  
     274A      3.315577   275A      3.333895   276A      3.377047  
     277A      3.387160   278A      3.429415   279A      3.446251  
     280A      3.481853   281A      3.531776   282A      3.548180  
     283A      3.584538   284A      3.608810   285A      3.628824  
     286A      3.636081   287A      3.645400   288A      3.670719  
     289A      3.686137   290A      3.709047   291A      3.716634  
     292A      3.766940   293A      3.788719   294A      3.798806  
     295A      3.814150   296A      3.833946   297A      3.848515  
     298A      3.871010   299A      3.877295   300A      3.886683  
     301A      3.902556   302A      3.944538   303A      3.962033  
     304A      3.981814   305A      3.994297   306A      4.015407  
     307A      4.021848   308A      4.028829   309A      4.031647  
     310A      4.083209   311A      4.106706   312A      4.120718  
     313A      4.134332   314A      4.152029   315A      4.180758  
     316A      4.194598   317A      4.214543   318A      4.223887  
     319A      4.235182   320A      4.297159   321A      4.304565  
     322A      4.326617   323A      4.346462   324A      4.357852  
     325A      4.366870   326A      4.381664   327A      4.426518  
     328A      4.441127   329A      4.445716   330A      4.471912  
     331A      4.498789   332A      4.525988   333A      4.559690  
     334A      4.601683   335A      4.617020   336A      4.634436  
     337A      4.671654   338A      4.705403   339A      4.734290  
     340A      4.749308   341A      4.771111   342A      4.793938  
     343A      4.849248   344A      4.852703   345A      4.875907  
     346A      4.927953   347A      4.949494   348A      4.960231  
     349A      4.971918   350A      4.980012   351A      5.016874  
     352A      5.058864   353A      5.071395   354A      5.157001  
     355A      5.160643   356A      5.183401   357A      5.209342  
     358A      5.234462   359A      5.261618   360A      5.288428  
     361A      5.309199   362A      5.330725   363A      5.355289  
     364A      5.406725   365A      5.427840   366A      5.458485  
     367A      5.480120   368A      5.514643   369A      5.524958  
     370A      5.548042   371A      5.638157   372A      5.658767  
     373A      5.683712   374A      5.737790   375A      5.762248  
     376A      5.816856   377A      5.820900   378A      5.911690  
     379A      5.957464   380A      5.963564   381A      6.062536  
     382A      6.134019   383A      6.191090   384A      6.200997  
     385A      6.268048   386A      6.319740   387A      6.327666  
     388A      6.351568   389A      6.555423   390A      6.597261  
     391A      6.657924   392A      6.844254   393A      6.867443  
     394A      6.874126   395A      6.894101   396A      6.912734  
     397A      6.960299   398A      6.988777   399A      6.990710  
     400A      7.012980   401A      7.103648   402A      7.124910  
     403A      7.169358   404A      7.189810   405A      7.245048  
     406A      7.250678   407A      7.285268   408A      7.318880  
     409A      7.359147   410A      7.423023   411A      7.488648  
     412A      7.521839   413A      7.563812   414A      7.574268  
     415A      7.586799   416A      7.615343   417A      7.644632  
     418A      7.721294   419A      7.783498   420A      7.827740  
     421A      7.854293   422A      7.860333   423A      7.931673  
     424A      7.966252   425A      7.983727   426A      8.056565  
     427A      8.107445   428A      8.125248   429A      8.228811  
     430A      8.257166   431A     14.675042   432A     14.799614  
     433A     15.975622   434A     17.128789   435A     17.960464  
     436A     18.529930   437A     19.374582  

    Final Occupation by Irrep:
              A 
    DOCC [    27 ]

  @DF-RHF Final Energy:  -379.14986539729296

   => Energetics <=

    Nuclear Repulsion Energy =            284.8196428149770441
    One-Electron Energy =               -1094.5747291478528496
    Two-Electron Energy =                 430.6052209355829063
    Total Energy =                       -379.1498653972929560

Computation Completed

*** tstop() called on node142.bme.utexas.edu at Tue Nov 17 01:17:49 2020
Module time:
	user time   =      77.31 seconds =       1.29 minutes
	system time =       2.38 seconds =       0.04 minutes
	total time  =         12 seconds =       0.20 minutes
Total time:
	user time   =      77.31 seconds =       1.29 minutes
	system time =       2.38 seconds =       0.04 minutes
	total time  =         12 seconds =       0.20 minutes
   => Loading Basis Set <=

    Name: (AUG-CC-PVTZ AUX)
    Role: RIFIT
    Keyword: DF_BASIS_MP2
    atoms 1-3  entry O          line   264 file /home/xy3866/psi4conda/share/psi4/basis/aug-cc-pvtz-ri.gbs 
    atoms 4-7  entry C          line   148 file /home/xy3866/psi4conda/share/psi4/basis/aug-cc-pvtz-ri.gbs 
    atoms 8-12 entry H          line    30 file /home/xy3866/psi4conda/share/psi4/basis/aug-cc-pvtz-ri.gbs 


*** tstart() called on node142.bme.utexas.edu
*** at Tue Nov 17 01:17:49 2020


  //>>>>>>>>>>>>>>>>>>>>>>>>>>>>>>>>>>>//
  //               DFMP2               //
  //<<<<<<<<<<<<<<<<<<<<<<<<<<<<<<<<<<<//

	 --------------------------------------------------------
	                          DF-MP2                         
	      2nd-Order Density-Fitted Moller-Plesset Theory     
	              RMP2 Wavefunction,   8 Threads             
	                                                         
	        Rob Parrish, Justin Turney, Andy Simmonett,      
	           Ed Hohenstein, and C. David Sherrill          
	 --------------------------------------------------------

   => Auxiliary Basis Set <=

  Basis Set: (AUG-CC-PVTZ AUX)
    Blend: AUG-CC-PVTZ-RI
    Number of shells: 266
    Number of basis function: 972
    Number of Cartesian functions: 1227
    Spherical Harmonics?: true
    Max angular momentum: 4

	 --------------------------------------------------------
	                 NBF =   437, NAUX =   972
	 --------------------------------------------------------
	   CLASS    FOCC     OCC    AOCC    AVIR     VIR    FVIR
	   PAIRS       0      27      27     410     410       0
	 --------------------------------------------------------

  DFHelper Memory: AOs need 1.373 GiB; user supplied 22.352 GiB. Using in-core AOs.


         ------------------------------------------------------------
                                     CPHF                           
                                  Rob Parrish                       
         ------------------------------------------------------------

  ==> Geometry <==

    Molecular point group: c1
    Full point group: C1

    Geometry (in Angstrom), charge = -1, multiplicity = 1:

       Center              X                  Y                   Z               Mass       
    ------------   -----------------  -----------------  -----------------  -----------------
         O           -0.524242464205     1.516981649388    -0.012891483373    15.994914619570
         O            2.156882535795     0.685243649388    -0.007650483373    15.994914619570
         O            1.337067535795    -1.463879350612    -0.012614483373    15.994914619570
         C           -1.299844464205    -0.747466350612    -0.009241483373    12.000000000000
         C           -2.706022464205    -0.165158350612    -0.009489483373    12.000000000000
         C           -0.257448864205     0.362996549388     0.077065716627    12.000000000000
         C            1.265283535795    -0.198271350612    -0.010306483373    12.000000000000
         H           -1.122175464205    -1.396699350612    -0.873356483373     1.007825032230
         H           -1.121691464205    -1.394547350612     0.856421516627     1.007825032230
         H           -2.862914464205     0.465913649388    -0.888397483373     1.007825032230
         H           -3.465226464205    -0.955786350612    -0.008236483373     1.007825032230
         H           -2.862350464205     0.468144649388     0.867921516627     1.007825032230

  Nuclear repulsion =  284.819642814977044
  Reference energy  = -379.149865397292956

  ==> Basis Set <==

  Basis Set: AUG-CC-PVTZ
    Blend: AUG-CC-PVTZ
    Number of shells: 143
    Number of basis function: 437
    Number of Cartesian functions: 510
    Spherical Harmonics?: true
    Max angular momentum: 3

  ==> CGRSolver (by Rob Parrish) <==

   Number of roots    =         1
   Preconditioning    =    JACOBI
   Convergence cutoff =     1E-06
   Maximum iterations =       100

  ==> CPHFRHamiltonian (by Rob Parrish) <== 

  ==> MemDFJK: Density-Fitted J/K Matrices <==

    J tasked:                   Yes
    K tasked:                   Yes
    wK tasked:                   No
    OpenMP threads:               8
    Memory [MiB]:             22888
    Algorithm:                 Core
    Schwarz Cutoff:           1E-12
    Mask sparsity (%):       3.4477
    Fitting Condition:        1E-10

   => Auxiliary Basis Set <=

  Basis Set: (AUG-CC-PVTZ AUX)
    Blend: AUG-CC-PVTZ-JKFIT
    Number of shells: 280
    Number of basis function: 958
    Number of Cartesian functions: 1192
    Spherical Harmonics?: true
    Max angular momentum: 4

  ==> CPHF Iterations <==

  => Iterations <=

             Iter  Converged  Remaining    Residual
  CGR           1          0          1   1.188E-01
  CGR           2          0          1   3.468E-02
  CGR           3          0          1   1.304E-02
  CGR           4          0          1   4.232E-03
  CGR           5          0          1   1.840E-03
  CGR           6          0          1   7.200E-04
  CGR           7          0          1   3.766E-04
  CGR           8          0          1   2.034E-04
  CGR           9          0          1   8.052E-05
  CGR          10          0          1   2.975E-05
  CGR          11          0          1   8.398E-06
  CGR          12          0          1   2.599E-06
  CGR          13          0          1   1.008E-06
  CGR          14          1          0   3.169E-07

    CGRSolver converged.

	-----------------------------------------------------------
	 ==================> DF-MP2 Energies <==================== 
	-----------------------------------------------------------
	 Reference Energy          =    -379.1498653972929560 [Eh]
	 Singles Energy            =      -0.0000000000000000 [Eh]
	 Same-Spin Energy          =      -0.3727597084638117 [Eh]
	 Opposite-Spin Energy      =      -1.1372048834525719 [Eh]
	 Correlation Energy        =      -1.5099645919163835 [Eh]
	 Total Energy              =    -380.6598299892093564 [Eh]
	-----------------------------------------------------------
	 ================> DF-SCS-MP2 Energies <================== 
	-----------------------------------------------------------
	 SCS Same-Spin Scale       =       0.3333333333333333 [-]
	 SCS Opposite-Spin Scale   =       1.2000000000000000 [-]
	 SCS Same-Spin Energy      =      -0.1242532361546039 [Eh]
	 SCS Opposite-Spin Energy  =      -1.3646458601430862 [Eh]
	 SCS Correlation Energy    =      -1.4888990962976900 [Eh]
	 SCS Total Energy          =    -380.6387644935906565 [Eh]
	-----------------------------------------------------------



Properties will be evaluated at  -0.000000,   0.000000,   0.000000 [a0]

Properties computed using the MP2 density matrix

  Nuclear Dipole Moment: [e a0]
     X:   -10.7051      Y:    -2.6335      Z:    -0.0430

  Electronic Dipole Moment: [e a0]
     X:     8.0734      Y:     2.3774      Z:     0.0938

  Dipole Moment: [e a0]
     X:    -2.6316      Y:    -0.2562      Z:     0.0508     Total:     2.6446

  Dipole Moment: [D]
     X:    -6.6890      Y:    -0.6511      Z:     0.1291     Total:     6.7218


*** tstop() called on node142.bme.utexas.edu at Tue Nov 17 01:18:24 2020
Module time:
	user time   =     240.13 seconds =       4.00 minutes
	system time =       5.70 seconds =       0.10 minutes
	total time  =         35 seconds =       0.58 minutes
Total time:
	user time   =     318.38 seconds =       5.31 minutes
	system time =       8.15 seconds =       0.14 minutes
	total time  =         47 seconds =       0.78 minutes

    Psi4 stopped on: Tuesday, 17 November 2020 01:18AM
    Psi4 wall time for execution: 0:00:46.71

*** Psi4 exiting successfully. Buy a developer a beer!
