
    -----------------------------------------------------------------------
          Psi4: An Open-Source Ab Initio Electronic Structure Package
                               Psi4 1.3.2 release

                         Git: Rev {HEAD} ecbda83 


    R. M. Parrish, L. A. Burns, D. G. A. Smith, A. C. Simmonett,
    A. E. DePrince III, E. G. Hohenstein, U. Bozkaya, A. Yu. Sokolov,
    R. Di Remigio, R. M. Richard, J. F. Gonthier, A. M. James,
    H. R. McAlexander, A. Kumar, M. Saitow, X. Wang, B. P. Pritchard,
    P. Verma, H. F. Schaefer III, K. Patkowski, R. A. King, E. F. Valeev,
    F. A. Evangelista, J. M. Turney, T. D. Crawford, and C. D. Sherrill,
    J. Chem. Theory Comput. 13(7) pp 3185--3197 (2017).
    (doi: 10.1021/acs.jctc.7b00174)


                         Additional Contributions by
    P. Kraus, H. Kruse, M. H. Lechner, M. C. Schieber, R. A. Shaw,
    A. Alenaizan, R. Galvelis, Z. L. Glick, S. Lehtola, and J. P. Misiewicz

    -----------------------------------------------------------------------


    Psi4 started on: Tuesday, 02 February 2021 04:14AM

    Process ID: 3417599
    Host:       node87.bme.utexas.edu
    PSIDATADIR: /home/xy3866/psi4conda/share/psi4
    Memory:     500.0 MiB
    Threads:    8
    
  ==> Input File <==

--------------------------------------------------------------------------
#psi4
#
memory 32 gb

molecule  {
1 1
  N        0.2769550    -0.2036720    -0.3241330
  C       -0.2734970     1.1052870     0.1974480
  C       -0.7605958    -1.3031600    -0.0869447
  C       -1.7487720     1.0080340    -0.1478690
  C       -2.0899640    -0.4391570     0.2222400
  C        1.6014160    -0.6227950     0.2602130
  C        2.7021640     0.3718760    -0.0544870
  H        0.4198120    -0.0821770    -1.3354460
  H        0.2647170     1.9344670    -0.2636010
  H       -0.1049550     1.1121840     1.2781340
  H       -0.5119850    -1.9240980     0.6516280
  H       -0.9170180    -1.8004520    -1.0710850
  H       -1.9040400     1.1951860    -1.2159660
  H       -2.3418250     1.7391150     0.4059550
  H       -2.2892440    -0.5166410     1.2941000
  H       -2.9682270    -0.8151510    -0.3061210
  H        1.4364190    -0.7316030     1.3351050
  H        1.8217380    -1.6082590    -0.1583240
  H        2.8177600     0.5164630    -1.1327800
  H        2.5337300     1.3397110     0.4209800
  H        3.6474560    -0.0228690     0.3252770
units angstrom
no_reorient  #important for SAPT in psi4, default
symmetry c1  #important for SAPT in psi4, default
}

set PROPERTIES_ORIGIN ["COM"]
properties('MP2/aug-cc-pvtz', properties = ['dipole'])
--------------------------------------------------------------------------

  Memory set to  29.802 GiB by Python driver.
    SCF Algorithm Type (re)set to DF.

*** tstart() called on node87.bme.utexas.edu
*** at Tue Feb  2 04:14:08 2021

   => Loading Basis Set <=

    Name: AUG-CC-PVTZ
    Role: ORBITAL
    Keyword: BASIS
    atoms 1    entry N          line   281 file /home/xy3866/psi4conda/share/psi4/basis/aug-cc-pvtz.gbs 
    atoms 2-7  entry C          line   235 file /home/xy3866/psi4conda/share/psi4/basis/aug-cc-pvtz.gbs 
    atoms 8-21 entry H          line    36 file /home/xy3866/psi4conda/share/psi4/basis/aug-cc-pvtz.gbs 


         ---------------------------------------------------------
                                   SCF
               by Justin Turney, Rob Parrish, Andy Simmonett
                          and Daniel G. A. Smith
                              RHF Reference
                        8 Threads,  30517 MiB Core
         ---------------------------------------------------------

  ==> Geometry <==

    Molecular point group: c1
    Full point group: C1

    Geometry (in Angstrom), charge = 1, multiplicity = 1:

       Center              X                  Y                   Z               Mass       
    ------------   -----------------  -----------------  -----------------  -----------------
         N            0.287278620407    -0.192958967014    -0.327908589705    14.003074004430
         C           -0.263173379593     1.116000032986     0.193672410295    12.000000000000
         C           -0.750272179593    -1.292446967014    -0.090720289705    12.000000000000
         C           -1.738448379593     1.018747032986    -0.151644589705    12.000000000000
         C           -2.079640379593    -0.428443967014     0.218464410295    12.000000000000
         C            1.611739620407    -0.612081967014     0.256437410295    12.000000000000
         C            2.712487620407     0.382589032986    -0.058262589705    12.000000000000
         H            0.430135620407    -0.071463967014    -1.339221589705     1.007825032230
         H            0.275040620407     1.945180032986    -0.267376589705     1.007825032230
         H           -0.094631379593     1.122897032986     1.274358410295     1.007825032230
         H           -0.501661379593    -1.913384967014     0.647852410295     1.007825032230
         H           -0.906694379593    -1.789738967014    -1.074860589705     1.007825032230
         H           -1.893716379593     1.205899032986    -1.219741589705     1.007825032230
         H           -2.331501379593     1.749828032986     0.402179410295     1.007825032230
         H           -2.278920379593    -0.505927967014     1.290324410295     1.007825032230
         H           -2.957903379593    -0.804437967014    -0.309896589705     1.007825032230
         H            1.446742620407    -0.720889967014     1.331329410295     1.007825032230
         H            1.832061620407    -1.597545967014    -0.162099589705     1.007825032230
         H            2.828083620407     0.527176032986    -1.136555589705     1.007825032230
         H            2.544053620407     1.350424032986     0.417204410295     1.007825032230
         H            3.657779620407    -0.012155967014     0.321501410295     1.007825032230

  Running in c1 symmetry.

  Rotational constants: A =      0.17790  B =      0.05811  C =      0.04768 [cm^-1]
  Rotational constants: A =   5333.30842  B =   1742.05337  C =   1429.49580 [MHz]
  Nuclear repulsion =  339.392602023642382

  Charge       = 1
  Multiplicity = 1
  Electrons    = 56
  Nalpha       = 28
  Nbeta        = 28

  ==> Algorithm <==

  SCF Algorithm Type is DF.
  DIIS enabled.
  MOM disabled.
  Fractional occupation disabled.
  Guess Type is SAD.
  Energy threshold   = 1.00e-10
  Density threshold  = 1.00e-10
  Integral threshold = 0.00e+00

  ==> Primary Basis <==

  Basis Set: AUG-CC-PVTZ
    Blend: AUG-CC-PVTZ
    Number of shells: 224
    Number of basis function: 644
    Number of Cartesian functions: 735
    Spherical Harmonics?: true
    Max angular momentum: 3

   => Loading Basis Set <=

    Name: (AUG-CC-PVTZ AUX)
    Role: JKFIT
    Keyword: DF_BASIS_SCF
    atoms 1    entry N          line   224 file /home/xy3866/psi4conda/share/psi4/basis/aug-cc-pvtz-jkfit.gbs 
    atoms 2-7  entry C          line   162 file /home/xy3866/psi4conda/share/psi4/basis/aug-cc-pvtz-jkfit.gbs 
    atoms 8-21 entry H          line    70 file /home/xy3866/psi4conda/share/psi4/basis/aug-cc-pvtz-jkfit.gbs 

  ==> Pre-Iterations <==

   -------------------------------------------------------
    Irrep   Nso     Nmo     Nalpha   Nbeta   Ndocc  Nsocc
   -------------------------------------------------------
     A        644     644       0       0       0       0
   -------------------------------------------------------
    Total     644     644      28      28      28       0
   -------------------------------------------------------

  ==> Integral Setup <==

  DFHelper Memory: AOs need 4.229 GiB; user supplied 22.352 GiB. Using in-core AOs.

  ==> MemDFJK: Density-Fitted J/K Matrices <==

    J tasked:                   Yes
    K tasked:                   Yes
    wK tasked:                   No
    OpenMP threads:               8
    Memory [MiB]:             22888
    Algorithm:                 Disk
    Schwarz Cutoff:           1E-12
    Mask sparsity (%):       3.1307
    Fitting Condition:        1E-10

   => Auxiliary Basis Set <=

  Basis Set: (AUG-CC-PVTZ AUX)
    Blend: AUG-CC-PVTZ-JKFIT
    Number of shells: 406
    Number of basis function: 1372
    Number of Cartesian functions: 1687
    Spherical Harmonics?: true
    Max angular momentum: 4

  Minimum eigenvalue in the overlap matrix is 2.1850714807E-06.
  Using Symmetric Orthogonalization.

  SCF Guess: Superposition of Atomic Densities via on-the-fly atomic UHF.

  ==> Iterations <==

                           Total Energy        Delta E     RMS |[F,P]|

   @DF-RHF iter SAD:  -289.95016236077140   -2.89950e+02   0.00000e+00 
   @DF-RHF iter   1:  -289.45086459770067    4.99298e-01   9.37277e-04 DIIS
   @DF-RHF iter   2:  -289.65897620962551   -2.08112e-01   3.77030e-04 DIIS
   @DF-RHF iter   3:  -289.69006949595160   -3.10933e-02   9.70486e-05 DIIS
   @DF-RHF iter   4:  -289.69345579508621   -3.38630e-03   1.93448e-05 DIIS
   @DF-RHF iter   5:  -289.69358257431918   -1.26779e-04   6.20569e-06 DIIS
   @DF-RHF iter   6:  -289.69359586955864   -1.32952e-05   1.23370e-06 DIIS
   @DF-RHF iter   7:  -289.69359650621436   -6.36656e-07   2.93766e-07 DIIS
   @DF-RHF iter   8:  -289.69359654143864   -3.52243e-08   9.82439e-08 DIIS
   @DF-RHF iter   9:  -289.69359654474840   -3.30976e-09   2.72483e-08 DIIS
   @DF-RHF iter  10:  -289.69359654508713   -3.38730e-10   9.41308e-09 DIIS
   @DF-RHF iter  11:  -289.69359654511339   -2.62617e-11   2.63274e-09 DIIS
   @DF-RHF iter  12:  -289.69359654511555   -2.16005e-12   7.53479e-10 DIIS
   @DF-RHF iter  13:  -289.69359654511754   -1.98952e-12   2.37524e-10 DIIS
   @DF-RHF iter  14:  -289.69359654511692    6.25278e-13   7.23887e-11 DIIS
  Energy and wave function converged.


  ==> Post-Iterations <==

    Orbital Energies [Eh]
    ---------------------

    Doubly Occupied:                                                      

       1A    -15.851218     2A    -11.451056     3A    -11.450232  
       4A    -11.448189     5A    -11.395110     6A    -11.392867  
       7A    -11.380897     8A     -1.490273     9A     -1.252759  
      10A     -1.184295    11A     -1.171812    12A     -1.041132  
      13A     -1.030439    14A     -0.979398    15A     -0.900782  
      16A     -0.856412    17A     -0.823931    18A     -0.797957  
      19A     -0.774160    20A     -0.762008    21A     -0.727292  
      22A     -0.701550    23A     -0.687260    24A     -0.678134  
      25A     -0.669942    26A     -0.658748    27A     -0.651897  
      28A     -0.638154  

    Virtual:                                                              

      29A     -0.086743    30A     -0.072198    31A     -0.065721  
      32A     -0.061394    33A     -0.046231    34A     -0.042812  
      35A     -0.042278    36A     -0.041662    37A     -0.040868  
      38A     -0.018788    39A     -0.017560    40A     -0.014790  
      41A     -0.012635    42A     -0.008025    43A     -0.002600  
      44A      0.000561    45A      0.006825    46A      0.014133  
      47A      0.017238    48A      0.018808    49A      0.022677  
      50A      0.028623    51A      0.033620    52A      0.035299  
      53A      0.037238    54A      0.041582    55A      0.043570  
      56A      0.046000    57A      0.049798    58A      0.056134  
      59A      0.062609    60A      0.068716    61A      0.073267  
      62A      0.075805    63A      0.080812    64A      0.084984  
      65A      0.088553    66A      0.095473    67A      0.097174  
      68A      0.106804    69A      0.114675    70A      0.117878  
      71A      0.119299    72A      0.124971    73A      0.135758  
      74A      0.142969    75A      0.148812    76A      0.155845  
      77A      0.163885    78A      0.170550    79A      0.174344  
      80A      0.176757    81A      0.185300    82A      0.189582  
      83A      0.197621    84A      0.200755    85A      0.206239  
      86A      0.212237    87A      0.215159    88A      0.222218  
      89A      0.225196    90A      0.227289    91A      0.229662  
      92A      0.238419    93A      0.242013    94A      0.244870  
      95A      0.248122    96A      0.252249    97A      0.255274  
      98A      0.262726    99A      0.264157   100A      0.270731  
     101A      0.272294   102A      0.274861   103A      0.281569  
     104A      0.285520   105A      0.290145   106A      0.294007  
     107A      0.295833   108A      0.300431   109A      0.307165  
     110A      0.312855   111A      0.316328   112A      0.318427  
     113A      0.322210   114A      0.327096   115A      0.332495  
     116A      0.337527   117A      0.340532   118A      0.347743  
     119A      0.351594   120A      0.357954   121A      0.361031  
     122A      0.368126   123A      0.372940   124A      0.378674  
     125A      0.385057   126A      0.392234   127A      0.395036  
     128A      0.398437   129A      0.405262   130A      0.407204  
     131A      0.411947   132A      0.415087   133A      0.422831  
     134A      0.430359   135A      0.437756   136A      0.439813  
     137A      0.444852   138A      0.447602   139A      0.455452  
     140A      0.460353   141A      0.461921   142A      0.467228  
     143A      0.472086   144A      0.477149   145A      0.485119  
     146A      0.491277   147A      0.496706   148A      0.500462  
     149A      0.504201   150A      0.507735   151A      0.511304  
     152A      0.518980   153A      0.520590   154A      0.524183  
     155A      0.537034   156A      0.543445   157A      0.550148  
     158A      0.570468   159A      0.572702   160A      0.584651  
     161A      0.588166   162A      0.595109   163A      0.606078  
     164A      0.620922   165A      0.628953   166A      0.641609  
     167A      0.646820   168A      0.653214   169A      0.662726  
     170A      0.672964   171A      0.680722   172A      0.681914  
     173A      0.691829   174A      0.695263   175A      0.710999  
     176A      0.712238   177A      0.722840   178A      0.726123  
     179A      0.732551   180A      0.736903   181A      0.746911  
     182A      0.751214   183A      0.753633   184A      0.766331  
     185A      0.771179   186A      0.774250   187A      0.779070  
     188A      0.792296   189A      0.794152   190A      0.796085  
     191A      0.797150   192A      0.808635   193A      0.811100  
     194A      0.816958   195A      0.819711   196A      0.826695  
     197A      0.832091   198A      0.844271   199A      0.845848  
     200A      0.850904   201A      0.860294   202A      0.867780  
     203A      0.873225   204A      0.881489   205A      0.884101  
     206A      0.889675   207A      0.895862   208A      0.904216  
     209A      0.915304   210A      0.919915   211A      0.924558  
     212A      0.930436   213A      0.938778   214A      0.940436  
     215A      0.947040   216A      0.958688   217A      0.967720  
     218A      0.969036   219A      0.978673   220A      0.984341  
     221A      0.993662   222A      1.000453   223A      1.012782  
     224A      1.019779   225A      1.026556   226A      1.037071  
     227A      1.039355   228A      1.041052   229A      1.054174  
     230A      1.057302   231A      1.061992   232A      1.066751  
     233A      1.081065   234A      1.088195   235A      1.088991  
     236A      1.095238   237A      1.103603   238A      1.104767  
     239A      1.121328   240A      1.124116   241A      1.127908  
     242A      1.139433   243A      1.148000   244A      1.157544  
     245A      1.166880   246A      1.168511   247A      1.176190  
     248A      1.186898   249A      1.188250   250A      1.195831  
     251A      1.207568   252A      1.221372   253A      1.230311  
     254A      1.231056   255A      1.253430   256A      1.261465  
     257A      1.265712   258A      1.276384   259A      1.283304  
     260A      1.289726   261A      1.294620   262A      1.299571  
     263A      1.304424   264A      1.315968   265A      1.328532  
     266A      1.334071   267A      1.342554   268A      1.347185  
     269A      1.354554   270A      1.360106   271A      1.372748  
     272A      1.378852   273A      1.391962   274A      1.400678  
     275A      1.413304   276A      1.417934   277A      1.423968  
     278A      1.432421   279A      1.445182   280A      1.451008  
     281A      1.467312   282A      1.469601   283A      1.476441  
     284A      1.477408   285A      1.491567   286A      1.498815  
     287A      1.508354   288A      1.516175   289A      1.521417  
     290A      1.527297   291A      1.532795   292A      1.541649  
     293A      1.549147   294A      1.552461   295A      1.558579  
     296A      1.559119   297A      1.563365   298A      1.570564  
     299A      1.579259   300A      1.587284   301A      1.594730  
     302A      1.610955   303A      1.615700   304A      1.627987  
     305A      1.633207   306A      1.634354   307A      1.654757  
     308A      1.661076   309A      1.671260   310A      1.677946  
     311A      1.686729   312A      1.690956   313A      1.700965  
     314A      1.702751   315A      1.716442   316A      1.727615  
     317A      1.734906   318A      1.742828   319A      1.760942  
     320A      1.763364   321A      1.767961   322A      1.784583  
     323A      1.789943   324A      1.797155   325A      1.799981  
     326A      1.808336   327A      1.813640   328A      1.819513  
     329A      1.825337   330A      1.839749   331A      1.854298  
     332A      1.859201   333A      1.865706   334A      1.871795  
     335A      1.874061   336A      1.879860   337A      1.897247  
     338A      1.902378   339A      1.913310   340A      1.921705  
     341A      1.945046   342A      1.949757   343A      1.954829  
     344A      1.968902   345A      1.982881   346A      1.993432  
     347A      2.000796   348A      2.014180   349A      2.031649  
     350A      2.051208   351A      2.062277   352A      2.080816  
     353A      2.085170   354A      2.090123   355A      2.093780  
     356A      2.102336   357A      2.112894   358A      2.122691  
     359A      2.126941   360A      2.133833   361A      2.148757  
     362A      2.158932   363A      2.170111   364A      2.180567  
     365A      2.189284   366A      2.193216   367A      2.199355  
     368A      2.219612   369A      2.230646   370A      2.249360  
     371A      2.258820   372A      2.267400   373A      2.290817  
     374A      2.308855   375A      2.316357   376A      2.331405  
     377A      2.335855   378A      2.344836   379A      2.363679  
     380A      2.377419   381A      2.393225   382A      2.406105  
     383A      2.410571   384A      2.414613   385A      2.434943  
     386A      2.466282   387A      2.481469   388A      2.491322  
     389A      2.503430   390A      2.535509   391A      2.555902  
     392A      2.568427   393A      2.591312   394A      2.605576  
     395A      2.642398   396A      2.698642   397A      2.704219  
     398A      2.711728   399A      2.757843   400A      2.826263  
     401A      2.842743   402A      2.892672   403A      2.948203  
     404A      3.015615   405A      3.029504   406A      3.160934  
     407A      3.175513   408A      3.208475   409A      3.231271  
     410A      3.256652   411A      3.268104   412A      3.299749  
     413A      3.313618   414A      3.334732   415A      3.345315  
     416A      3.367647   417A      3.376941   418A      3.398345  
     419A      3.411840   420A      3.436209   421A      3.455715  
     422A      3.464926   423A      3.480055   424A      3.498034  
     425A      3.509210   426A      3.510686   427A      3.513194  
     428A      3.521044   429A      3.529862   430A      3.540635  
     431A      3.553639   432A      3.569783   433A      3.582628  
     434A      3.589413   435A      3.612481   436A      3.626239  
     437A      3.633011   438A      3.649991   439A      3.659019  
     440A      3.663444   441A      3.675259   442A      3.680159  
     443A      3.685677   444A      3.696558   445A      3.726234  
     446A      3.729376   447A      3.745080   448A      3.750233  
     449A      3.759866   450A      3.769731   451A      3.778059  
     452A      3.792678   453A      3.797229   454A      3.803242  
     455A      3.810419   456A      3.821418   457A      3.830752  
     458A      3.844674   459A      3.847809   460A      3.852589  
     461A      3.867606   462A      3.872755   463A      3.882926  
     464A      3.894989   465A      3.907373   466A      3.912817  
     467A      3.934426   468A      3.939259   469A      3.961960  
     470A      3.965496   471A      3.978451   472A      3.980886  
     473A      4.007131   474A      4.012104   475A      4.031283  
     476A      4.048916   477A      4.057847   478A      4.075844  
     479A      4.080201   480A      4.097785   481A      4.108821  
     482A      4.115856   483A      4.127654   484A      4.138184  
     485A      4.145160   486A      4.159696   487A      4.167358  
     488A      4.188820   489A      4.195866   490A      4.209892  
     491A      4.215424   492A      4.233780   493A      4.246472  
     494A      4.263618   495A      4.277184   496A      4.288940  
     497A      4.304909   498A      4.319455   499A      4.343561  
     500A      4.344769   501A      4.356274   502A      4.366252  
     503A      4.404810   504A      4.413340   505A      4.417004  
     506A      4.430067   507A      4.452244   508A      4.469316  
     509A      4.474179   510A      4.487647   511A      4.496111  
     512A      4.511040   513A      4.520072   514A      4.540939  
     515A      4.557591   516A      4.578309   517A      4.585244  
     518A      4.602673   519A      4.631952   520A      4.655612  
     521A      4.671934   522A      4.683148   523A      4.687616  
     524A      4.711514   525A      4.714776   526A      4.723740  
     527A      4.737753   528A      4.746105   529A      4.770697  
     530A      4.775242   531A      4.791574   532A      4.798306  
     533A      4.807670   534A      4.819205   535A      4.827577  
     536A      4.840422   537A      4.859667   538A      4.866945  
     539A      4.886742   540A      4.892761   541A      4.903126  
     542A      4.926688   543A      4.929272   544A      4.945690  
     545A      4.958886   546A      4.975501   547A      5.004013  
     548A      5.016451   549A      5.027929   550A      5.035796  
     551A      5.047328   552A      5.057891   553A      5.078626  
     554A      5.086234   555A      5.105237   556A      5.114232  
     557A      5.146429   558A      5.148233   559A      5.170037  
     560A      5.175589   561A      5.186549   562A      5.220054  
     563A      5.238422   564A      5.251787   565A      5.265428  
     566A      5.276302   567A      5.289640   568A      5.299194  
     569A      5.315833   570A      5.316629   571A      5.336443  
     572A      5.355355   573A      5.358363   574A      5.382612  
     575A      5.396492   576A      5.402274   577A      5.407856  
     578A      5.430176   579A      5.447717   580A      5.462819  
     581A      5.490281   582A      5.500795   583A      5.511319  
     584A      5.530417   585A      5.546592   586A      5.552927  
     587A      5.577844   588A      5.583976   589A      5.616432  
     590A      5.624710   591A      5.658940   592A      5.689841  
     593A      5.702173   594A      5.708880   595A      5.719102  
     596A      5.729287   597A      5.748880   598A      5.825100  
     599A      5.829650   600A      5.857676   601A      5.863858  
     602A      5.887852   603A      5.925513   604A      5.942100  
     605A      5.976119   606A      5.990981   607A      6.017918  
     608A      6.085086   609A      6.089027   610A      6.099096  
     611A      6.121777   612A      6.144746   613A      6.163875  
     614A      6.236695   615A      6.260132   616A      6.292022  
     617A      6.310391   618A      6.329402   619A      6.366143  
     620A      6.420303   621A      6.462431   622A      6.464866  
     623A      6.521756   624A      6.528428   625A      6.603329  
     626A      6.640786   627A      6.661616   628A      6.708193  
     629A      6.748177   630A      6.761604   631A      6.768766  
     632A      6.802067   633A      6.864083   634A      6.896988  
     635A      6.918489   636A      6.993723   637A      7.706083  
     638A     17.957572   639A     18.142858   640A     18.268042  
     641A     18.904906   642A     19.710516   643A     19.743643  
     644A     20.777377  

    Final Occupation by Irrep:
              A 
    DOCC [    28 ]

  @DF-RHF Final Energy:  -289.69359654511692

   => Energetics <=

    Nuclear Repulsion Energy =            339.3926020236423824
    One-Electron Energy =               -1052.4765936239773509
    Two-Electron Energy =                 423.3903950552179936
    Total Energy =                       -289.6935965451169182

Computation Completed

*** tstop() called on node87.bme.utexas.edu at Tue Feb  2 04:15:03 2021
Module time:
	user time   =     237.95 seconds =       3.97 minutes
	system time =      32.00 seconds =       0.53 minutes
	total time  =         55 seconds =       0.92 minutes
Total time:
	user time   =     237.95 seconds =       3.97 minutes
	system time =      32.00 seconds =       0.53 minutes
	total time  =         55 seconds =       0.92 minutes
   => Loading Basis Set <=

    Name: (AUG-CC-PVTZ AUX)
    Role: RIFIT
    Keyword: DF_BASIS_MP2
    atoms 1    entry N          line   206 file /home/xy3866/psi4conda/share/psi4/basis/aug-cc-pvtz-ri.gbs 
    atoms 2-7  entry C          line   148 file /home/xy3866/psi4conda/share/psi4/basis/aug-cc-pvtz-ri.gbs 
    atoms 8-21 entry H          line    30 file /home/xy3866/psi4conda/share/psi4/basis/aug-cc-pvtz-ri.gbs 


*** tstart() called on node87.bme.utexas.edu
*** at Tue Feb  2 04:15:03 2021


  //>>>>>>>>>>>>>>>>>>>>>>>>>>>>>>>>>>>//
  //               DFMP2               //
  //<<<<<<<<<<<<<<<<<<<<<<<<<<<<<<<<<<<//

	 --------------------------------------------------------
	                          DF-MP2                         
	      2nd-Order Density-Fitted Moller-Plesset Theory     
	              RMP2 Wavefunction,   8 Threads             
	                                                         
	        Rob Parrish, Justin Turney, Andy Simmonett,      
	           Ed Hohenstein, and C. David Sherrill          
	 --------------------------------------------------------

   => Auxiliary Basis Set <=

  Basis Set: (AUG-CC-PVTZ AUX)
    Blend: AUG-CC-PVTZ-RI
    Number of shells: 392
    Number of basis function: 1386
    Number of Cartesian functions: 1722
    Spherical Harmonics?: true
    Max angular momentum: 4

	 --------------------------------------------------------
	                 NBF =   644, NAUX =  1386
	 --------------------------------------------------------
	   CLASS    FOCC     OCC    AOCC    AVIR     VIR    FVIR
	   PAIRS       0      28      28     616     616       0
	 --------------------------------------------------------

  DFHelper Memory: AOs need 4.229 GiB; user supplied 22.352 GiB. Using in-core AOs.


         ------------------------------------------------------------
                                     CPHF                           
                                  Rob Parrish                       
         ------------------------------------------------------------

  ==> Geometry <==

    Molecular point group: c1
    Full point group: C1

    Geometry (in Angstrom), charge = 1, multiplicity = 1:

       Center              X                  Y                   Z               Mass       
    ------------   -----------------  -----------------  -----------------  -----------------
         N            0.287278620407    -0.192958967014    -0.327908589705    14.003074004430
         C           -0.263173379593     1.116000032986     0.193672410295    12.000000000000
         C           -0.750272179593    -1.292446967014    -0.090720289705    12.000000000000
         C           -1.738448379593     1.018747032986    -0.151644589705    12.000000000000
         C           -2.079640379593    -0.428443967014     0.218464410295    12.000000000000
         C            1.611739620407    -0.612081967014     0.256437410295    12.000000000000
         C            2.712487620407     0.382589032986    -0.058262589705    12.000000000000
         H            0.430135620407    -0.071463967014    -1.339221589705     1.007825032230
         H            0.275040620407     1.945180032986    -0.267376589705     1.007825032230
         H           -0.094631379593     1.122897032986     1.274358410295     1.007825032230
         H           -0.501661379593    -1.913384967014     0.647852410295     1.007825032230
         H           -0.906694379593    -1.789738967014    -1.074860589705     1.007825032230
         H           -1.893716379593     1.205899032986    -1.219741589705     1.007825032230
         H           -2.331501379593     1.749828032986     0.402179410295     1.007825032230
         H           -2.278920379593    -0.505927967014     1.290324410295     1.007825032230
         H           -2.957903379593    -0.804437967014    -0.309896589705     1.007825032230
         H            1.446742620407    -0.720889967014     1.331329410295     1.007825032230
         H            1.832061620407    -1.597545967014    -0.162099589705     1.007825032230
         H            2.828083620407     0.527176032986    -1.136555589705     1.007825032230
         H            2.544053620407     1.350424032986     0.417204410295     1.007825032230
         H            3.657779620407    -0.012155967014     0.321501410295     1.007825032230

  Nuclear repulsion =  339.392602023642382
  Reference energy  = -289.693596545116918

  ==> Basis Set <==

  Basis Set: AUG-CC-PVTZ
    Blend: AUG-CC-PVTZ
    Number of shells: 224
    Number of basis function: 644
    Number of Cartesian functions: 735
    Spherical Harmonics?: true
    Max angular momentum: 3

  ==> CGRSolver (by Rob Parrish) <==

   Number of roots    =         1
   Preconditioning    =    JACOBI
   Convergence cutoff =     1E-06
   Maximum iterations =       100

  ==> CPHFRHamiltonian (by Rob Parrish) <== 

  ==> MemDFJK: Density-Fitted J/K Matrices <==

    J tasked:                   Yes
    K tasked:                   Yes
    wK tasked:                   No
    OpenMP threads:               8
    Memory [MiB]:             22888
    Algorithm:                 Disk
    Schwarz Cutoff:           1E-12
    Mask sparsity (%):       3.1307
    Fitting Condition:        1E-10

   => Auxiliary Basis Set <=

  Basis Set: (AUG-CC-PVTZ AUX)
    Blend: AUG-CC-PVTZ-JKFIT
    Number of shells: 406
    Number of basis function: 1372
    Number of Cartesian functions: 1687
    Spherical Harmonics?: true
    Max angular momentum: 4

  ==> CPHF Iterations <==

  => Iterations <=

             Iter  Converged  Remaining    Residual
  CGR           1          0          1   7.737E-02
  CGR           2          0          1   1.485E-02
  CGR           3          0          1   5.203E-03
  CGR           4          0          1   1.311E-03
  CGR           5          0          1   3.578E-04
  CGR           6          0          1   1.075E-04
  CGR           7          0          1   3.226E-05
  CGR           8          0          1   7.777E-06
  CGR           9          0          1   2.678E-06
  CGR          10          1          0   6.634E-07

    CGRSolver converged.

	-----------------------------------------------------------
	 ==================> DF-MP2 Energies <==================== 
	-----------------------------------------------------------
	 Reference Energy          =    -289.6935965451169182 [Eh]
	 Singles Energy            =      -0.0000000000000000 [Eh]
	 Same-Spin Energy          =      -0.3029413845215342 [Eh]
	 Opposite-Spin Energy      =      -1.0930482808249620 [Eh]
	 Correlation Energy        =      -1.3959896653464963 [Eh]
	 Total Energy              =    -291.0895862104634375 [Eh]
	-----------------------------------------------------------
	 ================> DF-SCS-MP2 Energies <================== 
	-----------------------------------------------------------
	 SCS Same-Spin Scale       =       0.3333333333333333 [-]
	 SCS Opposite-Spin Scale   =       1.2000000000000000 [-]
	 SCS Same-Spin Energy      =      -0.1009804615071781 [Eh]
	 SCS Opposite-Spin Energy  =      -1.3116579369899544 [Eh]
	 SCS Correlation Energy    =      -1.4126383984971325 [Eh]
	 SCS Total Energy          =    -291.1062349436140266 [Eh]
	-----------------------------------------------------------



Properties will be evaluated at  -0.000000,   0.000000,  -0.000000 [a0]

Properties computed using the MP2 density matrix

  Nuclear Dipole Moment: [e a0]
     X:     1.9199      Y:     0.4560      Z:     0.1650

  Electronic Dipole Moment: [e a0]
     X:    -1.6379      Y:    -0.6347      Z:    -0.4410

  Dipole Moment: [e a0]
     X:     0.2820      Y:    -0.1786      Z:    -0.2760     Total:     0.4332

  Dipole Moment: [D]
     X:     0.7168      Y:    -0.4540      Z:    -0.7016     Total:     1.1010


*** tstop() called on node87.bme.utexas.edu at Tue Feb  2 04:17:08 2021
Module time:
	user time   =     710.77 seconds =      11.85 minutes
	system time =      39.19 seconds =       0.65 minutes
	total time  =        125 seconds =       2.08 minutes
Total time:
	user time   =     948.89 seconds =      15.81 minutes
	system time =      71.19 seconds =       1.19 minutes
	total time  =        180 seconds =       3.00 minutes

    Psi4 stopped on: Tuesday, 02 February 2021 04:17AM
    Psi4 wall time for execution: 0:02:59.65

*** Psi4 exiting successfully. Buy a developer a beer!
