
    -----------------------------------------------------------------------
          Psi4: An Open-Source Ab Initio Electronic Structure Package
                               Psi4 1.3.2 release

                         Git: Rev {HEAD} ecbda83 


    R. M. Parrish, L. A. Burns, D. G. A. Smith, A. C. Simmonett,
    A. E. DePrince III, E. G. Hohenstein, U. Bozkaya, A. Yu. Sokolov,
    R. Di Remigio, R. M. Richard, J. F. Gonthier, A. M. James,
    H. R. McAlexander, A. Kumar, M. Saitow, X. Wang, B. P. Pritchard,
    P. Verma, H. F. Schaefer III, K. Patkowski, R. A. King, E. F. Valeev,
    F. A. Evangelista, J. M. Turney, T. D. Crawford, and C. D. Sherrill,
    J. Chem. Theory Comput. 13(7) pp 3185--3197 (2017).
    (doi: 10.1021/acs.jctc.7b00174)


                         Additional Contributions by
    P. Kraus, H. Kruse, M. H. Lechner, M. C. Schieber, R. A. Shaw,
    A. Alenaizan, R. Galvelis, Z. L. Glick, S. Lehtola, and J. P. Misiewicz

    -----------------------------------------------------------------------


    Psi4 started on: Tuesday, 02 February 2021 02:56AM

    Process ID: 3358231
    Host:       node87.bme.utexas.edu
    PSIDATADIR: /home/xy3866/psi4conda/share/psi4
    Memory:     500.0 MiB
    Threads:    8
    
  ==> Input File <==

--------------------------------------------------------------------------
#psi4
#
memory 32 gb

molecule  {
1 1
  N        0.2769550    -0.2036720    -0.3241330
  C       -0.2961620     1.0931205     0.2033933
  C       -0.8318510    -1.2416080    -0.1373660
  C       -1.7487720     1.0080340    -0.1478690
  C       -2.0899640    -0.4391570     0.2222400
  C        1.6014160    -0.6227950     0.2602130
  C        2.7021640     0.3718760    -0.0544870
  H        0.4198120    -0.0821770    -1.3354460
  H        0.2647170     1.9344670    -0.2636010
  H       -0.1049550     1.1121840     1.2781340
  H       -0.5119850    -1.9240980     0.6516280
  H       -0.9170180    -1.8004520    -1.0710850
  H       -1.9040400     1.1951860    -1.2159660
  H       -2.3418250     1.7391150     0.4059550
  H       -2.2892440    -0.5166410     1.2941000
  H       -2.9682270    -0.8151510    -0.3061210
  H        1.4364190    -0.7316030     1.3351050
  H        1.8217380    -1.6082590    -0.1583240
  H        2.8177600     0.5164630    -1.1327800
  H        2.5337300     1.3397110     0.4209800
  H        3.6474560    -0.0228690     0.3252770
units angstrom
no_reorient  #important for SAPT in psi4, default
symmetry c1  #important for SAPT in psi4, default
}

set PROPERTIES_ORIGIN ["COM"]
properties('MP2/aug-cc-pvtz', properties = ['dipole'])
--------------------------------------------------------------------------

  Memory set to  29.802 GiB by Python driver.
    SCF Algorithm Type (re)set to DF.

*** tstart() called on node87.bme.utexas.edu
*** at Tue Feb  2 02:56:13 2021

   => Loading Basis Set <=

    Name: AUG-CC-PVTZ
    Role: ORBITAL
    Keyword: BASIS
    atoms 1    entry N          line   281 file /home/xy3866/psi4conda/share/psi4/basis/aug-cc-pvtz.gbs 
    atoms 2-7  entry C          line   235 file /home/xy3866/psi4conda/share/psi4/basis/aug-cc-pvtz.gbs 
    atoms 8-21 entry H          line    36 file /home/xy3866/psi4conda/share/psi4/basis/aug-cc-pvtz.gbs 


         ---------------------------------------------------------
                                   SCF
               by Justin Turney, Rob Parrish, Andy Simmonett
                          and Daniel G. A. Smith
                              RHF Reference
                        8 Threads,  30517 MiB Core
         ---------------------------------------------------------

  ==> Geometry <==

    Molecular point group: c1
    Full point group: C1

    Geometry (in Angstrom), charge = 1, multiplicity = 1:

       Center              X                  Y                   Z               Mass       
    ------------   -----------------  -----------------  -----------------  -----------------
         N            0.298536365433    -0.198878560105    -0.322577473846    14.003074004430
         C           -0.274580634567     1.097913939895     0.204948826154    12.000000000000
         C           -0.810269634567    -1.236814560105    -0.135810473846    12.000000000000
         C           -1.727190634567     1.012827439895    -0.146313473846    12.000000000000
         C           -2.068382634567    -0.434363560105     0.223795526154    12.000000000000
         C            1.622997365433    -0.618001560105     0.261768526154    12.000000000000
         C            2.723745365433     0.376669439895    -0.052931473846    12.000000000000
         H            0.441393365433    -0.077383560105    -1.333890473846     1.007825032230
         H            0.286298365433     1.939260439895    -0.262045473846     1.007825032230
         H           -0.083373634567     1.116977439895     1.279689526154     1.007825032230
         H           -0.490403634567    -1.919304560105     0.653183526154     1.007825032230
         H           -0.895436634567    -1.795658560105    -1.069529473846     1.007825032230
         H           -1.882458634567     1.199979439895    -1.214410473846     1.007825032230
         H           -2.320243634567     1.743908439895     0.407510526154     1.007825032230
         H           -2.267662634567    -0.511847560105     1.295655526154     1.007825032230
         H           -2.946645634567    -0.810357560105    -0.304565473846     1.007825032230
         H            1.458000365433    -0.726809560105     1.336660526154     1.007825032230
         H            1.843319365433    -1.603465560105    -0.156768473846     1.007825032230
         H            2.839341365433     0.521256439895    -1.131224473846     1.007825032230
         H            2.555311365433     1.344504439895     0.422535526154     1.007825032230
         H            3.669037365433    -0.018075560105     0.326832526154     1.007825032230

  Running in c1 symmetry.

  Rotational constants: A =      0.18178  B =      0.05778  C =      0.04778 [cm^-1]
  Rotational constants: A =   5449.55888  B =   1732.23281  C =   1432.38801 [MHz]
  Nuclear repulsion =  340.252895220357971

  Charge       = 1
  Multiplicity = 1
  Electrons    = 56
  Nalpha       = 28
  Nbeta        = 28

  ==> Algorithm <==

  SCF Algorithm Type is DF.
  DIIS enabled.
  MOM disabled.
  Fractional occupation disabled.
  Guess Type is SAD.
  Energy threshold   = 1.00e-10
  Density threshold  = 1.00e-10
  Integral threshold = 0.00e+00

  ==> Primary Basis <==

  Basis Set: AUG-CC-PVTZ
    Blend: AUG-CC-PVTZ
    Number of shells: 224
    Number of basis function: 644
    Number of Cartesian functions: 735
    Spherical Harmonics?: true
    Max angular momentum: 3

   => Loading Basis Set <=

    Name: (AUG-CC-PVTZ AUX)
    Role: JKFIT
    Keyword: DF_BASIS_SCF
    atoms 1    entry N          line   224 file /home/xy3866/psi4conda/share/psi4/basis/aug-cc-pvtz-jkfit.gbs 
    atoms 2-7  entry C          line   162 file /home/xy3866/psi4conda/share/psi4/basis/aug-cc-pvtz-jkfit.gbs 
    atoms 8-21 entry H          line    70 file /home/xy3866/psi4conda/share/psi4/basis/aug-cc-pvtz-jkfit.gbs 

  ==> Pre-Iterations <==

   -------------------------------------------------------
    Irrep   Nso     Nmo     Nalpha   Nbeta   Ndocc  Nsocc
   -------------------------------------------------------
     A        644     644       0       0       0       0
   -------------------------------------------------------
    Total     644     644      28      28      28       0
   -------------------------------------------------------

  ==> Integral Setup <==

  DFHelper Memory: AOs need 4.228 GiB; user supplied 22.352 GiB. Using in-core AOs.

  ==> MemDFJK: Density-Fitted J/K Matrices <==

    J tasked:                   Yes
    K tasked:                   Yes
    wK tasked:                   No
    OpenMP threads:               8
    Memory [MiB]:             22888
    Algorithm:                 Disk
    Schwarz Cutoff:           1E-12
    Mask sparsity (%):       3.1427
    Fitting Condition:        1E-10

   => Auxiliary Basis Set <=

  Basis Set: (AUG-CC-PVTZ AUX)
    Blend: AUG-CC-PVTZ-JKFIT
    Number of shells: 406
    Number of basis function: 1372
    Number of Cartesian functions: 1687
    Spherical Harmonics?: true
    Max angular momentum: 4

  Minimum eigenvalue in the overlap matrix is 2.0947766633E-06.
  Using Symmetric Orthogonalization.

  SCF Guess: Superposition of Atomic Densities via on-the-fly atomic UHF.

  ==> Iterations <==

                           Total Energy        Delta E     RMS |[F,P]|

   @DF-RHF iter SAD:  -290.05651268944496   -2.90057e+02   0.00000e+00 
   @DF-RHF iter   1:  -289.45591366099495    6.00599e-01   9.52691e-04 DIIS
   @DF-RHF iter   2:  -289.66778865820692   -2.11875e-01   3.94767e-04 DIIS
   @DF-RHF iter   3:  -289.70140084029748   -3.36122e-02   9.90369e-05 DIIS
   @DF-RHF iter   4:  -289.70492354605545   -3.52271e-03   2.06319e-05 DIIS
   @DF-RHF iter   5:  -289.70506063156262   -1.37086e-04   6.44755e-06 DIIS
   @DF-RHF iter   6:  -289.70507495341201   -1.43218e-05   1.28413e-06 DIIS
   @DF-RHF iter   7:  -289.70507562553780   -6.72126e-07   3.05289e-07 DIIS
   @DF-RHF iter   8:  -289.70507566315189   -3.76141e-08   9.37461e-08 DIIS
   @DF-RHF iter   9:  -289.70507566637599   -3.22410e-09   2.39910e-08 DIIS
   @DF-RHF iter  10:  -289.70507566666060   -2.84615e-10   5.09571e-09 DIIS
   @DF-RHF iter  11:  -289.70507566667300   -1.23919e-11   2.01810e-09 DIIS
   @DF-RHF iter  12:  -289.70507566667317   -1.70530e-13   5.50716e-10 DIIS
   @DF-RHF iter  13:  -289.70507566667567   -2.50111e-12   1.93788e-10 DIIS
   @DF-RHF iter  14:  -289.70507566667538    2.84217e-13   5.86956e-11 DIIS
  Energy and wave function converged.


  ==> Post-Iterations <==

    Orbital Energies [Eh]
    ---------------------

    Doubly Occupied:                                                      

       1A    -15.849726     2A    -11.451753     3A    -11.450590  
       4A    -11.450153     5A    -11.392336     6A    -11.391321  
       7A    -11.381552     8A     -1.491240     9A     -1.261951  
      10A     -1.184175    11A     -1.175081    12A     -1.040004  
      13A     -1.024494    14A     -0.982266    15A     -0.900081  
      16A     -0.854872    17A     -0.826215    18A     -0.785075  
      19A     -0.774711    20A     -0.760115    21A     -0.729152  
      22A     -0.692701    23A     -0.689754    24A     -0.682326  
      25A     -0.671361    26A     -0.664168    27A     -0.655847  
      28A     -0.643109  

    Virtual:                                                              

      29A     -0.086694    30A     -0.072254    31A     -0.065754  
      32A     -0.061466    33A     -0.045904    34A     -0.042699  
      35A     -0.042322    36A     -0.041667    37A     -0.040951  
      38A     -0.019027    39A     -0.017561    40A     -0.014775  
      41A     -0.012629    42A     -0.008189    43A     -0.002104  
      44A      0.000083    45A      0.007263    46A      0.013726  
      47A      0.016388    48A      0.018811    49A      0.023149  
      50A      0.028779    51A      0.033201    52A      0.035350  
      53A      0.037702    54A      0.041263    55A      0.043245  
      56A      0.045247    57A      0.049797    58A      0.056076  
      59A      0.062843    60A      0.068210    61A      0.072890  
      62A      0.076149    63A      0.080922    64A      0.085261  
      65A      0.087468    66A      0.096646    67A      0.097470  
      68A      0.107404    69A      0.114159    70A      0.117189  
      71A      0.120566    72A      0.130101    73A      0.135300  
      74A      0.142145    75A      0.148803    76A      0.157853  
      77A      0.162535    78A      0.169350    79A      0.175515  
      80A      0.178942    81A      0.185439    82A      0.189359  
      83A      0.196312    84A      0.199630    85A      0.207691  
      86A      0.213303    87A      0.215943    88A      0.220566  
      89A      0.223235    90A      0.226161    91A      0.231021  
      92A      0.238705    93A      0.241561    94A      0.244915  
      95A      0.248707    96A      0.254284    97A      0.256584  
      98A      0.262016    99A      0.266445   100A      0.269914  
     101A      0.272369   102A      0.274653   103A      0.281478  
     104A      0.284695   105A      0.290982   106A      0.294442  
     107A      0.296269   108A      0.300450   109A      0.306939  
     110A      0.314029   111A      0.316905   112A      0.320988  
     113A      0.323891   114A      0.327507   115A      0.331821  
     116A      0.337630   117A      0.342061   118A      0.351146  
     119A      0.352716   120A      0.356864   121A      0.361120  
     122A      0.368451   123A      0.372838   124A      0.378757  
     125A      0.385021   126A      0.389846   127A      0.397753  
     128A      0.398154   129A      0.405061   130A      0.408273  
     131A      0.412486   132A      0.415866   133A      0.424768  
     134A      0.430821   135A      0.437499   136A      0.438211  
     137A      0.445030   138A      0.448584   139A      0.456115  
     140A      0.459491   141A      0.461935   142A      0.469792  
     143A      0.475322   144A      0.476815   145A      0.485588  
     146A      0.492895   147A      0.496760   148A      0.500484  
     149A      0.504847   150A      0.510072   151A      0.512762  
     152A      0.519455   153A      0.523820   154A      0.526276  
     155A      0.539079   156A      0.544152   157A      0.552699  
     158A      0.570577   159A      0.572932   160A      0.585936  
     161A      0.589244   162A      0.592755   163A      0.604771  
     164A      0.619971   165A      0.631222   166A      0.644199  
     167A      0.647282   168A      0.655582   169A      0.662995  
     170A      0.672032   171A      0.680180   172A      0.681711  
     173A      0.689393   174A      0.693173   175A      0.706519  
     176A      0.711950   177A      0.718051   178A      0.729216  
     179A      0.732724   180A      0.736095   181A      0.745912  
     182A      0.750943   183A      0.754908   184A      0.767030  
     185A      0.771753   186A      0.774322   187A      0.778992  
     188A      0.792281   189A      0.794802   190A      0.797131  
     191A      0.798974   192A      0.809164   193A      0.812392  
     194A      0.815816   195A      0.818956   196A      0.826183  
     197A      0.834186   198A      0.839807   199A      0.847306  
     200A      0.850477   201A      0.856837   202A      0.869312  
     203A      0.874129   204A      0.880704   205A      0.884468  
     206A      0.890544   207A      0.896021   208A      0.905474  
     209A      0.913915   210A      0.920721   211A      0.926882  
     212A      0.931310   213A      0.939409   214A      0.945246  
     215A      0.950573   216A      0.961021   217A      0.966737  
     218A      0.969191   219A      0.979254   220A      0.986719  
     221A      0.991888   222A      1.002734   223A      1.009456  
     224A      1.021759   225A      1.027170   226A      1.037905  
     227A      1.040234   228A      1.041586   229A      1.054969  
     230A      1.057763   231A      1.062558   232A      1.064091  
     233A      1.079551   234A      1.085553   235A      1.090541  
     236A      1.094325   237A      1.104201   238A      1.106475  
     239A      1.121404   240A      1.124951   241A      1.129261  
     242A      1.145711   243A      1.148689   244A      1.162224  
     245A      1.167467   246A      1.171560   247A      1.175545  
     248A      1.186805   249A      1.189731   250A      1.197406  
     251A      1.207454   252A      1.221533   253A      1.227491  
     254A      1.228624   255A      1.249623   256A      1.261733  
     257A      1.268395   258A      1.270698   259A      1.282970  
     260A      1.290266   261A      1.293286   262A      1.300377  
     263A      1.304991   264A      1.311970   265A      1.327768  
     266A      1.332323   267A      1.342155   268A      1.349967  
     269A      1.355536   270A      1.361496   271A      1.370400  
     272A      1.376100   273A      1.387229   274A      1.402796  
     275A      1.409437   276A      1.417165   277A      1.423582  
     278A      1.433922   279A      1.449094   280A      1.453534  
     281A      1.465577   282A      1.466192   283A      1.476521  
     284A      1.481450   285A      1.490187   286A      1.497290  
     287A      1.508782   288A      1.516118   289A      1.520756  
     290A      1.529351   291A      1.532504   292A      1.539166  
     293A      1.549574   294A      1.552287   295A      1.558236  
     296A      1.561517   297A      1.564875   298A      1.569133  
     299A      1.580391   300A      1.590867   301A      1.598987  
     302A      1.613045   303A      1.617241   304A      1.628256  
     305A      1.634217   306A      1.639539   307A      1.654881  
     308A      1.661016   309A      1.672702   310A      1.681481  
     311A      1.682954   312A      1.693388   313A      1.700482  
     314A      1.707305   315A      1.718789   316A      1.726440  
     317A      1.737134   318A      1.746032   319A      1.757868  
     320A      1.766608   321A      1.770157   322A      1.781469  
     323A      1.791442   324A      1.805258   325A      1.808769  
     326A      1.815440   327A      1.817902   328A      1.825798  
     329A      1.828256   330A      1.844481   331A      1.854419  
     332A      1.857001   333A      1.868459   334A      1.874722  
     335A      1.874805   336A      1.878866   337A      1.896721  
     338A      1.900391   339A      1.923133   340A      1.931613  
     341A      1.938055   342A      1.948243   343A      1.951097  
     344A      1.963893   345A      1.986958   346A      1.994634  
     347A      1.999529   348A      2.021685   349A      2.031599  
     350A      2.050581   351A      2.061221   352A      2.079147  
     353A      2.086075   354A      2.087561   355A      2.097530  
     356A      2.102479   357A      2.111048   358A      2.116620  
     359A      2.124608   360A      2.139913   361A      2.153076  
     362A      2.159001   363A      2.168632   364A      2.180443  
     365A      2.187194   366A      2.195009   367A      2.201806  
     368A      2.222472   369A      2.235348   370A      2.251467  
     371A      2.265846   372A      2.275105   373A      2.294490  
     374A      2.303689   375A      2.313732   376A      2.322362  
     377A      2.338843   378A      2.348805   379A      2.360390  
     380A      2.383667   381A      2.399482   382A      2.402432  
     383A      2.413010   384A      2.421288   385A      2.438077  
     386A      2.474528   387A      2.481482   388A      2.498468  
     389A      2.511059   390A      2.549009   391A      2.564337  
     392A      2.568721   393A      2.596766   394A      2.611114  
     395A      2.649531   396A      2.695306   397A      2.709592  
     398A      2.730714   399A      2.761468   400A      2.837839  
     401A      2.892338   402A      2.909460   403A      2.952959  
     404A      3.026605   405A      3.047417   406A      3.158684  
     407A      3.171521   408A      3.202303   409A      3.254112  
     410A      3.267807   411A      3.280136   412A      3.306890  
     413A      3.315151   414A      3.329377   415A      3.347205  
     416A      3.356116   417A      3.367083   418A      3.389258  
     419A      3.402400   420A      3.436431   421A      3.453010  
     422A      3.462633   423A      3.482088   424A      3.488096  
     425A      3.511455   426A      3.516117   427A      3.517296  
     428A      3.520956   429A      3.540219   430A      3.542320  
     431A      3.563034   432A      3.579850   433A      3.584733  
     434A      3.600523   435A      3.609326   436A      3.623054  
     437A      3.630080   438A      3.654222   439A      3.660012  
     440A      3.667979   441A      3.680189   442A      3.685455  
     443A      3.697319   444A      3.706929   445A      3.715809  
     446A      3.732416   447A      3.742811   448A      3.760115  
     449A      3.764943   450A      3.773583   451A      3.779297  
     452A      3.786356   453A      3.796667   454A      3.804046  
     455A      3.818606   456A      3.826631   457A      3.832494  
     458A      3.836356   459A      3.840695   460A      3.856486  
     461A      3.863221   462A      3.873741   463A      3.886190  
     464A      3.892394   465A      3.909864   466A      3.918896  
     467A      3.929620   468A      3.945696   469A      3.962690  
     470A      3.979577   471A      3.984377   472A      4.002951  
     473A      4.011182   474A      4.015708   475A      4.036045  
     476A      4.055275   477A      4.063946   478A      4.072392  
     479A      4.080307   480A      4.102794   481A      4.103695  
     482A      4.117291   483A      4.132933   484A      4.138474  
     485A      4.160570   486A      4.160901   487A      4.173308  
     488A      4.188250   489A      4.197554   490A      4.208285  
     491A      4.224633   492A      4.226516   493A      4.256561  
     494A      4.267798   495A      4.282029   496A      4.294614  
     497A      4.297796   498A      4.319849   499A      4.329329  
     500A      4.352086   501A      4.363243   502A      4.376435  
     503A      4.407555   504A      4.413321   505A      4.417462  
     506A      4.444115   507A      4.457941   508A      4.472723  
     509A      4.483153   510A      4.497556   511A      4.501058  
     512A      4.515743   513A      4.527322   514A      4.546489  
     515A      4.561366   516A      4.577007   517A      4.590977  
     518A      4.600705   519A      4.639419   520A      4.654650  
     521A      4.669723   522A      4.680045   523A      4.686842  
     524A      4.698784   525A      4.714072   526A      4.722400  
     527A      4.732229   528A      4.747576   529A      4.765329  
     530A      4.771082   531A      4.782178   532A      4.797688  
     533A      4.806559   534A      4.823110   535A      4.831849  
     536A      4.847509   537A      4.861320   538A      4.863704  
     539A      4.886456   540A      4.897097   541A      4.911237  
     542A      4.924552   543A      4.935621   544A      4.949601  
     545A      4.961699   546A      4.984378   547A      5.011628  
     548A      5.019318   549A      5.031337   550A      5.035486  
     551A      5.049359   552A      5.063307   553A      5.081448  
     554A      5.085485   555A      5.096791   556A      5.115214  
     557A      5.150669   558A      5.155687   559A      5.161501  
     560A      5.182421   561A      5.183299   562A      5.203687  
     563A      5.219095   564A      5.256487   565A      5.260983  
     566A      5.269286   567A      5.285193   568A      5.292026  
     569A      5.301614   570A      5.317788   571A      5.340170  
     572A      5.354305   573A      5.373087   574A      5.377875  
     575A      5.391958   576A      5.404767   577A      5.409968  
     578A      5.417716   579A      5.437269   580A      5.461553  
     581A      5.478925   582A      5.486707   583A      5.512526  
     584A      5.525105   585A      5.539569   586A      5.547079  
     587A      5.562878   588A      5.589405   589A      5.609425  
     590A      5.622130   591A      5.661187   592A      5.672003  
     593A      5.680637   594A      5.709573   595A      5.713321  
     596A      5.728475   597A      5.743008   598A      5.816480  
     599A      5.833994   600A      5.846919   601A      5.865955  
     602A      5.891603   603A      5.909194   604A      5.940835  
     605A      5.975009   606A      5.994896   607A      6.028190  
     608A      6.053598   609A      6.088399   610A      6.103292  
     611A      6.117782   612A      6.132009   613A      6.161332  
     614A      6.206678   615A      6.270532   616A      6.294963  
     617A      6.299173   618A      6.317362   619A      6.374393  
     620A      6.421496   621A      6.444391   622A      6.470368  
     623A      6.529732   624A      6.540082   625A      6.584746  
     626A      6.640557   627A      6.678739   628A      6.713797  
     629A      6.747063   630A      6.762993   631A      6.769373  
     632A      6.804456   633A      6.862789   634A      6.904089  
     635A      6.914785   636A      6.992767   637A      7.701488  
     638A     17.951567   639A     18.037255   640A     18.262030  
     641A     19.089039   642A     19.579242   643A     19.885843  
     644A     20.986646  

    Final Occupation by Irrep:
              A 
    DOCC [    28 ]

  @DF-RHF Final Energy:  -289.70507566667538

   => Energetics <=

    Nuclear Repulsion Energy =            340.2528952203579706
    One-Electron Energy =               -1054.2036864859658181
    Two-Electron Energy =                 424.2457155989325202
    Total Energy =                       -289.7050756666753841

Computation Completed

*** tstop() called on node87.bme.utexas.edu at Tue Feb  2 02:57:08 2021
Module time:
	user time   =     234.20 seconds =       3.90 minutes
	system time =      34.78 seconds =       0.58 minutes
	total time  =         55 seconds =       0.92 minutes
Total time:
	user time   =     234.20 seconds =       3.90 minutes
	system time =      34.78 seconds =       0.58 minutes
	total time  =         55 seconds =       0.92 minutes
   => Loading Basis Set <=

    Name: (AUG-CC-PVTZ AUX)
    Role: RIFIT
    Keyword: DF_BASIS_MP2
    atoms 1    entry N          line   206 file /home/xy3866/psi4conda/share/psi4/basis/aug-cc-pvtz-ri.gbs 
    atoms 2-7  entry C          line   148 file /home/xy3866/psi4conda/share/psi4/basis/aug-cc-pvtz-ri.gbs 
    atoms 8-21 entry H          line    30 file /home/xy3866/psi4conda/share/psi4/basis/aug-cc-pvtz-ri.gbs 


*** tstart() called on node87.bme.utexas.edu
*** at Tue Feb  2 02:57:09 2021


  //>>>>>>>>>>>>>>>>>>>>>>>>>>>>>>>>>>>//
  //               DFMP2               //
  //<<<<<<<<<<<<<<<<<<<<<<<<<<<<<<<<<<<//

	 --------------------------------------------------------
	                          DF-MP2                         
	      2nd-Order Density-Fitted Moller-Plesset Theory     
	              RMP2 Wavefunction,   8 Threads             
	                                                         
	        Rob Parrish, Justin Turney, Andy Simmonett,      
	           Ed Hohenstein, and C. David Sherrill          
	 --------------------------------------------------------

   => Auxiliary Basis Set <=

  Basis Set: (AUG-CC-PVTZ AUX)
    Blend: AUG-CC-PVTZ-RI
    Number of shells: 392
    Number of basis function: 1386
    Number of Cartesian functions: 1722
    Spherical Harmonics?: true
    Max angular momentum: 4

	 --------------------------------------------------------
	                 NBF =   644, NAUX =  1386
	 --------------------------------------------------------
	   CLASS    FOCC     OCC    AOCC    AVIR     VIR    FVIR
	   PAIRS       0      28      28     616     616       0
	 --------------------------------------------------------

  DFHelper Memory: AOs need 4.228 GiB; user supplied 22.352 GiB. Using in-core AOs.


         ------------------------------------------------------------
                                     CPHF                           
                                  Rob Parrish                       
         ------------------------------------------------------------

  ==> Geometry <==

    Molecular point group: c1
    Full point group: C1

    Geometry (in Angstrom), charge = 1, multiplicity = 1:

       Center              X                  Y                   Z               Mass       
    ------------   -----------------  -----------------  -----------------  -----------------
         N            0.298536365433    -0.198878560105    -0.322577473846    14.003074004430
         C           -0.274580634567     1.097913939895     0.204948826154    12.000000000000
         C           -0.810269634567    -1.236814560105    -0.135810473846    12.000000000000
         C           -1.727190634567     1.012827439895    -0.146313473846    12.000000000000
         C           -2.068382634567    -0.434363560105     0.223795526154    12.000000000000
         C            1.622997365433    -0.618001560105     0.261768526154    12.000000000000
         C            2.723745365433     0.376669439895    -0.052931473846    12.000000000000
         H            0.441393365433    -0.077383560105    -1.333890473846     1.007825032230
         H            0.286298365433     1.939260439895    -0.262045473846     1.007825032230
         H           -0.083373634567     1.116977439895     1.279689526154     1.007825032230
         H           -0.490403634567    -1.919304560105     0.653183526154     1.007825032230
         H           -0.895436634567    -1.795658560105    -1.069529473846     1.007825032230
         H           -1.882458634567     1.199979439895    -1.214410473846     1.007825032230
         H           -2.320243634567     1.743908439895     0.407510526154     1.007825032230
         H           -2.267662634567    -0.511847560105     1.295655526154     1.007825032230
         H           -2.946645634567    -0.810357560105    -0.304565473846     1.007825032230
         H            1.458000365433    -0.726809560105     1.336660526154     1.007825032230
         H            1.843319365433    -1.603465560105    -0.156768473846     1.007825032230
         H            2.839341365433     0.521256439895    -1.131224473846     1.007825032230
         H            2.555311365433     1.344504439895     0.422535526154     1.007825032230
         H            3.669037365433    -0.018075560105     0.326832526154     1.007825032230

  Nuclear repulsion =  340.252895220357971
  Reference energy  = -289.705075666675384

  ==> Basis Set <==

  Basis Set: AUG-CC-PVTZ
    Blend: AUG-CC-PVTZ
    Number of shells: 224
    Number of basis function: 644
    Number of Cartesian functions: 735
    Spherical Harmonics?: true
    Max angular momentum: 3

  ==> CGRSolver (by Rob Parrish) <==

   Number of roots    =         1
   Preconditioning    =    JACOBI
   Convergence cutoff =     1E-06
   Maximum iterations =       100

  ==> CPHFRHamiltonian (by Rob Parrish) <== 

  ==> MemDFJK: Density-Fitted J/K Matrices <==

    J tasked:                   Yes
    K tasked:                   Yes
    wK tasked:                   No
    OpenMP threads:               8
    Memory [MiB]:             22888
    Algorithm:                 Disk
    Schwarz Cutoff:           1E-12
    Mask sparsity (%):       3.1427
    Fitting Condition:        1E-10

   => Auxiliary Basis Set <=

  Basis Set: (AUG-CC-PVTZ AUX)
    Blend: AUG-CC-PVTZ-JKFIT
    Number of shells: 406
    Number of basis function: 1372
    Number of Cartesian functions: 1687
    Spherical Harmonics?: true
    Max angular momentum: 4

  ==> CPHF Iterations <==

  => Iterations <=

             Iter  Converged  Remaining    Residual
  CGR           1          0          1   7.964E-02
  CGR           2          0          1   1.508E-02
  CGR           3          0          1   5.190E-03
  CGR           4          0          1   1.302E-03
  CGR           5          0          1   3.700E-04
  CGR           6          0          1   1.084E-04
  CGR           7          0          1   3.074E-05
  CGR           8          0          1   6.966E-06
  CGR           9          0          1   2.320E-06
  CGR          10          1          0   5.408E-07

    CGRSolver converged.

	-----------------------------------------------------------
	 ==================> DF-MP2 Energies <==================== 
	-----------------------------------------------------------
	 Reference Energy          =    -289.7050756666753841 [Eh]
	 Singles Energy            =      -0.0000000000000000 [Eh]
	 Same-Spin Energy          =      -0.3034404963016585 [Eh]
	 Opposite-Spin Energy      =      -1.0929355975959183 [Eh]
	 Correlation Energy        =      -1.3963760938975769 [Eh]
	 Total Energy              =    -291.1014517605729566 [Eh]
	-----------------------------------------------------------
	 ================> DF-SCS-MP2 Energies <================== 
	-----------------------------------------------------------
	 SCS Same-Spin Scale       =       0.3333333333333333 [-]
	 SCS Opposite-Spin Scale   =       1.2000000000000000 [-]
	 SCS Same-Spin Energy      =      -0.1011468321005528 [Eh]
	 SCS Opposite-Spin Energy  =      -1.3115227171151018 [Eh]
	 SCS Correlation Energy    =      -1.4126695492156547 [Eh]
	 SCS Total Energy          =    -291.1177452158910341 [Eh]
	-----------------------------------------------------------



Properties will be evaluated at  -0.000000,   0.000000,   0.000000 [a0]

Properties computed using the MP2 density matrix

  Nuclear Dipole Moment: [e a0]
     X:     2.0676      Y:     0.3784      Z:     0.2350

  Electronic Dipole Moment: [e a0]
     X:    -1.7820      Y:    -0.5632      Z:    -0.5101

  Dipole Moment: [e a0]
     X:     0.2856      Y:    -0.1848      Z:    -0.2752     Total:     0.4376

  Dipole Moment: [D]
     X:     0.7260      Y:    -0.4698      Z:    -0.6994     Total:     1.1122


*** tstop() called on node87.bme.utexas.edu at Tue Feb  2 02:59:12 2021
Module time:
	user time   =     709.15 seconds =      11.82 minutes
	system time =      41.69 seconds =       0.69 minutes
	total time  =        123 seconds =       2.05 minutes
Total time:
	user time   =     943.52 seconds =      15.73 minutes
	system time =      76.48 seconds =       1.27 minutes
	total time  =        179 seconds =       2.98 minutes

    Psi4 stopped on: Tuesday, 02 February 2021 02:59AM
    Psi4 wall time for execution: 0:02:59.12

*** Psi4 exiting successfully. Buy a developer a beer!
