
    -----------------------------------------------------------------------
          Psi4: An Open-Source Ab Initio Electronic Structure Package
                               Psi4 1.4a3.dev225 

                         Git: Rev {master} 7105e37 


    D. G. A. Smith, L. A. Burns, A. C. Simmonett, R. M. Parrish,
    M. C. Schieber, R. Galvelis, P. Kraus, H. Kruse, R. Di Remigio,
    A. Alenaizan, A. M. James, S. Lehtola, J. P. Misiewicz, M. Scheurer,
    R. A. Shaw, J. B. Schriber, Y. Xie, Z. L. Glick, D. A. Sirianni,
    J. S. O'Brien, J. M. Waldrop, A. Kumar, E. G. Hohenstein,
    B. P. Pritchard, B. R. Brooks, H. F. Schaefer III, A. Yu. Sokolov,
    K. Patkowski, A. E. DePrince III, U. Bozkaya, R. A. King,
    F. A. Evangelista, J. M. Turney, T. D. Crawford, C. D. Sherrill,
    J. Chem. Phys. 152(18) 184108 (2020). https://doi.org/10.1063/5.0006002

                            Additional Code Authors
    E. T. Seidl, C. L. Janssen, E. F. Valeev, M. L. Leininger,
    J. F. Gonthier, R. M. Richard, H. R. McAlexander, M. Saitow, X. Wang,
    P. Verma, and M. H. Lechner

             Previous Authors, Complete List of Code Contributors,
                       and Citations for Specific Modules
    https://github.com/psi4/psi4/blob/master/codemeta.json
    https://github.com/psi4/psi4/graphs/contributors
    http://psicode.org/psi4manual/master/introduction.html#citing-psifour

    -----------------------------------------------------------------------


    Psi4 started on: Sunday, 07 March 2021 11:32AM

    Process ID: 236797
    Host:       c419-053.stampede2.tacc.utexas.edu
    PSIDATADIR: /home1/07844/xy3866/miniconda3/envs/p4env/share/psi4
    Memory:     500.0 MiB
    Threads:    32
    
  ==> Input File <==

--------------------------------------------------------------------------
#psi4
#
memory 32 gb

molecule  {
0 1
  F       -1.9734470     0.4735540    -0.9939180
  F       -1.9413570    -1.5269070    -0.1417860
  F       -1.9373460     0.2097040     1.1676710
  C        0.0587940    -0.2544720    -0.0183930
  C        0.7415540     0.9772520     0.0078750
  C        0.7507890    -1.4682550    -0.0178400
  C        2.1403840     0.9368280     0.0127460
  C       -1.4402130    -0.2782400     0.0012850
  C        0.0310770     2.3081630    -0.0188960
  C        2.1451100    -1.4771990    -0.0107000
  C        2.8415060    -0.2700650     0.0090350
  H        0.1981450    -2.4017980    -0.0309650
  H        2.6907970     1.8755160     0.0309210
  H       -0.3505540     2.5311140    -1.0192600
  H       -0.8159800     2.3277740     0.6689790
  H        0.7236060     3.1036700     0.2672330
  H        2.7298020    -2.5099535    -0.0124308
  H        3.9287950    -0.2645730     0.0170060
units angstrom
no_reorient  #important for SAPT in psi4, default
symmetry c1  #important for SAPT in psi4, default
}

set PROPERTIES_ORIGIN ["COM"]
properties('MP2/aug-cc-pvtz', properties = ['dipole'])
--------------------------------------------------------------------------

  Memory set to  29.802 GiB by Python driver.
    SCF Algorithm Type (re)set to DF.

*** tstart() called on c419-053.stampede2.tacc.utexas.edu
*** at Sun Mar  7 11:32:18 2021

   => Loading Basis Set <=

    Name: AUG-CC-PVTZ
    Role: ORBITAL
    Keyword: BASIS
    atoms 1-3   entry F          line   377 file /home1/07844/xy3866/miniconda3/envs/p4env/share/psi4/basis/aug-cc-pvtz.gbs 
    atoms 4-11  entry C          line   239 file /home1/07844/xy3866/miniconda3/envs/p4env/share/psi4/basis/aug-cc-pvtz.gbs 
    atoms 12-18 entry H          line    40 file /home1/07844/xy3866/miniconda3/envs/p4env/share/psi4/basis/aug-cc-pvtz.gbs 


         ---------------------------------------------------------
                                   SCF
               by Justin Turney, Rob Parrish, Andy Simmonett
                          and Daniel G. A. Smith
                              RHF Reference
                       32 Threads,  30517 MiB Core
         ---------------------------------------------------------

  ==> Geometry <==

    Molecular point group: c1
    Full point group: C1

    Geometry (in Angstrom), charge = 0, multiplicity = 1:

       Center              X                  Y                   Z               Mass       
    ------------   -----------------  -----------------  -----------------  -----------------
         F           -1.881115606025     0.508803062971    -0.994602378431    18.998403162730
         F           -1.849025606025    -1.491657937029    -0.142470378431    18.998403162730
         F           -1.845014606025     0.244953062971     1.166986621569    18.998403162730
         C            0.151125393975    -0.219222937029    -0.019077378431    12.000000000000
         C            0.833885393975     1.012501062971     0.007190621569    12.000000000000
         C            0.843120393975    -1.433005937029    -0.018524378431    12.000000000000
         C            2.232715393975     0.972077062971     0.012061621569    12.000000000000
         C           -1.347881606025    -0.242990937029     0.000600621569    12.000000000000
         C            0.123408393975     2.343412062971    -0.019580378431    12.000000000000
         C            2.237441393975    -1.441949937029    -0.011384378431    12.000000000000
         C            2.933837393975    -0.234815937029     0.008350621569    12.000000000000
         H            0.290476393975    -2.366548937029    -0.031649378431     1.007825032230
         H            2.783128393975     1.910765062971     0.030236621569     1.007825032230
         H           -0.258222606025     2.566363062971    -1.019944378431     1.007825032230
         H           -0.723648606025     2.363023062971     0.668294621569     1.007825032230
         H            0.815937393975     3.138919062971     0.266548621569     1.007825032230
         H            2.822133393975    -2.474704437029    -0.013115178431     1.007825032230
         H            4.021126393975    -0.229323937029     0.016321621569     1.007825032230

  Running in c1 symmetry.

  Rotational constants: A =      0.06158  B =      0.03125  C =      0.02342 [cm^-1]
  Rotational constants: A =   1846.26506  B =    936.99936  C =    702.10683 [MHz]
  Nuclear repulsion =  631.546712939491727

  Charge       = 0
  Multiplicity = 1
  Electrons    = 82
  Nalpha       = 41
  Nbeta        = 41

  ==> Algorithm <==

  SCF Algorithm Type is DF.
  DIIS enabled.
  MOM disabled.
  Fractional occupation disabled.
  Guess Type is SAD.
  Energy threshold   = 1.00e-10
  Density threshold  = 1.00e-10
  Integral threshold = 1.00e-12

  ==> Primary Basis <==

  Basis Set: AUG-CC-PVTZ
    Blend: AUG-CC-PVTZ
    Number of shells: 217
    Number of basis functions: 667
    Number of Cartesian functions: 780
    Spherical Harmonics?: true
    Max angular momentum: 3

   => Loading Basis Set <=

    Name: (AUG-CC-PVTZ AUX)
    Role: JKFIT
    Keyword: DF_BASIS_SCF
    atoms 1-3   entry F          line   348 file /home1/07844/xy3866/miniconda3/envs/p4env/share/psi4/basis/aug-cc-pvtz-jkfit.gbs 
    atoms 4-11  entry C          line   162 file /home1/07844/xy3866/miniconda3/envs/p4env/share/psi4/basis/aug-cc-pvtz-jkfit.gbs 
    atoms 12-18 entry H          line    70 file /home1/07844/xy3866/miniconda3/envs/p4env/share/psi4/basis/aug-cc-pvtz-jkfit.gbs 

  ==> Integral Setup <==

  DFHelper Memory: AOs need 4.637 GiB; user supplied 22.352 GiB. Using in-core AOs.

  ==> MemDFJK: Density-Fitted J/K Matrices <==

    J tasked:                   Yes
    K tasked:                   Yes
    wK tasked:                   No
    OpenMP threads:              32
    Memory [MiB]:             22888
    Algorithm:                 Core
    Schwarz Cutoff:           1E-12
    Mask sparsity (%):       8.9191
    Fitting Condition:        1E-10

   => Auxiliary Basis Set <=

  Basis Set: (AUG-CC-PVTZ AUX)
    Blend: AUG-CC-PVTZ-JKFIT
    Number of shells: 428
    Number of basis functions: 1466
    Number of Cartesian functions: 1826
    Spherical Harmonics?: true
    Max angular momentum: 4

  Minimum eigenvalue in the overlap matrix is 5.1889841117E-07.
  Reciprocal condition number of the overlap matrix is 2.7370376394E-08.
    Using symmetric orthogonalization.

  ==> Pre-Iterations <==

  SCF Guess: Superposition of Atomic Densities via on-the-fly atomic UHF (no occupation information).

   -------------------------
    Irrep   Nso     Nmo    
   -------------------------
     A        667     667 
   -------------------------
    Total     667     667
   -------------------------

  ==> Iterations <==

                           Total Energy        Delta E     RMS |[F,P]|

   @DF-RHF iter SAD:  -604.84551088166108   -6.04846e+02   0.00000e+00 
   @DF-RHF iter   1:  -605.26632151303534   -4.20811e-01   1.15018e-03 DIIS
   @DF-RHF iter   2:  -605.50010131349120   -2.33780e-01   6.19401e-04 DIIS
   @DF-RHF iter   3:  -605.56632706259597   -6.62257e-02   1.05843e-04 DIIS
   @DF-RHF iter   4:  -605.56971192164735   -3.38486e-03   4.00279e-05 DIIS
   @DF-RHF iter   5:  -605.57010410182272   -3.92180e-04   8.99670e-06 DIIS
   @DF-RHF iter   6:  -605.57013273332370   -2.86315e-05   3.53336e-06 DIIS
   @DF-RHF iter   7:  -605.57013801760149   -5.28428e-06   1.18837e-06 DIIS
   @DF-RHF iter   8:  -605.57013917319728   -1.15560e-06   6.12104e-07 DIIS
   @DF-RHF iter   9:  -605.57013959965309   -4.26456e-07   2.96763e-07 DIIS
   @DF-RHF iter  10:  -605.57013971015851   -1.10505e-07   1.09661e-07 DIIS
   @DF-RHF iter  11:  -605.57013972320408   -1.30456e-08   4.07160e-08 DIIS
   @DF-RHF iter  12:  -605.57013972402615   -8.22070e-10   1.31524e-08 DIIS
   @DF-RHF iter  13:  -605.57013972410061   -7.44649e-11   3.18982e-09 DIIS
   @DF-RHF iter  14:  -605.57013972410869   -8.07177e-12   1.13239e-09 DIIS
   @DF-RHF iter  15:  -605.57013972411107   -2.38742e-12   5.30794e-10 DIIS
   @DF-RHF iter  16:  -605.57013972411096    1.13687e-13   2.46936e-10 DIIS
   @DF-RHF iter  17:  -605.57013972411119   -2.27374e-13   1.16231e-10 DIIS
   @DF-RHF iter  18:  -605.57013972411028    9.09495e-13   3.39181e-11 DIIS
  Energy and wave function converged.


  ==> Post-Iterations <==

    Orbital Energies [Eh]
    ---------------------

    Doubly Occupied:                                                      

       1A    -26.335716     2A    -26.332172     3A    -26.331317  
       4A    -11.509089     5A    -11.270775     6A    -11.265523  
       7A    -11.261079     8A    -11.259806     9A    -11.257451  
      10A    -11.248986    11A    -11.234288    12A     -1.717642  
      13A     -1.626873    14A     -1.623465    15A     -1.180908  
      16A     -1.071120    17A     -1.057088    18A     -0.973527  
      19A     -0.935586    20A     -0.862447    21A     -0.836110  
      22A     -0.811791    23A     -0.803768    24A     -0.768883  
      25A     -0.704880    26A     -0.704252    27A     -0.686212  
      28A     -0.666026    29A     -0.657061    30A     -0.647654  
      31A     -0.644147    32A     -0.632275    33A     -0.588566  
      34A     -0.585053    35A     -0.573749    36A     -0.554346  
      37A     -0.509776    38A     -0.509219    39A     -0.501563  
      40A     -0.361110    41A     -0.344797  

    Virtual:                                                              

      42A      0.025483    43A      0.031097    44A      0.036690  
      45A      0.047260    46A      0.047851    47A      0.052198  
      48A      0.068737    49A      0.079972    50A      0.083252  
      51A      0.086176    52A      0.087601    53A      0.094566  
      54A      0.098592    55A      0.107128    56A      0.111287  
      57A      0.118177    58A      0.123782    59A      0.124947  
      60A      0.129167    61A      0.130238    62A      0.138157  
      63A      0.141146    64A      0.144401    65A      0.147428  
      66A      0.147854    67A      0.153915    68A      0.159615  
      69A      0.163078    70A      0.168938    71A      0.177639  
      72A      0.179522    73A      0.191361    74A      0.193774  
      75A      0.213378    76A      0.218886    77A      0.220813  
      78A      0.228250    79A      0.238626    80A      0.247841  
      81A      0.256175    82A      0.257390    83A      0.263690  
      84A      0.268995    85A      0.271746    86A      0.278227  
      87A      0.279048    88A      0.286614    89A      0.292136  
      90A      0.298237    91A      0.302880    92A      0.313539  
      93A      0.315405    94A      0.322021    95A      0.326074  
      96A      0.327077    97A      0.329160    98A      0.339671  
      99A      0.340853   100A      0.350265   101A      0.358250  
     102A      0.360412   103A      0.363968   104A      0.369335  
     105A      0.370823   106A      0.378499   107A      0.381921  
     108A      0.385439   109A      0.390292   110A      0.398968  
     111A      0.403405   112A      0.410848   113A      0.413587  
     114A      0.418298   115A      0.423271   116A      0.427547  
     117A      0.431733   118A      0.436741   119A      0.437083  
     120A      0.444323   121A      0.454032   122A      0.460418  
     123A      0.463077   124A      0.466707   125A      0.468994  
     126A      0.476767   127A      0.480824   128A      0.487473  
     129A      0.488486   130A      0.497780   131A      0.499271  
     132A      0.500771   133A      0.509462   134A      0.511178  
     135A      0.512803   136A      0.521170   137A      0.523787  
     138A      0.527710   139A      0.532137   140A      0.542836  
     141A      0.546889   142A      0.549669   143A      0.553735  
     144A      0.559484   145A      0.563428   146A      0.575480  
     147A      0.577497   148A      0.590327   149A      0.598602  
     150A      0.601897   151A      0.612107   152A      0.614889  
     153A      0.627961   154A      0.630172   155A      0.644172  
     156A      0.645655   157A      0.664460   158A      0.668712  
     159A      0.671892   160A      0.673416   161A      0.689788  
     162A      0.700185   163A      0.705533   164A      0.709076  
     165A      0.717796   166A      0.727411   167A      0.738900  
     168A      0.743587   169A      0.745072   170A      0.754094  
     171A      0.768517   172A      0.772094   173A      0.783971  
     174A      0.790796   175A      0.808119   176A      0.819388  
     177A      0.822011   178A      0.833402   179A      0.839084  
     180A      0.843023   181A      0.848469   182A      0.854577  
     183A      0.871261   184A      0.874492   185A      0.875800  
     186A      0.886930   187A      0.888053   188A      0.892618  
     189A      0.909393   190A      0.915574   191A      0.918935  
     192A      0.922955   193A      0.923750   194A      0.927772  
     195A      0.935831   196A      0.944616   197A      0.947200  
     198A      0.950940   199A      0.960719   200A      0.965410  
     201A      0.970284   202A      0.975985   203A      0.982300  
     204A      0.990327   205A      0.998809   206A      1.005630  
     207A      1.009724   208A      1.014540   209A      1.024292  
     210A      1.034890   211A      1.038723   212A      1.047856  
     213A      1.050804   214A      1.060568   215A      1.068722  
     216A      1.072711   217A      1.079629   218A      1.082637  
     219A      1.086635   220A      1.091425   221A      1.100182  
     222A      1.105103   223A      1.107638   224A      1.113387  
     225A      1.117188   226A      1.132029   227A      1.133909  
     228A      1.139903   229A      1.147984   230A      1.153589  
     231A      1.160658   232A      1.170460   233A      1.178450  
     234A      1.182168   235A      1.185029   236A      1.189320  
     237A      1.197082   238A      1.201346   239A      1.209279  
     240A      1.212023   241A      1.228917   242A      1.232170  
     243A      1.245590   244A      1.248626   245A      1.255823  
     246A      1.261455   247A      1.266779   248A      1.284892  
     249A      1.288708   250A      1.294169   251A      1.312487  
     252A      1.320168   253A      1.323938   254A      1.339753  
     255A      1.346013   256A      1.360080   257A      1.361632  
     258A      1.368911   259A      1.375175   260A      1.379387  
     261A      1.387029   262A      1.396347   263A      1.399552  
     264A      1.401186   265A      1.415461   266A      1.420275  
     267A      1.430333   268A      1.436023   269A      1.441766  
     270A      1.445857   271A      1.457918   272A      1.458206  
     273A      1.480591   274A      1.489723   275A      1.496728  
     276A      1.512409   277A      1.522124   278A      1.532390  
     279A      1.540601   280A      1.551061   281A      1.557802  
     282A      1.574230   283A      1.582169   284A      1.596640  
     285A      1.599397   286A      1.612806   287A      1.630690  
     288A      1.640194   289A      1.645779   290A      1.665248  
     291A      1.673966   292A      1.677485   293A      1.689335  
     294A      1.692999   295A      1.712840   296A      1.718640  
     297A      1.734775   298A      1.738324   299A      1.742527  
     300A      1.752603   301A      1.759496   302A      1.766795  
     303A      1.770493   304A      1.777730   305A      1.792204  
     306A      1.800904   307A      1.807681   308A      1.809131  
     309A      1.824125   310A      1.836242   311A      1.845660  
     312A      1.851220   313A      1.875776   314A      1.880529  
     315A      1.880931   316A      1.893034   317A      1.906991  
     318A      1.913988   319A      1.931126   320A      1.940075  
     321A      1.949051   322A      1.960741   323A      1.967561  
     324A      1.974385   325A      1.976240   326A      1.997310  
     327A      1.999674   328A      2.015013   329A      2.025340  
     330A      2.029705   331A      2.030918   332A      2.038927  
     333A      2.052516   334A      2.066546   335A      2.070540  
     336A      2.080322   337A      2.089839   338A      2.101856  
     339A      2.109704   340A      2.120987   341A      2.126964  
     342A      2.135011   343A      2.145397   344A      2.159703  
     345A      2.166494   346A      2.175641   347A      2.183665  
     348A      2.199123   349A      2.216736   350A      2.230436  
     351A      2.244910   352A      2.247575   353A      2.262451  
     354A      2.275755   355A      2.280279   356A      2.300486  
     357A      2.318101   358A      2.327468   359A      2.343648  
     360A      2.356268   361A      2.370349   362A      2.390907  
     363A      2.397064   364A      2.421194   365A      2.435136  
     366A      2.452739   367A      2.473901   368A      2.498020  
     369A      2.514866   370A      2.537064   371A      2.545453  
     372A      2.555196   373A      2.573457   374A      2.613925  
     375A      2.626805   376A      2.655459   377A      2.697157  
     378A      2.714260   379A      2.729248   380A      2.755865  
     381A      2.785101   382A      2.797390   383A      2.807824  
     384A      2.846180   385A      2.861466   386A      2.883617  
     387A      2.900045   388A      2.905436   389A      2.939461  
     390A      2.984130   391A      2.993218   392A      3.027210  
     393A      3.031110   394A      3.044177   395A      3.078391  
     396A      3.086626   397A      3.099131   398A      3.117486  
     399A      3.126929   400A      3.142198   401A      3.162189  
     402A      3.175672   403A      3.186726   404A      3.200993  
     405A      3.212569   406A      3.222813   407A      3.234836  
     408A      3.245552   409A      3.252721   410A      3.283455  
     411A      3.293792   412A      3.302888   413A      3.320750  
     414A      3.326946   415A      3.343250   416A      3.359939  
     417A      3.363345   418A      3.378811   419A      3.392618  
     420A      3.409452   421A      3.421723   422A      3.434261  
     423A      3.436910   424A      3.444040   425A      3.455698  
     426A      3.459664   427A      3.471074   428A      3.481504  
     429A      3.496273   430A      3.506186   431A      3.510101  
     432A      3.520239   433A      3.527303   434A      3.536360  
     435A      3.545151   436A      3.565016   437A      3.571546  
     438A      3.580296   439A      3.593544   440A      3.609824  
     441A      3.611883   442A      3.631090   443A      3.645442  
     444A      3.656419   445A      3.669754   446A      3.675596  
     447A      3.686184   448A      3.693296   449A      3.701928  
     450A      3.717307   451A      3.725192   452A      3.740448  
     453A      3.745448   454A      3.756561   455A      3.758790  
     456A      3.780606   457A      3.788095   458A      3.803602  
     459A      3.807544   460A      3.814924   461A      3.831801  
     462A      3.843332   463A      3.853748   464A      3.862232  
     465A      3.870924   466A      3.883376   467A      3.889725  
     468A      3.901514   469A      3.912093   470A      3.927946  
     471A      3.937577   472A      3.939843   473A      3.960981  
     474A      3.967467   475A      3.981620   476A      3.990065  
     477A      4.003249   478A      4.013702   479A      4.021554  
     480A      4.027791   481A      4.039779   482A      4.042292  
     483A      4.063194   484A      4.079390   485A      4.083696  
     486A      4.099053   487A      4.109039   488A      4.132479  
     489A      4.138379   490A      4.160103   491A      4.166960  
     492A      4.174190   493A      4.182242   494A      4.192635  
     495A      4.207374   496A      4.227940   497A      4.232082  
     498A      4.237955   499A      4.244038   500A      4.251099  
     501A      4.262446   502A      4.277664   503A      4.287229  
     504A      4.307295   505A      4.318215   506A      4.319179  
     507A      4.338536   508A      4.340960   509A      4.352179  
     510A      4.366782   511A      4.378423   512A      4.391015  
     513A      4.399596   514A      4.407340   515A      4.421836  
     516A      4.441708   517A      4.454823   518A      4.460130  
     519A      4.473505   520A      4.478828   521A      4.496685  
     522A      4.523946   523A      4.544589   524A      4.574969  
     525A      4.582618   526A      4.596604   527A      4.599705  
     528A      4.617076   529A      4.622277   530A      4.640711  
     531A      4.667541   532A      4.692354   533A      4.697834  
     534A      4.710541   535A      4.718523   536A      4.727540  
     537A      4.746990   538A      4.765001   539A      4.770583  
     540A      4.792427   541A      4.812648   542A      4.820652  
     543A      4.828769   544A      4.866733   545A      4.885246  
     546A      4.889674   547A      4.894434   548A      4.918422  
     549A      4.944396   550A      4.950366   551A      4.966302  
     552A      4.981867   553A      4.986198   554A      4.997304  
     555A      5.007716   556A      5.040870   557A      5.058876  
     558A      5.087297   559A      5.097366   560A      5.107340  
     561A      5.113182   562A      5.136094   563A      5.141297  
     564A      5.174663   565A      5.186267   566A      5.191970  
     567A      5.203129   568A      5.239263   569A      5.245455  
     570A      5.261949   571A      5.286988   572A      5.299765  
     573A      5.338955   574A      5.352203   575A      5.370708  
     576A      5.381270   577A      5.419215   578A      5.433035  
     579A      5.441566   580A      5.480286   581A      5.496252  
     582A      5.545570   583A      5.603246   584A      5.630123  
     585A      5.659941   586A      5.701228   587A      5.737371  
     588A      5.755965   589A      5.775194   590A      5.791626  
     591A      5.822689   592A      5.874865   593A      5.918714  
     594A      5.937585   595A      5.987112   596A      6.014991  
     597A      6.037752   598A      6.078647   599A      6.109364  
     600A      6.128838   601A      6.189447   602A      6.197827  
     603A      6.216731   604A      6.255033   605A      6.277626  
     606A      6.310564   607A      6.348529   608A      6.465264  
     609A      6.483761   610A      6.497153   611A      6.666774  
     612A      6.790451   613A      6.803660   614A      6.897832  
     615A      6.938259   616A      7.056495   617A      7.156151  
     618A      7.290731   619A      7.351979   620A      7.488255  
     621A      8.985283   622A      8.993867   623A      9.008695  
     624A      9.040081   625A      9.062794   626A      9.087791  
     627A      9.184641   628A      9.199280   629A      9.314565  
     630A      9.339321   631A      9.370460   632A      9.372177  
     633A      9.385786   634A      9.400898   635A      9.434333  
     636A      9.449671   637A      9.479697   638A      9.510145  
     639A      9.536848   640A      9.543889   641A      9.553539  
     642A      9.560306   643A      9.606910   644A      9.636083  
     645A      9.640084   646A      9.665520   647A      9.686212  
     648A      9.707347   649A      9.739928   650A      9.770069  
     651A      9.854516   652A      9.968663   653A      9.996550  
     654A     10.045180   655A     10.184904   656A     10.244503  
     657A     15.908261   658A     16.174621   659A     16.247695  
     660A     16.665670   661A     17.016849   662A     17.798681  
     663A     18.791391   664A     18.935889   665A     20.058736  
     666A     20.515478   667A     21.005703  

    Final Occupation by Irrep:
              A 
    DOCC [    41 ]

  @DF-RHF Final Energy:  -605.57013972411028

   => Energetics <=

    Nuclear Repulsion Energy =            631.5467129394917265
    One-Electron Energy =               -2087.3415122420883563
    Two-Electron Energy =                 850.2246595784863530
    Total Energy =                       -605.5701397241102768

Computation Completed

*** tstop() called on c419-053.stampede2.tacc.utexas.edu at Sun Mar  7 11:32:57 2021
Module time:
	user time   =     717.77 seconds =      11.96 minutes
	system time =      50.01 seconds =       0.83 minutes
	total time  =         39 seconds =       0.65 minutes
Total time:
	user time   =     717.77 seconds =      11.96 minutes
	system time =      50.01 seconds =       0.83 minutes
	total time  =         39 seconds =       0.65 minutes
   => Loading Basis Set <=

    Name: (AUG-CC-PVTZ AUX)
    Role: RIFIT
    Keyword: DF_BASIS_MP2
    atoms 1-3   entry F          line   322 file /home1/07844/xy3866/miniconda3/envs/p4env/share/psi4/basis/aug-cc-pvtz-ri.gbs 
    atoms 4-11  entry C          line   148 file /home1/07844/xy3866/miniconda3/envs/p4env/share/psi4/basis/aug-cc-pvtz-ri.gbs 
    atoms 12-18 entry H          line    30 file /home1/07844/xy3866/miniconda3/envs/p4env/share/psi4/basis/aug-cc-pvtz-ri.gbs 


*** tstart() called on c419-053.stampede2.tacc.utexas.edu
*** at Sun Mar  7 11:32:58 2021


  //>>>>>>>>>>>>>>>>>>>>>>>>>>>>>>>>>>>//
  //               DFMP2               //
  //<<<<<<<<<<<<<<<<<<<<<<<<<<<<<<<<<<<//

	 --------------------------------------------------------
	                          DF-MP2                         
	      2nd-Order Density-Fitted Moller-Plesset Theory     
	              RMP2 Wavefunction,  32 Threads             
	                                                         
	        Rob Parrish, Justin Turney, Andy Simmonett,      
	           Ed Hohenstein, and C. David Sherrill          
	 --------------------------------------------------------

   => Auxiliary Basis Set <=

  Basis Set: (AUG-CC-PVTZ AUX)
    Blend: AUG-CC-PVTZ-RI
    Number of shells: 406
    Number of basis functions: 1488
    Number of Cartesian functions: 1881
    Spherical Harmonics?: true
    Max angular momentum: 4

	 --------------------------------------------------------
	                 NBF =   667, NAUX =  1488
	 --------------------------------------------------------
	   CLASS    FOCC     OCC    AOCC    AVIR     VIR    FVIR
	   PAIRS       0      41      41     626     626       0
	 --------------------------------------------------------

  DFHelper Memory: AOs need 4.798 GiB; user supplied 22.352 GiB. Using in-core AOs.


         ------------------------------------------------------------
                                     CPHF                           
                                  Rob Parrish                       
         ------------------------------------------------------------

  ==> Geometry <==

    Molecular point group: c1
    Full point group: C1

    Geometry (in Angstrom), charge = 0, multiplicity = 1:

       Center              X                  Y                   Z               Mass       
    ------------   -----------------  -----------------  -----------------  -----------------
         F           -1.881115606025     0.508803062971    -0.994602378431    18.998403162730
         F           -1.849025606025    -1.491657937029    -0.142470378431    18.998403162730
         F           -1.845014606025     0.244953062971     1.166986621569    18.998403162730
         C            0.151125393975    -0.219222937029    -0.019077378431    12.000000000000
         C            0.833885393975     1.012501062971     0.007190621569    12.000000000000
         C            0.843120393975    -1.433005937029    -0.018524378431    12.000000000000
         C            2.232715393975     0.972077062971     0.012061621569    12.000000000000
         C           -1.347881606025    -0.242990937029     0.000600621569    12.000000000000
         C            0.123408393975     2.343412062971    -0.019580378431    12.000000000000
         C            2.237441393975    -1.441949937029    -0.011384378431    12.000000000000
         C            2.933837393975    -0.234815937029     0.008350621569    12.000000000000
         H            0.290476393975    -2.366548937029    -0.031649378431     1.007825032230
         H            2.783128393975     1.910765062971     0.030236621569     1.007825032230
         H           -0.258222606025     2.566363062971    -1.019944378431     1.007825032230
         H           -0.723648606025     2.363023062971     0.668294621569     1.007825032230
         H            0.815937393975     3.138919062971     0.266548621569     1.007825032230
         H            2.822133393975    -2.474704437029    -0.013115178431     1.007825032230
         H            4.021126393975    -0.229323937029     0.016321621569     1.007825032230

  Nuclear repulsion =  631.546712939491727
  Reference energy  = -605.570139724110277

  ==> Basis Set <==

  Basis Set: AUG-CC-PVTZ
    Blend: AUG-CC-PVTZ
    Number of shells: 217
    Number of basis functions: 667
    Number of Cartesian functions: 780
    Spherical Harmonics?: true
    Max angular momentum: 3

  ==> CGRSolver (by Rob Parrish) <==

   Number of roots    =         1
   Preconditioning    =    JACOBI
   Convergence cutoff =     1E-06
   Maximum iterations =       100

  ==> CPHFRHamiltonian (by Rob Parrish) <== 

  ==> MemDFJK: Density-Fitted J/K Matrices <==

    J tasked:                   Yes
    K tasked:                   Yes
    wK tasked:                   No
    OpenMP threads:              32
    Memory [MiB]:             22888
    Algorithm:                 Core
    Schwarz Cutoff:           1E-12
    Mask sparsity (%):       5.6131
    Fitting Condition:        1E-10

   => Auxiliary Basis Set <=

  Basis Set: (AUG-CC-PVTZ AUX)
    Blend: AUG-CC-PVTZ-JKFIT
    Number of shells: 428
    Number of basis functions: 1466
    Number of Cartesian functions: 1826
    Spherical Harmonics?: true
    Max angular momentum: 4

  ==> CPHF Iterations <==

  => Iterations <=

             Iter  Converged  Remaining    Residual
  CGR           1          0          1   9.251E-02
  CGR           2          0          1   2.277E-02
  CGR           3          0          1   1.278E-02
  CGR           4          0          1   7.043E-03
  CGR           5          0          1   3.063E-03
  CGR           6          0          1   8.562E-04
  CGR           7          0          1   2.585E-04
  CGR           8          0          1   8.297E-05
  CGR           9          0          1   2.526E-05
  CGR          10          0          1   9.309E-06
  CGR          11          0          1   4.155E-06
  CGR          12          0          1   1.848E-06
  CGR          13          1          0   6.845E-07

    CGRSolver converged.

	-----------------------------------------------------------
	 ==================> DF-MP2 Energies <==================== 
	-----------------------------------------------------------
	 Reference Energy          =    -605.5701397241102768 [Eh]
	 Singles Energy            =      -0.0000000000000000 [Eh]
	 Same-Spin Energy          =      -0.5635458835170348 [Eh]
	 Opposite-Spin Energy      =      -1.6982563131801025 [Eh]
	 Correlation Energy        =      -2.2618021966971371 [Eh]
	 Total Energy              =    -607.8319419208073668 [Eh]
	-----------------------------------------------------------
	 ================> DF-SCS-MP2 Energies <================== 
	-----------------------------------------------------------
	 SCS Same-Spin Scale       =       0.3333333333333333 [-]
	 SCS Opposite-Spin Scale   =       1.2000000000000000 [-]
	 SCS Same-Spin Energy      =      -0.1878486278390116 [Eh]
	 SCS Opposite-Spin Energy  =      -2.0379075758161229 [Eh]
	 SCS Correlation Energy    =      -2.2257562036551346 [Eh]
	 SCS Total Energy          =    -607.7958959277654003 [Eh]
	-----------------------------------------------------------



Properties will be evaluated at  -0.000000,   0.000000,   0.000000 [a0]

Properties computed using the MP2 density matrix

  Nuclear Dipole Moment: [e a0]
     X:    14.4005      Y:     5.2977      Z:    -0.1063

  Electronic Dipole Moment: [e a0]
     X:   -13.3880      Y:    -5.1142      Z:     0.0818

  Dipole Moment: [e a0]
     X:     1.0126      Y:     0.1835      Z:    -0.0245     Total:     1.0293

  Dipole Moment: [D]
     X:     2.5737      Y:     0.4664      Z:    -0.0624     Total:     2.6163


*** tstop() called on c419-053.stampede2.tacc.utexas.edu at Sun Mar  7 11:36:58 2021
Module time:
	user time   =    2094.76 seconds =      34.91 minutes
	system time =      72.27 seconds =       1.20 minutes
	total time  =        240 seconds =       4.00 minutes
Total time:
	user time   =    2813.43 seconds =      46.89 minutes
	system time =     122.30 seconds =       2.04 minutes
	total time  =        280 seconds =       4.67 minutes

    Psi4 stopped on: Sunday, 07 March 2021 11:36AM
    Psi4 wall time for execution: 0:04:40.96

*** Psi4 exiting successfully. Buy a developer a beer!
