
    -----------------------------------------------------------------------
          Psi4: An Open-Source Ab Initio Electronic Structure Package
                               Psi4 1.4a3.dev225 

                         Git: Rev {master} 7105e37 


    D. G. A. Smith, L. A. Burns, A. C. Simmonett, R. M. Parrish,
    M. C. Schieber, R. Galvelis, P. Kraus, H. Kruse, R. Di Remigio,
    A. Alenaizan, A. M. James, S. Lehtola, J. P. Misiewicz, M. Scheurer,
    R. A. Shaw, J. B. Schriber, Y. Xie, Z. L. Glick, D. A. Sirianni,
    J. S. O'Brien, J. M. Waldrop, A. Kumar, E. G. Hohenstein,
    B. P. Pritchard, B. R. Brooks, H. F. Schaefer III, A. Yu. Sokolov,
    K. Patkowski, A. E. DePrince III, U. Bozkaya, R. A. King,
    F. A. Evangelista, J. M. Turney, T. D. Crawford, C. D. Sherrill,
    J. Chem. Phys. 152(18) 184108 (2020). https://doi.org/10.1063/5.0006002

                            Additional Code Authors
    E. T. Seidl, C. L. Janssen, E. F. Valeev, M. L. Leininger,
    J. F. Gonthier, R. M. Richard, H. R. McAlexander, M. Saitow, X. Wang,
    P. Verma, and M. H. Lechner

             Previous Authors, Complete List of Code Contributors,
                       and Citations for Specific Modules
    https://github.com/psi4/psi4/blob/master/codemeta.json
    https://github.com/psi4/psi4/graphs/contributors
    http://psicode.org/psi4manual/master/introduction.html#citing-psifour

    -----------------------------------------------------------------------


    Psi4 started on: Thursday, 01 April 2021 02:55AM

    Process ID: 123819
    Host:       c446-111.stampede2.tacc.utexas.edu
    PSIDATADIR: /home1/07844/xy3866/miniconda3/envs/p4env/share/psi4
    Memory:     500.0 MiB
    Threads:    8
    
  ==> Input File <==

--------------------------------------------------------------------------
#psi4
#
memory 32 gb

molecule  {
0 1
  F       -1.9734470     0.4735540    -0.9939180
  F       -1.9413570    -1.5269070    -0.1417860
  F       -1.9373460     0.2097040     1.1676710
  C        0.0587940    -0.2544720    -0.0183930
  C        0.7415540     0.9772520     0.0078750
  C        0.7606946    -1.4856297    -0.0178321
  C        2.1403840     0.9368280     0.0127460
  C       -1.4402130    -0.2782400     0.0012850
  C        0.0310770     2.3081630    -0.0188960
  C        2.1451100    -1.4771990    -0.0107000
  C        2.8415060    -0.2700650     0.0090350
  H        0.1981450    -2.4017980    -0.0309650
  H        2.6907970     1.8755160     0.0309210
  H       -0.3505540     2.5311140    -1.0192600
  H       -0.8159800     2.3277740     0.6689790
  H        0.7236060     3.1036700     0.2672330
  H        2.6805350    -2.4229320    -0.0122850
  H        3.9287950    -0.2645730     0.0170060
units angstrom
no_reorient  #important for SAPT in psi4, default
symmetry c1  #important for SAPT in psi4, default
}

set PROPERTIES_ORIGIN ["COM"]
properties('MP2/aug-cc-pvtz', properties = ['dipole'])
--------------------------------------------------------------------------

  Memory set to  29.802 GiB by Python driver.
    SCF Algorithm Type (re)set to DF.

*** tstart() called on c446-111.stampede2.tacc.utexas.edu
*** at Thu Apr  1 02:55:28 2021

   => Loading Basis Set <=

    Name: AUG-CC-PVTZ
    Role: ORBITAL
    Keyword: BASIS
    atoms 1-3   entry F          line   377 file /home1/07844/xy3866/miniconda3/envs/p4env/share/psi4/basis/aug-cc-pvtz.gbs 
    atoms 4-11  entry C          line   239 file /home1/07844/xy3866/miniconda3/envs/p4env/share/psi4/basis/aug-cc-pvtz.gbs 
    atoms 12-18 entry H          line    40 file /home1/07844/xy3866/miniconda3/envs/p4env/share/psi4/basis/aug-cc-pvtz.gbs 


         ---------------------------------------------------------
                                   SCF
               by Justin Turney, Rob Parrish, Andy Simmonett
                          and Daniel G. A. Smith
                              RHF Reference
                        8 Threads,  30517 MiB Core
         ---------------------------------------------------------

  ==> Geometry <==

    Molecular point group: c1
    Full point group: C1

    Geometry (in Angstrom), charge = 0, multiplicity = 1:

       Center              X                  Y                   Z               Mass       
    ------------   -----------------  -----------------  -----------------  -----------------
         F           -1.881548062700     0.509557789404    -0.994603888840    18.998403162730
         F           -1.849458062700    -1.490903210596    -0.142471888840    18.998403162730
         F           -1.845447062700     0.245707789404     1.166985111160    18.998403162730
         C            0.150692937300    -0.218468210596    -0.019078888840    12.000000000000
         C            0.833452937300     1.013255789404     0.007189111160    12.000000000000
         C            0.852593537300    -1.449625910596    -0.018517988840    12.000000000000
         C            2.232282937300     0.972831789404     0.012060111160    12.000000000000
         C           -1.348314062700    -0.242236210596     0.000599111160    12.000000000000
         C            0.122975937300     2.344166789404    -0.019581888840    12.000000000000
         C            2.237008937300    -1.441195210596    -0.011385888840    12.000000000000
         C            2.933404937300    -0.234061210596     0.008349111160    12.000000000000
         H            0.290043937300    -2.365794210596    -0.031650888840     1.007825032230
         H            2.782695937300     1.911519789404     0.030235111160     1.007825032230
         H           -0.258655062700     2.567117789404    -1.019945888840     1.007825032230
         H           -0.724081062700     2.363777789404     0.668293111160     1.007825032230
         H            0.815504937300     3.139673789404     0.266547111160     1.007825032230
         H            2.772433937300    -2.386928210596    -0.012970888840     1.007825032230
         H            4.020693937300    -0.228569210596     0.016320111160     1.007825032230

  Running in c1 symmetry.

  Rotational constants: A =      0.06155  B =      0.03126  C =      0.02342 [cm^-1]
  Rotational constants: A =   1845.09221  B =    937.13070  C =    702.01084 [MHz]
  Nuclear repulsion =  631.708402816376747

  Charge       = 0
  Multiplicity = 1
  Electrons    = 82
  Nalpha       = 41
  Nbeta        = 41

  ==> Algorithm <==

  SCF Algorithm Type is DF.
  DIIS enabled.
  MOM disabled.
  Fractional occupation disabled.
  Guess Type is SAD.
  Energy threshold   = 1.00e-10
  Density threshold  = 1.00e-10
  Integral threshold = 1.00e-12

  ==> Primary Basis <==

  Basis Set: AUG-CC-PVTZ
    Blend: AUG-CC-PVTZ
    Number of shells: 217
    Number of basis functions: 667
    Number of Cartesian functions: 780
    Spherical Harmonics?: true
    Max angular momentum: 3

   => Loading Basis Set <=

    Name: (AUG-CC-PVTZ AUX)
    Role: JKFIT
    Keyword: DF_BASIS_SCF
    atoms 1-3   entry F          line   348 file /home1/07844/xy3866/miniconda3/envs/p4env/share/psi4/basis/aug-cc-pvtz-jkfit.gbs 
    atoms 4-11  entry C          line   162 file /home1/07844/xy3866/miniconda3/envs/p4env/share/psi4/basis/aug-cc-pvtz-jkfit.gbs 
    atoms 12-18 entry H          line    70 file /home1/07844/xy3866/miniconda3/envs/p4env/share/psi4/basis/aug-cc-pvtz-jkfit.gbs 

  ==> Integral Setup <==

  DFHelper Memory: AOs need 4.560 GiB; user supplied 22.352 GiB. Using in-core AOs.

  ==> MemDFJK: Density-Fitted J/K Matrices <==

    J tasked:                   Yes
    K tasked:                   Yes
    wK tasked:                   No
    OpenMP threads:               8
    Memory [MiB]:             22888
    Algorithm:                 Core
    Schwarz Cutoff:           1E-12
    Mask sparsity (%):       8.8714
    Fitting Condition:        1E-10

   => Auxiliary Basis Set <=

  Basis Set: (AUG-CC-PVTZ AUX)
    Blend: AUG-CC-PVTZ-JKFIT
    Number of shells: 428
    Number of basis functions: 1466
    Number of Cartesian functions: 1826
    Spherical Harmonics?: true
    Max angular momentum: 4

  Minimum eigenvalue in the overlap matrix is 5.1276839403E-07.
  Reciprocal condition number of the overlap matrix is 2.7008041001E-08.
    Using symmetric orthogonalization.

  ==> Pre-Iterations <==

  SCF Guess: Superposition of Atomic Densities via on-the-fly atomic UHF (no occupation information).

   -------------------------
    Irrep   Nso     Nmo    
   -------------------------
     A        667     667 
   -------------------------
    Total     667     667
   -------------------------

  ==> Iterations <==

                           Total Energy        Delta E     RMS |[F,P]|

   @DF-RHF iter SAD:  -604.87517267244641   -6.04875e+02   0.00000e+00 
   @DF-RHF iter   1:  -605.27602888385502   -4.00856e-01   1.14690e-03 DIIS
   @DF-RHF iter   2:  -605.50818625323188   -2.32157e-01   6.15905e-04 DIIS
   @DF-RHF iter   3:  -605.57305206987928   -6.48658e-02   1.07124e-04 DIIS
   @DF-RHF iter   4:  -605.57643558974610   -3.38352e-03   4.10739e-05 DIIS
   @DF-RHF iter   5:  -605.57684502320819   -4.09433e-04   8.91818e-06 DIIS
   @DF-RHF iter   6:  -605.57687215983719   -2.71366e-05   3.41034e-06 DIIS
   @DF-RHF iter   7:  -605.57687654825406   -4.38842e-06   1.03716e-06 DIIS
   @DF-RHF iter   8:  -605.57687730012481   -7.51871e-07   5.15498e-07 DIIS
   @DF-RHF iter   9:  -605.57687756621544   -2.66091e-07   2.57887e-07 DIIS
   @DF-RHF iter  10:  -605.57687765073001   -8.45146e-08   1.06566e-07 DIIS
   @DF-RHF iter  11:  -605.57687766465301   -1.39230e-08   4.00861e-08 DIIS
   @DF-RHF iter  12:  -605.57687766556364   -9.10632e-10   1.31028e-08 DIIS
   @DF-RHF iter  13:  -605.57687766564572   -8.20819e-11   2.93890e-09 DIIS
   @DF-RHF iter  14:  -605.57687766564891   -3.18323e-12   8.24774e-10 DIIS
   @DF-RHF iter  15:  -605.57687766565050   -1.59162e-12   2.92566e-10 DIIS
   @DF-RHF iter  16:  -605.57687766564959    9.09495e-13   9.85170e-11 DIIS
  Energy and wave function converged.


  ==> Post-Iterations <==

    Orbital Energies [Eh]
    ---------------------

    Doubly Occupied:                                                      

       1A    -26.335414     2A    -26.331643     3A    -26.330781  
       4A    -11.508527     5A    -11.270553     6A    -11.266202  
       7A    -11.259973     8A    -11.256954     9A    -11.248632  
      10A    -11.247976    11A    -11.234053    12A     -1.717187  
      13A     -1.626495    14A     -1.622954    15A     -1.179246  
      16A     -1.072229    17A     -1.056346    18A     -0.974301  
      19A     -0.936424    20A     -0.862761    21A     -0.836540  
      22A     -0.811299    23A     -0.803943    24A     -0.772678  
      25A     -0.704490    26A     -0.704135    27A     -0.690133  
      28A     -0.665995    29A     -0.656609    30A     -0.647384  
      31A     -0.643702    32A     -0.635869    33A     -0.591329  
      34A     -0.584774    35A     -0.579763    36A     -0.554101  
      37A     -0.511184    38A     -0.508101    39A     -0.504932  
      40A     -0.357989    41A     -0.346074  

    Virtual:                                                              

      42A      0.025483    43A      0.030971    44A      0.036736  
      45A      0.047248    46A      0.047960    47A      0.052300  
      48A      0.068581    49A      0.080332    50A      0.082679  
      51A      0.086180    52A      0.086919    53A      0.094968  
      54A      0.098959    55A      0.107230    56A      0.111426  
      57A      0.117862    58A      0.124112    59A      0.125078  
      60A      0.129360    61A      0.130786    62A      0.138247  
      63A      0.140935    64A      0.144183    65A      0.147543  
      66A      0.147944    67A      0.153773    68A      0.159656  
      69A      0.163170    70A      0.168757    71A      0.177777  
      72A      0.179734    73A      0.191387    74A      0.193989  
      75A      0.213421    76A      0.219165    77A      0.221814  
      78A      0.228275    79A      0.238868    80A      0.247876  
      81A      0.256178    82A      0.257997    83A      0.263708  
      84A      0.269057    85A      0.272221    86A      0.279403  
      87A      0.281133    88A      0.287068    89A      0.292447  
      90A      0.298451    91A      0.303701    92A      0.315617  
      93A      0.318378    94A      0.324352    95A      0.326327  
      96A      0.327733    97A      0.330087    98A      0.339621  
      99A      0.341104   100A      0.352303   101A      0.357881  
     102A      0.360512   103A      0.363176   104A      0.369167  
     105A      0.371231   106A      0.379150   107A      0.381648  
     108A      0.386049   109A      0.390799   110A      0.399141  
     111A      0.403803   112A      0.411733   113A      0.414053  
     114A      0.420645   115A      0.423376   116A      0.428201  
     117A      0.431866   118A      0.437079   119A      0.437901  
     120A      0.445119   121A      0.456070   122A      0.461977  
     123A      0.463782   124A      0.468254   125A      0.470910  
     126A      0.477187   127A      0.481883   128A      0.488680  
     129A      0.489922   130A      0.497921   131A      0.499235  
     132A      0.502099   133A      0.508425   134A      0.511692  
     135A      0.519013   136A      0.521608   137A      0.523534  
     138A      0.528525   139A      0.533146   140A      0.542537  
     141A      0.548064   142A      0.549613   143A      0.554089  
     144A      0.560171   145A      0.563136   146A      0.574686  
     147A      0.578234   148A      0.590181   149A      0.599782  
     150A      0.602660   151A      0.612874   152A      0.615137  
     153A      0.628153   154A      0.630811   155A      0.646103  
     156A      0.646520   157A      0.665320   158A      0.669543  
     159A      0.673365   160A      0.674492   161A      0.689578  
     162A      0.704262   163A      0.706530   164A      0.711066  
     165A      0.718570   166A      0.727249   167A      0.739820  
     168A      0.743865   169A      0.744996   170A      0.753242  
     171A      0.767432   172A      0.771455   173A      0.784218  
     174A      0.789558   175A      0.807743   176A      0.821221  
     177A      0.830599   178A      0.834788   179A      0.839543  
     180A      0.843944   181A      0.847507   182A      0.855434  
     183A      0.871084   184A      0.874045   185A      0.877148  
     186A      0.887257   187A      0.889548   188A      0.892330  
     189A      0.909506   190A      0.914471   191A      0.918727  
     192A      0.922163   193A      0.922888   194A      0.927761  
     195A      0.932123   196A      0.944364   197A      0.947568  
     198A      0.950733   199A      0.960449   200A      0.964847  
     201A      0.968766   202A      0.975290   203A      0.982433  
     204A      0.992364   205A      0.999539   206A      1.004890  
     207A      1.009474   208A      1.014268   209A      1.024841  
     210A      1.035949   211A      1.038608   212A      1.047403  
     213A      1.049473   214A      1.057941   215A      1.069650  
     216A      1.073294   217A      1.078309   218A      1.083556  
     219A      1.086863   220A      1.093286   221A      1.101273  
     222A      1.106537   223A      1.108561   224A      1.112511  
     225A      1.117565   226A      1.132599   227A      1.135019  
     228A      1.143421   229A      1.150192   230A      1.158985  
     231A      1.161612   232A      1.174032   233A      1.179460  
     234A      1.186015   235A      1.187426   236A      1.192395  
     237A      1.199352   238A      1.202724   239A      1.212493  
     240A      1.216188   241A      1.231376   242A      1.239089  
     243A      1.246247   244A      1.251967   245A      1.259566  
     246A      1.263963   247A      1.267300   248A      1.285960  
     249A      1.290966   250A      1.293727   251A      1.313316  
     252A      1.325647   253A      1.327389   254A      1.342297  
     255A      1.350471   256A      1.362758   257A      1.364889  
     258A      1.370487   259A      1.376951   260A      1.380214  
     261A      1.391385   262A      1.398056   263A      1.400535  
     264A      1.405084   265A      1.417554   266A      1.427185  
     267A      1.433309   268A      1.439017   269A      1.443941  
     270A      1.447771   271A      1.459793   272A      1.462263  
     273A      1.482372   274A      1.492468   275A      1.498536  
     276A      1.515282   277A      1.523395   278A      1.534243  
     279A      1.542966   280A      1.553924   281A      1.560297  
     282A      1.575283   283A      1.584422   284A      1.597689  
     285A      1.602408   286A      1.612693   287A      1.634138  
     288A      1.642187   289A      1.649539   290A      1.669184  
     291A      1.674958   292A      1.678655   293A      1.690880  
     294A      1.694338   295A      1.717287   296A      1.719159  
     297A      1.734595   298A      1.740811   299A      1.742335  
     300A      1.753461   301A      1.765174   302A      1.770775  
     303A      1.771934   304A      1.781637   305A      1.797654  
     306A      1.806462   307A      1.812148   308A      1.820562  
     309A      1.828840   310A      1.839756   311A      1.849789  
     312A      1.862218   313A      1.878630   314A      1.880100  
     315A      1.883768   316A      1.896345   317A      1.905560  
     318A      1.914561   319A      1.934344   320A      1.948705  
     321A      1.949584   322A      1.961916   323A      1.966094  
     324A      1.973222   325A      1.979145   326A      2.003889  
     327A      2.013344   328A      2.016304   329A      2.021275  
     330A      2.028353   331A      2.036658   332A      2.040063  
     333A      2.052324   334A      2.065096   335A      2.075687  
     336A      2.087116   337A      2.094984   338A      2.105494  
     339A      2.107944   340A      2.123060   341A      2.134859  
     342A      2.143920   343A      2.153980   344A      2.162327  
     345A      2.167365   346A      2.173062   347A      2.188059  
     348A      2.203445   349A      2.218388   350A      2.223681  
     351A      2.242607   352A      2.247502   353A      2.267598  
     354A      2.275312   355A      2.278034   356A      2.309764  
     357A      2.312902   358A      2.333648   359A      2.354297  
     360A      2.361110   361A      2.370662   362A      2.396245  
     363A      2.399417   364A      2.426677   365A      2.433286  
     366A      2.451883   367A      2.470061   368A      2.491545  
     369A      2.506132   370A      2.538254   371A      2.550648  
     372A      2.560214   373A      2.587623   374A      2.613410  
     375A      2.634841   376A      2.656266   377A      2.693310  
     378A      2.717866   379A      2.732988   380A      2.761977  
     381A      2.780371   382A      2.795034   383A      2.802261  
     384A      2.847943   385A      2.862049   386A      2.881790  
     387A      2.898895   388A      2.907220   389A      2.936840  
     390A      2.980062   391A      2.990567   392A      3.026416  
     393A      3.032527   394A      3.040831   395A      3.076700  
     396A      3.084810   397A      3.101044   398A      3.120442  
     399A      3.124979   400A      3.140868   401A      3.161997  
     402A      3.178744   403A      3.191404   404A      3.202774  
     405A      3.215501   406A      3.222616   407A      3.236003  
     408A      3.245743   409A      3.254024   410A      3.281019  
     411A      3.296853   412A      3.302095   413A      3.319533  
     414A      3.326418   415A      3.338744   416A      3.349370  
     417A      3.363608   418A      3.377316   419A      3.391656  
     420A      3.407462   421A      3.423758   422A      3.433720  
     423A      3.437829   424A      3.442617   425A      3.445206  
     426A      3.459425   427A      3.467738   428A      3.484773  
     429A      3.495910   430A      3.506269   431A      3.510123  
     432A      3.520435   433A      3.528617   434A      3.540002  
     435A      3.547988   436A      3.565378   437A      3.573721  
     438A      3.582145   439A      3.596060   440A      3.607536  
     441A      3.613185   442A      3.628364   443A      3.644480  
     444A      3.654255   445A      3.670815   446A      3.674107  
     447A      3.685360   448A      3.696745   449A      3.703752  
     450A      3.717153   451A      3.726656   452A      3.746763  
     453A      3.747334   454A      3.758601   455A      3.761886  
     456A      3.784728   457A      3.791377   458A      3.805412  
     459A      3.806968   460A      3.820251   461A      3.833637  
     462A      3.844418   463A      3.851487   464A      3.869684  
     465A      3.875360   466A      3.889510   467A      3.891550  
     468A      3.904749   469A      3.917199   470A      3.929540  
     471A      3.939805   472A      3.943111   473A      3.960640  
     474A      3.981802   475A      3.990048   476A      3.997744  
     477A      4.010126   478A      4.016588   479A      4.023570  
     480A      4.026940   481A      4.043549   482A      4.048316  
     483A      4.066980   484A      4.081526   485A      4.090224  
     486A      4.099974   487A      4.108873   488A      4.134890  
     489A      4.141671   490A      4.164430   491A      4.167724  
     492A      4.178838   493A      4.185756   494A      4.194749  
     495A      4.209522   496A      4.231134   497A      4.237298  
     498A      4.242959   499A      4.248405   500A      4.259587  
     501A      4.266956   502A      4.290058   503A      4.296304  
     504A      4.319178   505A      4.322801   506A      4.331424  
     507A      4.343626   508A      4.359826   509A      4.367276  
     510A      4.381538   511A      4.389047   512A      4.396140  
     513A      4.399302   514A      4.415824   515A      4.425499  
     516A      4.450644   517A      4.459247   518A      4.461295  
     519A      4.475685   520A      4.480258   521A      4.499865  
     522A      4.527201   523A      4.559887   524A      4.570283  
     525A      4.587676   526A      4.601304   527A      4.609328  
     528A      4.621869   529A      4.633314   530A      4.645076  
     531A      4.668782   532A      4.698663   533A      4.707709  
     534A      4.724336   535A      4.731083   536A      4.743465  
     537A      4.761317   538A      4.773550   539A      4.781386  
     540A      4.803448   541A      4.817553   542A      4.832644  
     543A      4.841236   544A      4.884334   545A      4.888223  
     546A      4.894822   547A      4.903753   548A      4.926213  
     549A      4.949716   550A      4.960001   551A      4.976564  
     552A      4.982476   553A      5.005174   554A      5.013005  
     555A      5.030934   556A      5.081992   557A      5.095652  
     558A      5.096767   559A      5.117522   560A      5.129215  
     561A      5.141752   562A      5.154026   563A      5.167705  
     564A      5.176182   565A      5.199673   566A      5.209358  
     567A      5.219259   568A      5.256593   569A      5.271773  
     570A      5.276804   571A      5.297341   572A      5.309989  
     573A      5.346016   574A      5.354151   575A      5.379759  
     576A      5.416696   577A      5.446428   578A      5.451874  
     579A      5.460788   580A      5.490415   581A      5.516528  
     582A      5.607986   583A      5.617572   584A      5.677878  
     585A      5.703083   586A      5.733701   587A      5.758465  
     588A      5.764842   589A      5.792013   590A      5.800813  
     591A      5.846117   592A      5.879437   593A      5.929145  
     594A      5.940397   595A      6.013972   596A      6.021460  
     597A      6.064909   598A      6.082004   599A      6.118263  
     600A      6.173809   601A      6.193774   602A      6.214130  
     603A      6.224253   604A      6.248627   605A      6.300654  
     606A      6.311163   607A      6.349781   608A      6.472183  
     609A      6.484263   610A      6.518860   611A      6.679440  
     612A      6.790300   613A      6.822454   614A      6.901039  
     615A      6.964324   616A      7.082885   617A      7.175873  
     618A      7.299908   619A      7.352431   620A      7.488773  
     621A      8.985569   622A      8.994872   623A      9.009386  
     624A      9.040737   625A      9.062626   626A      9.088040  
     627A      9.184088   628A      9.198842   629A      9.314932  
     630A      9.339964   631A      9.371380   632A      9.372523  
     633A      9.385969   634A      9.401237   635A      9.434532  
     636A      9.450097   637A      9.479703   638A      9.509769  
     639A      9.537450   640A      9.544434   641A      9.554620  
     642A      9.561154   643A      9.607041   644A      9.636491  
     645A      9.639987   646A      9.666071   647A      9.686013  
     648A      9.707599   649A      9.739993   650A      9.770291  
     651A      9.854527   652A      9.967685   653A      9.997151  
     654A     10.046180   655A     10.185550   656A     10.245769  
     657A     16.130019   658A     16.183358   659A     16.281761  
     660A     16.674658   661A     17.024774   662A     17.775150  
     663A     18.991456   664A     19.132014   665A     20.032827  
     666A     20.511193   667A     20.993896  

    Final Occupation by Irrep:
              A 
    DOCC [    41 ]

  @DF-RHF Final Energy:  -605.57687766564959

   => Energetics <=

    Nuclear Repulsion Energy =            631.7084028163767471
    One-Electron Energy =               -2087.6712193536941413
    Two-Electron Energy =                 850.3859388716678041
    Total Energy =                       -605.5768776656495902

Computation Completed

*** tstop() called on c446-111.stampede2.tacc.utexas.edu at Thu Apr  1 02:56:33 2021
Module time:
	user time   =     406.07 seconds =       6.77 minutes
	system time =      11.10 seconds =       0.18 minutes
	total time  =         65 seconds =       1.08 minutes
Total time:
	user time   =     406.07 seconds =       6.77 minutes
	system time =      11.10 seconds =       0.18 minutes
	total time  =         65 seconds =       1.08 minutes
   => Loading Basis Set <=

    Name: (AUG-CC-PVTZ AUX)
    Role: RIFIT
    Keyword: DF_BASIS_MP2
    atoms 1-3   entry F          line   322 file /home1/07844/xy3866/miniconda3/envs/p4env/share/psi4/basis/aug-cc-pvtz-ri.gbs 
    atoms 4-11  entry C          line   148 file /home1/07844/xy3866/miniconda3/envs/p4env/share/psi4/basis/aug-cc-pvtz-ri.gbs 
    atoms 12-18 entry H          line    30 file /home1/07844/xy3866/miniconda3/envs/p4env/share/psi4/basis/aug-cc-pvtz-ri.gbs 


*** tstart() called on c446-111.stampede2.tacc.utexas.edu
*** at Thu Apr  1 02:56:34 2021


  //>>>>>>>>>>>>>>>>>>>>>>>>>>>>>>>>>>>//
  //               DFMP2               //
  //<<<<<<<<<<<<<<<<<<<<<<<<<<<<<<<<<<<//

	 --------------------------------------------------------
	                          DF-MP2                         
	      2nd-Order Density-Fitted Moller-Plesset Theory     
	              RMP2 Wavefunction,   8 Threads             
	                                                         
	        Rob Parrish, Justin Turney, Andy Simmonett,      
	           Ed Hohenstein, and C. David Sherrill          
	 --------------------------------------------------------

   => Auxiliary Basis Set <=

  Basis Set: (AUG-CC-PVTZ AUX)
    Blend: AUG-CC-PVTZ-RI
    Number of shells: 406
    Number of basis functions: 1488
    Number of Cartesian functions: 1881
    Spherical Harmonics?: true
    Max angular momentum: 4

	 --------------------------------------------------------
	                 NBF =   667, NAUX =  1488
	 --------------------------------------------------------
	   CLASS    FOCC     OCC    AOCC    AVIR     VIR    FVIR
	   PAIRS       0      41      41     626     626       0
	 --------------------------------------------------------

  DFHelper Memory: AOs need 4.719 GiB; user supplied 22.352 GiB. Using in-core AOs.


         ------------------------------------------------------------
                                     CPHF                           
                                  Rob Parrish                       
         ------------------------------------------------------------

  ==> Geometry <==

    Molecular point group: c1
    Full point group: C1

    Geometry (in Angstrom), charge = 0, multiplicity = 1:

       Center              X                  Y                   Z               Mass       
    ------------   -----------------  -----------------  -----------------  -----------------
         F           -1.881548062700     0.509557789404    -0.994603888840    18.998403162730
         F           -1.849458062700    -1.490903210596    -0.142471888840    18.998403162730
         F           -1.845447062700     0.245707789404     1.166985111160    18.998403162730
         C            0.150692937300    -0.218468210596    -0.019078888840    12.000000000000
         C            0.833452937300     1.013255789404     0.007189111160    12.000000000000
         C            0.852593537300    -1.449625910596    -0.018517988840    12.000000000000
         C            2.232282937300     0.972831789404     0.012060111160    12.000000000000
         C           -1.348314062700    -0.242236210596     0.000599111160    12.000000000000
         C            0.122975937300     2.344166789404    -0.019581888840    12.000000000000
         C            2.237008937300    -1.441195210596    -0.011385888840    12.000000000000
         C            2.933404937300    -0.234061210596     0.008349111160    12.000000000000
         H            0.290043937300    -2.365794210596    -0.031650888840     1.007825032230
         H            2.782695937300     1.911519789404     0.030235111160     1.007825032230
         H           -0.258655062700     2.567117789404    -1.019945888840     1.007825032230
         H           -0.724081062700     2.363777789404     0.668293111160     1.007825032230
         H            0.815504937300     3.139673789404     0.266547111160     1.007825032230
         H            2.772433937300    -2.386928210596    -0.012970888840     1.007825032230
         H            4.020693937300    -0.228569210596     0.016320111160     1.007825032230

  Nuclear repulsion =  631.708402816376747
  Reference energy  = -605.576877665649590

  ==> Basis Set <==

  Basis Set: AUG-CC-PVTZ
    Blend: AUG-CC-PVTZ
    Number of shells: 217
    Number of basis functions: 667
    Number of Cartesian functions: 780
    Spherical Harmonics?: true
    Max angular momentum: 3

  ==> CGRSolver (by Rob Parrish) <==

   Number of roots    =         1
   Preconditioning    =    JACOBI
   Convergence cutoff =     1E-06
   Maximum iterations =       100

  ==> CPHFRHamiltonian (by Rob Parrish) <== 

  ==> MemDFJK: Density-Fitted J/K Matrices <==

    J tasked:                   Yes
    K tasked:                   Yes
    wK tasked:                   No
    OpenMP threads:               8
    Memory [MiB]:             22888
    Algorithm:                 Core
    Schwarz Cutoff:           1E-12
    Mask sparsity (%):       5.5974
    Fitting Condition:        1E-10

   => Auxiliary Basis Set <=

  Basis Set: (AUG-CC-PVTZ AUX)
    Blend: AUG-CC-PVTZ-JKFIT
    Number of shells: 428
    Number of basis functions: 1466
    Number of Cartesian functions: 1826
    Spherical Harmonics?: true
    Max angular momentum: 4

  ==> CPHF Iterations <==

  => Iterations <=

             Iter  Converged  Remaining    Residual
  CGR           1          0          1   9.246E-02
  CGR           2          0          1   2.256E-02
  CGR           3          0          1   1.255E-02
  CGR           4          0          1   6.955E-03
  CGR           5          0          1   3.070E-03
  CGR           6          0          1   8.600E-04
  CGR           7          0          1   2.538E-04
  CGR           8          0          1   7.986E-05
  CGR           9          0          1   2.322E-05
  CGR          10          0          1   7.496E-06
  CGR          11          0          1   2.380E-06
  CGR          12          1          0   7.558E-07

    CGRSolver converged.

	-----------------------------------------------------------
	 ==================> DF-MP2 Energies <==================== 
	-----------------------------------------------------------
	 Reference Energy          =    -605.5768776656495902 [Eh]
	 Singles Energy            =      -0.0000000000000000 [Eh]
	 Same-Spin Energy          =      -0.5633589287441986 [Eh]
	 Opposite-Spin Energy      =      -1.6973999430268962 [Eh]
	 Correlation Energy        =      -2.2607588717710949 [Eh]
	 Total Energy              =    -607.8376365374207353 [Eh]
	-----------------------------------------------------------
	 ================> DF-SCS-MP2 Energies <================== 
	-----------------------------------------------------------
	 SCS Same-Spin Scale       =       0.3333333333333333 [-]
	 SCS Opposite-Spin Scale   =       1.2000000000000000 [-]
	 SCS Same-Spin Energy      =      -0.1877863095813995 [Eh]
	 SCS Opposite-Spin Energy  =      -2.0368799316322752 [Eh]
	 SCS Correlation Energy    =      -2.2246662412136748 [Eh]
	 SCS Total Energy          =    -607.8015439068632304 [Eh]
	-----------------------------------------------------------



Properties will be evaluated at  -0.000000,   0.000000,   0.000000 [a0]

Properties computed using the MP2 density matrix

  Nuclear Dipole Moment: [e a0]
     X:    14.3527      Y:     5.3821      Z:    -0.1062

  Electronic Dipole Moment: [e a0]
     X:   -13.3308      Y:    -5.2091      Z:     0.0816

  Dipole Moment: [e a0]
     X:     1.0219      Y:     0.1729      Z:    -0.0246     Total:     1.0368

  Dipole Moment: [D]
     X:     2.5975      Y:     0.4396      Z:    -0.0625     Total:     2.6352


*** tstop() called on c446-111.stampede2.tacc.utexas.edu at Thu Apr  1 03:01:02 2021
Module time:
	user time   =    1635.97 seconds =      27.27 minutes
	system time =      25.20 seconds =       0.42 minutes
	total time  =        268 seconds =       4.47 minutes
Total time:
	user time   =    2042.94 seconds =      34.05 minutes
	system time =      36.32 seconds =       0.61 minutes
	total time  =        334 seconds =       5.57 minutes

    Psi4 stopped on: Thursday, 01 April 2021 03:01AM
    Psi4 wall time for execution: 0:05:35.42

*** Psi4 exiting successfully. Buy a developer a beer!
