
    -----------------------------------------------------------------------
          Psi4: An Open-Source Ab Initio Electronic Structure Package
                               Psi4 1.3.2 release

                         Git: Rev {HEAD} ecbda83 


    R. M. Parrish, L. A. Burns, D. G. A. Smith, A. C. Simmonett,
    A. E. DePrince III, E. G. Hohenstein, U. Bozkaya, A. Yu. Sokolov,
    R. Di Remigio, R. M. Richard, J. F. Gonthier, A. M. James,
    H. R. McAlexander, A. Kumar, M. Saitow, X. Wang, B. P. Pritchard,
    P. Verma, H. F. Schaefer III, K. Patkowski, R. A. King, E. F. Valeev,
    F. A. Evangelista, J. M. Turney, T. D. Crawford, and C. D. Sherrill,
    J. Chem. Theory Comput. 13(7) pp 3185--3197 (2017).
    (doi: 10.1021/acs.jctc.7b00174)


                         Additional Contributions by
    P. Kraus, H. Kruse, M. H. Lechner, M. C. Schieber, R. A. Shaw,
    A. Alenaizan, R. Galvelis, Z. L. Glick, S. Lehtola, and J. P. Misiewicz

    -----------------------------------------------------------------------


    Psi4 started on: Thursday, 05 November 2020 03:23PM

    Process ID: 82916
    Host:       node142.bme.utexas.edu
    PSIDATADIR: /home/xy3866/psi4conda/share/psi4
    Memory:     500.0 MiB
    Threads:    8
    
  ==> Input File <==

--------------------------------------------------------------------------
#psi4
#
memory 32 gb

molecule  {
0 1
 Cl       -1.8862660    -0.5037910    -0.0848630
  O        2.6551490    -0.4511250    -0.1848070
  C        0.5405760     0.7662660    -0.3133580
  C        1.3415020    -0.3416140     0.3595680
  C       -0.8647240     0.9315120     0.2382250
  H        0.5053200     0.5766010    -1.3901780
  H        1.0611350     1.7234130    -0.1680230
  H        1.3720670    -0.1781130     1.4478320
  H        0.8719920    -1.3105050     0.1837500
  H       -0.8516100     1.0739190     1.3211680
  H       -1.3679740     1.7845180    -0.2190030
  H        3.0813819     0.2824860     0.0159464
units angstrom
no_reorient  #important for SAPT in psi4, default
symmetry c1  #important for SAPT in psi4, default
}

set PROPERTIES_ORIGIN ["COM"]
properties('MP2/aug-cc-pvtz', properties = ['dipole'])
--------------------------------------------------------------------------

  Memory set to  29.802 GiB by Python driver.
    SCF Algorithm Type (re)set to DF.

*** tstart() called on node142.bme.utexas.edu
*** at Thu Nov  5 15:23:54 2020

   => Loading Basis Set <=

    Name: AUG-CC-PVTZ
    Role: ORBITAL
    Keyword: BASIS
    atoms 1    entry CL         line   984 file /home/xy3866/psi4conda/share/psi4/basis/aug-cc-pvtz.gbs 
    atoms 2    entry O          line   327 file /home/xy3866/psi4conda/share/psi4/basis/aug-cc-pvtz.gbs 
    atoms 3-5  entry C          line   235 file /home/xy3866/psi4conda/share/psi4/basis/aug-cc-pvtz.gbs 
    atoms 6-12 entry H          line    36 file /home/xy3866/psi4conda/share/psi4/basis/aug-cc-pvtz.gbs 


         ---------------------------------------------------------
                                   SCF
               by Justin Turney, Rob Parrish, Andy Simmonett
                          and Daniel G. A. Smith
                              RHF Reference
                        8 Threads,  30517 MiB Core
         ---------------------------------------------------------

  ==> Geometry <==

    Molecular point group: c1
    Full point group: C1

    Geometry (in Angstrom), charge = 0, multiplicity = 1:

       Center              X                  Y                   Z               Mass       
    ------------   -----------------  -----------------  -----------------  -----------------
         CL          -1.816337715133    -0.455125226497    -0.070934916990    34.968852682000
         O            2.725077284867    -0.402459226497    -0.170878916990    15.994914619570
         C            0.610504284867     0.814931773503    -0.299429916990    12.000000000000
         C            1.411430284867    -0.292948226497     0.373496083010    12.000000000000
         C           -0.794795715133     0.980177773503     0.252153083010    12.000000000000
         H            0.575248284867     0.625266773503    -1.376249916990     1.007825032230
         H            1.131063284867     1.772078773503    -0.154094916990     1.007825032230
         H            1.441995284867    -0.129447226497     1.461760083010     1.007825032230
         H            0.941920284867    -1.261839226497     0.197678083010     1.007825032230
         H           -0.781681715133     1.122584773503     1.335096083010     1.007825032230
         H           -1.298045715133     1.833183773503    -0.205074916990     1.007825032230
         H            3.151310184867     0.331151773503     0.029874483010     1.007825032230

  Running in c1 symmetry.

  Rotational constants: A =      0.33436  B =      0.05673  C =      0.05150 [cm^-1]
  Rotational constants: A =  10023.91845  B =   1700.67854  C =   1543.81222 [MHz]
  Nuclear repulsion =  225.586605530324391

  Charge       = 0
  Multiplicity = 1
  Electrons    = 50
  Nalpha       = 25
  Nbeta        = 25

  ==> Algorithm <==

  SCF Algorithm Type is DF.
  DIIS enabled.
  MOM disabled.
  Fractional occupation disabled.
  Guess Type is SAD.
  Energy threshold   = 1.00e-10
  Density threshold  = 1.00e-10
  Integral threshold = 0.00e+00

  ==> Primary Basis <==

  Basis Set: AUG-CC-PVTZ
    Blend: AUG-CC-PVTZ
    Number of shells: 135
    Number of basis function: 395
    Number of Cartesian functions: 454
    Spherical Harmonics?: true
    Max angular momentum: 3

   => Loading Basis Set <=

    Name: (AUG-CC-PVTZ AUX)
    Role: JKFIT
    Keyword: DF_BASIS_SCF
    atoms 1    entry CL         line   816 file /home/xy3866/psi4conda/share/psi4/basis/aug-cc-pvtz-jkfit.gbs 
    atoms 2    entry O          line   286 file /home/xy3866/psi4conda/share/psi4/basis/aug-cc-pvtz-jkfit.gbs 
    atoms 3-5  entry C          line   162 file /home/xy3866/psi4conda/share/psi4/basis/aug-cc-pvtz-jkfit.gbs 
    atoms 6-12 entry H          line    70 file /home/xy3866/psi4conda/share/psi4/basis/aug-cc-pvtz-jkfit.gbs 

  ==> Pre-Iterations <==

   -------------------------------------------------------
    Irrep   Nso     Nmo     Nalpha   Nbeta   Ndocc  Nsocc
   -------------------------------------------------------
     A        395     395       0       0       0       0
   -------------------------------------------------------
    Total     395     395      25      25      25       0
   -------------------------------------------------------

  ==> Integral Setup <==

  DFHelper Memory: AOs need 1.059 GiB; user supplied 22.352 GiB. Using in-core AOs.

  ==> MemDFJK: Density-Fitted J/K Matrices <==

    J tasked:                   Yes
    K tasked:                   Yes
    wK tasked:                   No
    OpenMP threads:               8
    Memory [MiB]:             22888
    Algorithm:                 Core
    Schwarz Cutoff:           1E-12
    Mask sparsity (%):       1.5151
    Fitting Condition:        1E-10

   => Auxiliary Basis Set <=

  Basis Set: (AUG-CC-PVTZ AUX)
    Blend: AUG-CC-PVTZ-JKFIT
    Number of shells: 260
    Number of basis function: 884
    Number of Cartesian functions: 1089
    Spherical Harmonics?: true
    Max angular momentum: 4

  Minimum eigenvalue in the overlap matrix is 1.2843321493E-05.
  Using Symmetric Orthogonalization.

  SCF Guess: Superposition of Atomic Densities via on-the-fly atomic UHF.

  ==> Iterations <==

                           Total Energy        Delta E     RMS |[F,P]|

   @DF-RHF iter SAD:  -651.61254030670614   -6.51613e+02   0.00000e+00 
   @DF-RHF iter   1:  -651.96774701603033   -3.55207e-01   1.36099e-03 DIIS
   @DF-RHF iter   2:  -652.09467904676342   -1.26932e-01   6.75639e-04 DIIS
   @DF-RHF iter   3:  -652.12221514816599   -2.75361e-02   1.25745e-04 DIIS
   @DF-RHF iter   4:  -652.12416930176551   -1.95415e-03   3.62461e-05 DIIS
   @DF-RHF iter   5:  -652.12429721089052   -1.27909e-04   1.00944e-05 DIIS
   @DF-RHF iter   6:  -652.12430836562498   -1.11547e-05   2.51405e-06 DIIS
   @DF-RHF iter   7:  -652.12430928070569   -9.15081e-07   6.26196e-07 DIIS
   @DF-RHF iter   8:  -652.12430934368479   -6.29791e-08   2.46147e-07 DIIS
   @DF-RHF iter   9:  -652.12430935261136   -8.92658e-09   6.37016e-08 DIIS
   @DF-RHF iter  10:  -652.12430935351495   -9.03583e-10   1.63521e-08 DIIS
   @DF-RHF iter  11:  -652.12430935356724   -5.22959e-11   4.43317e-09 DIIS
   @DF-RHF iter  12:  -652.12430935356781   -5.68434e-13   1.27580e-09 DIIS
   @DF-RHF iter  13:  -652.12430935356713    6.82121e-13   4.17581e-10 DIIS
   @DF-RHF iter  14:  -652.12430935356929   -2.16005e-12   1.36999e-10 DIIS
   @DF-RHF iter  15:  -652.12430935357236   -3.06954e-12   4.19112e-11 DIIS
  Energy and wave function converged.


  ==> Post-Iterations <==

    Orbital Energies [Eh]
    ---------------------

    Doubly Occupied:                                                      

       1A   -104.826553     2A    -20.554962     3A    -11.301059  
       4A    -11.283506     5A    -11.244219     6A    -10.551033  
       7A     -8.017861     8A     -8.016094     9A     -8.016066  
      10A     -1.388325    11A     -1.146408    12A     -1.038645  
      13A     -0.919259    14A     -0.824352    15A     -0.717795  
      16A     -0.649954    17A     -0.635417    18A     -0.612627  
      19A     -0.571120    20A     -0.541251    21A     -0.523779  
      22A     -0.490508    23A     -0.457814    24A     -0.436753  
      25A     -0.432252  

    Virtual:                                                              

      26A      0.024676    27A      0.036248    28A      0.037913  
      29A      0.046493    30A      0.060308    31A      0.061467  
      32A      0.062298    33A      0.082392    34A      0.098037  
      35A      0.116165    36A      0.121631    37A      0.122596  
      38A      0.128577    39A      0.132038    40A      0.134722  
      41A      0.145831    42A      0.151590    43A      0.155082  
      44A      0.156325    45A      0.170115    46A      0.184075  
      47A      0.193362    48A      0.198154    49A      0.206750  
      50A      0.211721    51A      0.227339    52A      0.250466  
      53A      0.262690    54A      0.265321    55A      0.276924  
      56A      0.284264    57A      0.290487    58A      0.297456  
      59A      0.305430    60A      0.309798    61A      0.320745  
      62A      0.327857    63A      0.329867    64A      0.349420  
      65A      0.356709    66A      0.362774    67A      0.370171  
      68A      0.376301    69A      0.377519    70A      0.390204  
      71A      0.391605    72A      0.399124    73A      0.413395  
      74A      0.417122    75A      0.423497    76A      0.429198  
      77A      0.436029    78A      0.444889    79A      0.453275  
      80A      0.462944    81A      0.465911    82A      0.471469  
      83A      0.480912    84A      0.491278    85A      0.502088  
      86A      0.502794    87A      0.505592    88A      0.510983  
      89A      0.515086    90A      0.524517    91A      0.530106  
      92A      0.534193    93A      0.546482    94A      0.561829  
      95A      0.566150    96A      0.587131    97A      0.594848  
      98A      0.602126    99A      0.623828   100A      0.627240  
     101A      0.653585   102A      0.656797   103A      0.670201  
     104A      0.681915   105A      0.721975   106A      0.728393  
     107A      0.733748   108A      0.767170   109A      0.776572  
     110A      0.793795   111A      0.796842   112A      0.810835  
     113A      0.819580   114A      0.826123   115A      0.832609  
     116A      0.843628   117A      0.854977   118A      0.860502  
     119A      0.867119   120A      0.878005   121A      0.896111  
     122A      0.899834   123A      0.905696   124A      0.919344  
     125A      0.925028   126A      0.928940   127A      0.940482  
     128A      0.952292   129A      0.956602   130A      0.958073  
     131A      0.975402   132A      0.985178   133A      1.005357  
     134A      1.007635   135A      1.010908   136A      1.020033  
     137A      1.042675   138A      1.053337   139A      1.056549  
     140A      1.070039   141A      1.073516   142A      1.081406  
     143A      1.091187   144A      1.098427   145A      1.111930  
     146A      1.120387   147A      1.132813   148A      1.143111  
     149A      1.155283   150A      1.164726   151A      1.171335  
     152A      1.190273   153A      1.191932   154A      1.197742  
     155A      1.218251   156A      1.227918   157A      1.244633  
     158A      1.245651   159A      1.259817   160A      1.272773  
     161A      1.285400   162A      1.292796   163A      1.305893  
     164A      1.326609   165A      1.341373   166A      1.354769  
     167A      1.380035   168A      1.385702   169A      1.391953  
     170A      1.413571   171A      1.448383   172A      1.451433  
     173A      1.467498   174A      1.472065   175A      1.481183  
     176A      1.494676   177A      1.517667   178A      1.525144  
     179A      1.536213   180A      1.563686   181A      1.573254  
     182A      1.594225   183A      1.605925   184A      1.621954  
     185A      1.629091   186A      1.633895   187A      1.644572  
     188A      1.653058   189A      1.663259   190A      1.683520  
     191A      1.689144   192A      1.704961   193A      1.725099  
     194A      1.730910   195A      1.733144   196A      1.752060  
     197A      1.764250   198A      1.767591   199A      1.794896  
     200A      1.802206   201A      1.812537   202A      1.827637  
     203A      1.837414   204A      1.848193   205A      1.885674  
     206A      1.889811   207A      1.909501   208A      1.926123  
     209A      1.930719   210A      1.958829   211A      1.972810  
     212A      1.978650   213A      2.004113   214A      2.012480  
     215A      2.029226   216A      2.053500   217A      2.068627  
     218A      2.097072   219A      2.108090   220A      2.138701  
     221A      2.147301   222A      2.167087   223A      2.190061  
     224A      2.212626   225A      2.234862   226A      2.254644  
     227A      2.268026   228A      2.284305   229A      2.303441  
     230A      2.359145   231A      2.372329   232A      2.410651  
     233A      2.419830   234A      2.432784   235A      2.463924  
     236A      2.474888   237A      2.506519   238A      2.587023  
     239A      2.617077   240A      2.656151   241A      2.677359  
     242A      2.703799   243A      2.712352   244A      2.746920  
     245A      2.753565   246A      2.787500   247A      2.795218  
     248A      2.839401   249A      2.862372   250A      2.925100  
     251A      2.929265   252A      2.968972   253A      2.984825  
     254A      3.029180   255A      3.058957   256A      3.093344  
     257A      3.107851   258A      3.144463   259A      3.175383  
     260A      3.179636   261A      3.196764   262A      3.222506  
     263A      3.247689   264A      3.281416   265A      3.296173  
     266A      3.308328   267A      3.338998   268A      3.374298  
     269A      3.395993   270A      3.435637   271A      3.461344  
     272A      3.470502   273A      3.518877   274A      3.531445  
     275A      3.573757   276A      3.592623   277A      3.616503  
     278A      3.636096   279A      3.662813   280A      3.694454  
     281A      3.704708   282A      3.725107   283A      3.740899  
     284A      3.749084   285A      3.792494   286A      3.810848  
     287A      3.818759   288A      3.846963   289A      3.887952  
     290A      3.895264   291A      3.914884   292A      3.934248  
     293A      3.938585   294A      3.962336   295A      3.967927  
     296A      3.989954   297A      4.010930   298A      4.049396  
     299A      4.060155   300A      4.080769   301A      4.114994  
     302A      4.124638   303A      4.142071   304A      4.161026  
     305A      4.176976   306A      4.228192   307A      4.247509  
     308A      4.280586   309A      4.290116   310A      4.315821  
     311A      4.321640   312A      4.356113   313A      4.397274  
     314A      4.419164   315A      4.434818   316A      4.462606  
     317A      4.499912   318A      4.555058   319A      4.579337  
     320A      4.589569   321A      4.629903   322A      4.653148  
     323A      4.677489   324A      4.715518   325A      4.736656  
     326A      4.754475   327A      4.771030   328A      4.806768  
     329A      4.830590   330A      4.837846   331A      4.865527  
     332A      4.895365   333A      4.943519   334A      4.964680  
     335A      4.979233   336A      5.008058   337A      5.036179  
     338A      5.061183   339A      5.100612   340A      5.112833  
     341A      5.136268   342A      5.156936   343A      5.171220  
     344A      5.195252   345A      5.238491   346A      5.266768  
     347A      5.298283   348A      5.335583   349A      5.351683  
     350A      5.378548   351A      5.419485   352A      5.431776  
     353A      5.454918   354A      5.494619   355A      5.530895  
     356A      5.573226   357A      5.611659   358A      5.630425  
     359A      5.652339   360A      5.690370   361A      5.755927  
     362A      5.790426   363A      5.827689   364A      5.921179  
     365A      5.980083   366A      6.000937   367A      6.079380  
     368A      6.123300   369A      6.155375   370A      6.179193  
     371A      6.269442   372A      6.333031   373A      6.407793  
     374A      6.455824   375A      6.688658   376A      6.716389  
     377A      6.754805   378A      6.895336   379A      6.956579  
     380A      6.980202   381A      7.119381   382A      7.378275  
     383A      7.424202   384A      7.614269   385A      7.627802  
     386A      7.748277   387A      7.828784   388A      7.935715  
     389A      7.980151   390A      8.349341   391A      8.764688  
     392A     17.031616   393A     17.595195   394A     17.752754  
     395A     18.782519  

    Final Occupation by Irrep:
              A 
    DOCC [    25 ]

  @DF-RHF Final Energy:  -652.12430935357236

   => Energetics <=

    Nuclear Repulsion Energy =            225.5866055303243911
    One-Electron Energy =               -1345.0266053546745297
    Two-Electron Energy =                 467.3156904707778949
    Total Energy =                       -652.1243093535723574

Computation Completed

*** tstop() called on node142.bme.utexas.edu at Thu Nov  5 15:24:11 2020
Module time:
	user time   =     107.23 seconds =       1.79 minutes
	system time =       4.63 seconds =       0.08 minutes
	total time  =         17 seconds =       0.28 minutes
Total time:
	user time   =     107.23 seconds =       1.79 minutes
	system time =       4.63 seconds =       0.08 minutes
	total time  =         17 seconds =       0.28 minutes
   => Loading Basis Set <=

    Name: (AUG-CC-PVTZ AUX)
    Role: RIFIT
    Keyword: DF_BASIS_MP2
    atoms 1    entry CL         line   742 file /home/xy3866/psi4conda/share/psi4/basis/aug-cc-pvtz-ri.gbs 
    atoms 2    entry O          line   264 file /home/xy3866/psi4conda/share/psi4/basis/aug-cc-pvtz-ri.gbs 
    atoms 3-5  entry C          line   148 file /home/xy3866/psi4conda/share/psi4/basis/aug-cc-pvtz-ri.gbs 
    atoms 6-12 entry H          line    30 file /home/xy3866/psi4conda/share/psi4/basis/aug-cc-pvtz-ri.gbs 


*** tstart() called on node142.bme.utexas.edu
*** at Thu Nov  5 15:24:12 2020


  //>>>>>>>>>>>>>>>>>>>>>>>>>>>>>>>>>>>//
  //               DFMP2               //
  //<<<<<<<<<<<<<<<<<<<<<<<<<<<<<<<<<<<//

	 --------------------------------------------------------
	                          DF-MP2                         
	      2nd-Order Density-Fitted Moller-Plesset Theory     
	              RMP2 Wavefunction,   8 Threads             
	                                                         
	        Rob Parrish, Justin Turney, Andy Simmonett,      
	           Ed Hohenstein, and C. David Sherrill          
	 --------------------------------------------------------

   => Auxiliary Basis Set <=

  Basis Set: (AUG-CC-PVTZ AUX)
    Blend: AUG-CC-PVTZ-RI
    Number of shells: 247
    Number of basis function: 893
    Number of Cartesian functions: 1120
    Spherical Harmonics?: true
    Max angular momentum: 4

	 --------------------------------------------------------
	                 NBF =   395, NAUX =   893
	 --------------------------------------------------------
	   CLASS    FOCC     OCC    AOCC    AVIR     VIR    FVIR
	   PAIRS       0      25      25     370     370       0
	 --------------------------------------------------------

  DFHelper Memory: AOs need 1.059 GiB; user supplied 22.352 GiB. Using in-core AOs.


         ------------------------------------------------------------
                                     CPHF                           
                                  Rob Parrish                       
         ------------------------------------------------------------

  ==> Geometry <==

    Molecular point group: c1
    Full point group: C1

    Geometry (in Angstrom), charge = 0, multiplicity = 1:

       Center              X                  Y                   Z               Mass       
    ------------   -----------------  -----------------  -----------------  -----------------
         CL          -1.816337715133    -0.455125226497    -0.070934916990    34.968852682000
         O            2.725077284867    -0.402459226497    -0.170878916990    15.994914619570
         C            0.610504284867     0.814931773503    -0.299429916990    12.000000000000
         C            1.411430284867    -0.292948226497     0.373496083010    12.000000000000
         C           -0.794795715133     0.980177773503     0.252153083010    12.000000000000
         H            0.575248284867     0.625266773503    -1.376249916990     1.007825032230
         H            1.131063284867     1.772078773503    -0.154094916990     1.007825032230
         H            1.441995284867    -0.129447226497     1.461760083010     1.007825032230
         H            0.941920284867    -1.261839226497     0.197678083010     1.007825032230
         H           -0.781681715133     1.122584773503     1.335096083010     1.007825032230
         H           -1.298045715133     1.833183773503    -0.205074916990     1.007825032230
         H            3.151310184867     0.331151773503     0.029874483010     1.007825032230

  Nuclear repulsion =  225.586605530324391
  Reference energy  = -652.124309353572357

  ==> Basis Set <==

  Basis Set: AUG-CC-PVTZ
    Blend: AUG-CC-PVTZ
    Number of shells: 135
    Number of basis function: 395
    Number of Cartesian functions: 454
    Spherical Harmonics?: true
    Max angular momentum: 3

  ==> CGRSolver (by Rob Parrish) <==

   Number of roots    =         1
   Preconditioning    =    JACOBI
   Convergence cutoff =     1E-06
   Maximum iterations =       100

  ==> CPHFRHamiltonian (by Rob Parrish) <== 

  ==> MemDFJK: Density-Fitted J/K Matrices <==

    J tasked:                   Yes
    K tasked:                   Yes
    wK tasked:                   No
    OpenMP threads:               8
    Memory [MiB]:             22888
    Algorithm:                 Core
    Schwarz Cutoff:           1E-12
    Mask sparsity (%):       1.5151
    Fitting Condition:        1E-10

   => Auxiliary Basis Set <=

  Basis Set: (AUG-CC-PVTZ AUX)
    Blend: AUG-CC-PVTZ-JKFIT
    Number of shells: 260
    Number of basis function: 884
    Number of Cartesian functions: 1089
    Spherical Harmonics?: true
    Max angular momentum: 4

  ==> CPHF Iterations <==

  => Iterations <=

             Iter  Converged  Remaining    Residual
  CGR           1          0          1   8.057E-02
  CGR           2          0          1   1.586E-02
  CGR           3          0          1   6.075E-03
  CGR           4          0          1   1.549E-03
  CGR           5          0          1   4.438E-04
  CGR           6          0          1   1.514E-04
  CGR           7          0          1   4.188E-05
  CGR           8          0          1   1.110E-05
  CGR           9          0          1   2.983E-06
  CGR          10          0          1   1.073E-06
  CGR          11          1          0   2.931E-07

    CGRSolver converged.

	-----------------------------------------------------------
	 ==================> DF-MP2 Energies <==================== 
	-----------------------------------------------------------
	 Reference Energy          =    -652.1243093535723574 [Eh]
	 Singles Energy            =      -0.0000000000000000 [Eh]
	 Same-Spin Energy          =      -0.2520399131334353 [Eh]
	 Opposite-Spin Energy      =      -0.8274731616030602 [Eh]
	 Correlation Energy        =      -1.0795130747364956 [Eh]
	 Total Energy              =    -653.2038224283088539 [Eh]
	-----------------------------------------------------------
	 ================> DF-SCS-MP2 Energies <================== 
	-----------------------------------------------------------
	 SCS Same-Spin Scale       =       0.3333333333333333 [-]
	 SCS Opposite-Spin Scale   =       1.2000000000000000 [-]
	 SCS Same-Spin Energy      =      -0.0840133043778118 [Eh]
	 SCS Opposite-Spin Energy  =      -0.9929677939236722 [Eh]
	 SCS Correlation Energy    =      -1.0769810983014840 [Eh]
	 SCS Total Energy          =    -653.2012904518738878 [Eh]
	-----------------------------------------------------------



Properties will be evaluated at   0.000000,   0.000000,   0.000000 [a0]

Properties computed using the MP2 density matrix

  Nuclear Dipole Moment: [e a0]
     X:     6.5149      Y:     4.4392      Z:     1.2725

  Electronic Dipole Moment: [e a0]
     X:    -6.3321      Y:    -3.3668      Z:    -0.8592

  Dipole Moment: [e a0]
     X:     0.1827      Y:     1.0725      Z:     0.4133     Total:     1.1638

  Dipole Moment: [D]
     X:     0.4645      Y:     2.7259      Z:     1.0504     Total:     2.9580


*** tstop() called on node142.bme.utexas.edu at Thu Nov  5 15:24:57 2020
Module time:
	user time   =     303.52 seconds =       5.06 minutes
	system time =       7.65 seconds =       0.13 minutes
	total time  =         45 seconds =       0.75 minutes
Total time:
	user time   =     411.74 seconds =       6.86 minutes
	system time =      12.36 seconds =       0.21 minutes
	total time  =         63 seconds =       1.05 minutes

    Psi4 stopped on: Thursday, 05 November 2020 03:24PM
    Psi4 wall time for execution: 0:01:03.28

*** Psi4 exiting successfully. Buy a developer a beer!
