
    -----------------------------------------------------------------------
          Psi4: An Open-Source Ab Initio Electronic Structure Package
                               Psi4 1.3.2 release

                         Git: Rev {HEAD} ecbda83 


    R. M. Parrish, L. A. Burns, D. G. A. Smith, A. C. Simmonett,
    A. E. DePrince III, E. G. Hohenstein, U. Bozkaya, A. Yu. Sokolov,
    R. Di Remigio, R. M. Richard, J. F. Gonthier, A. M. James,
    H. R. McAlexander, A. Kumar, M. Saitow, X. Wang, B. P. Pritchard,
    P. Verma, H. F. Schaefer III, K. Patkowski, R. A. King, E. F. Valeev,
    F. A. Evangelista, J. M. Turney, T. D. Crawford, and C. D. Sherrill,
    J. Chem. Theory Comput. 13(7) pp 3185--3197 (2017).
    (doi: 10.1021/acs.jctc.7b00174)


                         Additional Contributions by
    P. Kraus, H. Kruse, M. H. Lechner, M. C. Schieber, R. A. Shaw,
    A. Alenaizan, R. Galvelis, Z. L. Glick, S. Lehtola, and J. P. Misiewicz

    -----------------------------------------------------------------------


    Psi4 started on: Thursday, 05 November 2020 03:34PM

    Process ID: 83421
    Host:       node142.bme.utexas.edu
    PSIDATADIR: /home/xy3866/psi4conda/share/psi4
    Memory:     500.0 MiB
    Threads:    8
    
  ==> Input File <==

--------------------------------------------------------------------------
#psi4
#
memory 32 gb

molecule  {
0 1
 Cl       -1.8862660    -0.5037910    -0.0848630
  O        2.6551490    -0.4511250    -0.1848070
  C        0.5405760     0.7662660    -0.3133580
  C        1.3415020    -0.3416140     0.3595680
  C       -0.8076896     1.0116474     0.2562636
  H        0.5053200     0.5766010    -1.3901780
  H        1.0611350     1.7234130    -0.1680230
  H        1.3720670    -0.1781130     1.4478320
  H        0.8719920    -1.3105050     0.1837500
  H       -0.8516100     1.0739190     1.3211680
  H       -1.3679740     1.7845180    -0.2190030
  H        3.1302690     0.3666280     0.0389720
units angstrom
no_reorient  #important for SAPT in psi4, default
symmetry c1  #important for SAPT in psi4, default
}

set PROPERTIES_ORIGIN ["COM"]
properties('MP2/aug-cc-pvtz', properties = ['dipole'])
--------------------------------------------------------------------------

  Memory set to  29.802 GiB by Python driver.
    SCF Algorithm Type (re)set to DF.

*** tstart() called on node142.bme.utexas.edu
*** at Thu Nov  5 15:34:09 2020

   => Loading Basis Set <=

    Name: AUG-CC-PVTZ
    Role: ORBITAL
    Keyword: BASIS
    atoms 1    entry CL         line   984 file /home/xy3866/psi4conda/share/psi4/basis/aug-cc-pvtz.gbs 
    atoms 2    entry O          line   327 file /home/xy3866/psi4conda/share/psi4/basis/aug-cc-pvtz.gbs 
    atoms 3-5  entry C          line   235 file /home/xy3866/psi4conda/share/psi4/basis/aug-cc-pvtz.gbs 
    atoms 6-12 entry H          line    36 file /home/xy3866/psi4conda/share/psi4/basis/aug-cc-pvtz.gbs 


         ---------------------------------------------------------
                                   SCF
               by Justin Turney, Rob Parrish, Andy Simmonett
                          and Daniel G. A. Smith
                              RHF Reference
                        8 Threads,  30517 MiB Core
         ---------------------------------------------------------

  ==> Geometry <==

    Molecular point group: c1
    Full point group: C1

    Geometry (in Angstrom), charge = 0, multiplicity = 1:

       Center              X                  Y                   Z               Mass       
    ------------   -----------------  -----------------  -----------------  -----------------
         CL          -1.824141308163    -0.466255214111    -0.073484084097    34.968852682000
         O            2.717273691837    -0.413589214111    -0.173428084097    15.994914619570
         C            0.602700691837     0.803801785889    -0.301979084097    12.000000000000
         C            1.403626691837    -0.304078214111     0.370946915903    12.000000000000
         C           -0.745564908163     1.049183185889     0.267642515903    12.000000000000
         H            0.567444691837     0.614136785889    -1.378799084097     1.007825032230
         H            1.123259691837     1.760948785889    -0.156644084097     1.007825032230
         H            1.434191691837    -0.140577214111     1.459210915903     1.007825032230
         H            0.934116691837    -1.272969214111     0.195128915903     1.007825032230
         H           -0.789485308163     1.111454785889     1.332546915903     1.007825032230
         H           -1.305849308163     1.822053785889    -0.207624084097     1.007825032230
         H            3.192393691837     0.404163785889     0.050350915903     1.007825032230

  Running in c1 symmetry.

  Rotational constants: A =      0.32084  B =      0.05685  C =      0.05129 [cm^-1]
  Rotational constants: A =   9618.58223  B =   1704.38093  C =   1537.73405 [MHz]
  Nuclear repulsion =  223.926553908560635

  Charge       = 0
  Multiplicity = 1
  Electrons    = 50
  Nalpha       = 25
  Nbeta        = 25

  ==> Algorithm <==

  SCF Algorithm Type is DF.
  DIIS enabled.
  MOM disabled.
  Fractional occupation disabled.
  Guess Type is SAD.
  Energy threshold   = 1.00e-10
  Density threshold  = 1.00e-10
  Integral threshold = 0.00e+00

  ==> Primary Basis <==

  Basis Set: AUG-CC-PVTZ
    Blend: AUG-CC-PVTZ
    Number of shells: 135
    Number of basis function: 395
    Number of Cartesian functions: 454
    Spherical Harmonics?: true
    Max angular momentum: 3

   => Loading Basis Set <=

    Name: (AUG-CC-PVTZ AUX)
    Role: JKFIT
    Keyword: DF_BASIS_SCF
    atoms 1    entry CL         line   816 file /home/xy3866/psi4conda/share/psi4/basis/aug-cc-pvtz-jkfit.gbs 
    atoms 2    entry O          line   286 file /home/xy3866/psi4conda/share/psi4/basis/aug-cc-pvtz-jkfit.gbs 
    atoms 3-5  entry C          line   162 file /home/xy3866/psi4conda/share/psi4/basis/aug-cc-pvtz-jkfit.gbs 
    atoms 6-12 entry H          line    70 file /home/xy3866/psi4conda/share/psi4/basis/aug-cc-pvtz-jkfit.gbs 

  ==> Pre-Iterations <==

   -------------------------------------------------------
    Irrep   Nso     Nmo     Nalpha   Nbeta   Ndocc  Nsocc
   -------------------------------------------------------
     A        395     395       0       0       0       0
   -------------------------------------------------------
    Total     395     395      25      25      25       0
   -------------------------------------------------------

  ==> Integral Setup <==

  DFHelper Memory: AOs need 1.058 GiB; user supplied 22.352 GiB. Using in-core AOs.

  ==> MemDFJK: Density-Fitted J/K Matrices <==

    J tasked:                   Yes
    K tasked:                   Yes
    wK tasked:                   No
    OpenMP threads:               8
    Memory [MiB]:             22888
    Algorithm:                 Core
    Schwarz Cutoff:           1E-12
    Mask sparsity (%):       1.5228
    Fitting Condition:        1E-10

   => Auxiliary Basis Set <=

  Basis Set: (AUG-CC-PVTZ AUX)
    Blend: AUG-CC-PVTZ-JKFIT
    Number of shells: 260
    Number of basis function: 884
    Number of Cartesian functions: 1089
    Spherical Harmonics?: true
    Max angular momentum: 4

  Minimum eigenvalue in the overlap matrix is 1.1310709463E-05.
  Using Symmetric Orthogonalization.

  SCF Guess: Superposition of Atomic Densities via on-the-fly atomic UHF.

  ==> Iterations <==

                           Total Energy        Delta E     RMS |[F,P]|

   @DF-RHF iter SAD:  -651.49543433728820   -6.51495e+02   0.00000e+00 
   @DF-RHF iter   1:  -651.96675335732891   -4.71319e-01   1.34699e-03 DIIS
   @DF-RHF iter   2:  -652.09433325276621   -1.27580e-01   6.87460e-04 DIIS
   @DF-RHF iter   3:  -652.12308690458849   -2.87537e-02   1.31757e-04 DIIS
   @DF-RHF iter   4:  -652.12517391125118   -2.08701e-03   4.21911e-05 DIIS
   @DF-RHF iter   5:  -652.12534175977441   -1.67849e-04   1.11195e-05 DIIS
   @DF-RHF iter   6:  -652.12535586535023   -1.41056e-05   2.93686e-06 DIIS
   @DF-RHF iter   7:  -652.12535721850259   -1.35315e-06   8.48959e-07 DIIS
   @DF-RHF iter   8:  -652.12535733508673   -1.16584e-07   3.01421e-07 DIIS
   @DF-RHF iter   9:  -652.12535735215977   -1.70730e-08   8.70410e-08 DIIS
   @DF-RHF iter  10:  -652.12535735388258   -1.72281e-09   2.17785e-08 DIIS
   @DF-RHF iter  11:  -652.12535735398728   -1.04706e-10   6.83963e-09 DIIS
   @DF-RHF iter  12:  -652.12535735399922   -1.19371e-11   2.20031e-09 DIIS
   @DF-RHF iter  13:  -652.12535735399945   -2.27374e-13   6.88228e-10 DIIS
   @DF-RHF iter  14:  -652.12535735400195   -2.50111e-12   2.20316e-10 DIIS
   @DF-RHF iter  15:  -652.12535735400172    2.27374e-13   6.92821e-11 DIIS
  Energy and wave function converged.


  ==> Post-Iterations <==

    Orbital Energies [Eh]
    ---------------------

    Doubly Occupied:                                                      

       1A   -104.815312     2A    -20.567626     3A    -11.306362  
       4A    -11.285481     5A    -11.246379     6A    -10.539115  
       7A     -8.005763     8A     -8.004223     9A     -8.004196  
      10A     -1.364655    11A     -1.132867    12A     -1.035189  
      13A     -0.921937    14A     -0.827295    15A     -0.708187  
      16A     -0.650150    17A     -0.642234    18A     -0.618616  
      19A     -0.567385    20A     -0.546485    21A     -0.509369  
      22A     -0.478023    23A     -0.456170    24A     -0.433152  
      25A     -0.430873  

    Virtual:                                                              

      26A      0.023032    27A      0.035315    28A      0.037243  
      29A      0.046691    30A      0.059408    31A      0.061319  
      32A      0.061866    33A      0.082358    34A      0.097299  
      35A      0.115164    36A      0.118925    37A      0.122430  
      38A      0.128396    39A      0.131334    40A      0.135370  
      41A      0.145214    42A      0.152477    43A      0.155310  
      44A      0.155869    45A      0.167596    46A      0.182564  
      47A      0.185089    48A      0.196856    49A      0.198092  
      50A      0.210631    51A      0.228266    52A      0.250041  
      53A      0.262350    54A      0.263598    55A      0.276695  
      56A      0.284480    57A      0.287519    58A      0.293509  
      59A      0.305383    60A      0.310308    61A      0.320562  
      62A      0.325408    63A      0.330592    64A      0.347077  
      65A      0.350158    66A      0.362322    67A      0.369292  
      68A      0.375616    69A      0.378276    70A      0.388191  
      71A      0.390683    72A      0.398537    73A      0.412518  
      74A      0.415724    75A      0.425476    76A      0.427795  
      77A      0.435137    78A      0.444418    79A      0.453583  
      80A      0.463425    81A      0.465493    82A      0.470823  
      83A      0.480007    84A      0.489661    85A      0.492911  
      86A      0.497340    87A      0.502910    88A      0.511474  
      89A      0.513816    90A      0.523497    91A      0.533095  
      92A      0.537622    93A      0.549935    94A      0.559117  
      95A      0.566353    96A      0.582784    97A      0.596297  
      98A      0.598889    99A      0.616911   100A      0.624838  
     101A      0.649532   102A      0.653214   103A      0.669586  
     104A      0.689395   105A      0.714237   106A      0.732045  
     107A      0.738815   108A      0.760055   109A      0.780939  
     110A      0.791400   111A      0.797814   112A      0.809105  
     113A      0.819277   114A      0.820010   115A      0.829331  
     116A      0.843348   117A      0.860226   118A      0.861901  
     119A      0.873229   120A      0.882877   121A      0.891417  
     122A      0.898998   123A      0.906632   124A      0.917078  
     125A      0.921238   126A      0.929796   127A      0.936009  
     128A      0.947397   129A      0.949640   130A      0.958740  
     131A      0.972122   132A      0.980499   133A      1.001019  
     134A      1.002604   135A      1.004069   136A      1.015658  
     137A      1.043218   138A      1.050389   139A      1.053321  
     140A      1.061080   141A      1.068754   142A      1.077500  
     143A      1.090749   144A      1.094310   145A      1.111683  
     146A      1.116246   147A      1.131171   148A      1.133201  
     149A      1.145810   150A      1.158610   151A      1.166295  
     152A      1.187565   153A      1.191329   154A      1.199036  
     155A      1.216490   156A      1.221561   157A      1.239023  
     158A      1.243124   159A      1.255593   160A      1.266540  
     161A      1.281038   162A      1.288034   163A      1.303646  
     164A      1.321710   165A      1.340880   166A      1.351699  
     167A      1.372259   168A      1.380711   169A      1.389314  
     170A      1.410655   171A      1.438475   172A      1.452805  
     173A      1.459628   174A      1.466386   175A      1.473097  
     176A      1.491303   177A      1.509498   178A      1.517349  
     179A      1.525142   180A      1.555800   181A      1.573235  
     182A      1.577542   183A      1.598606   184A      1.616846  
     185A      1.620704   186A      1.633531   187A      1.636010  
     188A      1.646403   189A      1.662434   190A      1.682138  
     191A      1.689170   192A      1.707761   193A      1.715714  
     194A      1.727262   195A      1.733296   196A      1.746538  
     197A      1.753425   198A      1.768436   199A      1.789889  
     200A      1.795883   201A      1.812043   202A      1.824795  
     203A      1.833670   204A      1.844501   205A      1.884922  
     206A      1.886123   207A      1.913841   208A      1.915414  
     209A      1.926587   210A      1.957155   211A      1.972988  
     212A      1.983521   213A      1.998781   214A      2.016226  
     215A      2.025088   216A      2.053687   217A      2.060184  
     218A      2.073626   219A      2.106284   220A      2.121982  
     221A      2.143782   222A      2.157805   223A      2.171169  
     224A      2.196403   225A      2.231535   226A      2.236571  
     227A      2.254735   228A      2.277360   229A      2.291688  
     230A      2.345506   231A      2.358581   232A      2.400561  
     233A      2.411840   234A      2.438344   235A      2.459263  
     236A      2.482840   237A      2.505501   238A      2.585504  
     239A      2.612786   240A      2.655689   241A      2.677939  
     242A      2.696417   243A      2.718448   244A      2.736739  
     245A      2.774943   246A      2.786877   247A      2.799613  
     248A      2.827090   249A      2.865389   250A      2.908152  
     251A      2.932094   252A      2.950111   253A      2.975409  
     254A      3.013892   255A      3.026083   256A      3.080609  
     257A      3.104968   258A      3.142924   259A      3.164617  
     260A      3.189929   261A      3.210900   262A      3.213231  
     263A      3.254985   264A      3.300298   265A      3.307669  
     266A      3.319797   267A      3.350624   268A      3.361356  
     269A      3.383542   270A      3.419267   271A      3.458003  
     272A      3.486435   273A      3.501573   274A      3.529609  
     275A      3.552774   276A      3.585762   277A      3.608316  
     278A      3.630876   279A      3.645464   280A      3.680395  
     281A      3.686810   282A      3.714226   283A      3.732692  
     284A      3.752410   285A      3.782139   286A      3.790329  
     287A      3.816930   288A      3.836595   289A      3.870561  
     290A      3.883426   291A      3.887420   292A      3.911483  
     293A      3.939464   294A      3.954210   295A      3.963616  
     296A      3.989279   297A      4.004608   298A      4.044773  
     299A      4.053383   300A      4.068303   301A      4.096012  
     302A      4.112602   303A      4.129821   304A      4.133598  
     305A      4.164124   306A      4.221883   307A      4.239949  
     308A      4.249249   309A      4.293551   310A      4.317596  
     311A      4.336042   312A      4.350053   313A      4.379684  
     314A      4.411253   315A      4.439722   316A      4.453676  
     317A      4.497731   318A      4.545206   319A      4.558109  
     320A      4.569657   321A      4.610833   322A      4.648835  
     323A      4.658057   324A      4.674699   325A      4.699706  
     326A      4.736241   327A      4.749487   328A      4.765135  
     329A      4.784899   330A      4.810264   331A      4.856397  
     332A      4.884527   333A      4.935074   334A      4.955406  
     335A      4.967716   336A      4.995929   337A      5.024849  
     338A      5.054071   339A      5.105624   340A      5.106722  
     341A      5.129166   342A      5.137796   343A      5.168476  
     344A      5.213206   345A      5.236314   346A      5.250246  
     347A      5.303563   348A      5.321148   349A      5.364892  
     350A      5.385834   351A      5.417935   352A      5.437830  
     353A      5.461878   354A      5.481665   355A      5.493706  
     356A      5.541971   357A      5.572964   358A      5.595990  
     359A      5.623673   360A      5.672970   361A      5.688774  
     362A      5.787101   363A      5.794904   364A      5.878764  
     365A      5.986155   366A      6.026286   367A      6.064294  
     368A      6.137730   369A      6.167441   370A      6.202925  
     371A      6.253510   372A      6.305552   373A      6.421246  
     374A      6.480516   375A      6.667814   376A      6.715128  
     377A      6.753639   378A      6.888185   379A      6.942566  
     380A      6.969651   381A      7.107539   382A      7.312738  
     383A      7.334930   384A      7.460262   385A      7.489039  
     386A      7.608587   387A      7.671717   388A      7.820194  
     389A      7.890665   390A      8.202564   391A      8.555575  
     392A     15.920054   393A     17.427747   394A     17.811910  
     395A     18.851026  

    Final Occupation by Irrep:
              A 
    DOCC [    25 ]

  @DF-RHF Final Energy:  -652.12535735400172

   => Energetics <=

    Nuclear Repulsion Energy =            223.9265539085606349
    One-Electron Energy =               -1341.9097339429347358
    Two-Electron Energy =                 465.8578226803722941
    Total Energy =                       -652.1253573540018351

Computation Completed

*** tstop() called on node142.bme.utexas.edu at Thu Nov  5 15:34:25 2020
Module time:
	user time   =      99.92 seconds =       1.67 minutes
	system time =       4.29 seconds =       0.07 minutes
	total time  =         16 seconds =       0.27 minutes
Total time:
	user time   =      99.92 seconds =       1.67 minutes
	system time =       4.29 seconds =       0.07 minutes
	total time  =         16 seconds =       0.27 minutes
   => Loading Basis Set <=

    Name: (AUG-CC-PVTZ AUX)
    Role: RIFIT
    Keyword: DF_BASIS_MP2
    atoms 1    entry CL         line   742 file /home/xy3866/psi4conda/share/psi4/basis/aug-cc-pvtz-ri.gbs 
    atoms 2    entry O          line   264 file /home/xy3866/psi4conda/share/psi4/basis/aug-cc-pvtz-ri.gbs 
    atoms 3-5  entry C          line   148 file /home/xy3866/psi4conda/share/psi4/basis/aug-cc-pvtz-ri.gbs 
    atoms 6-12 entry H          line    30 file /home/xy3866/psi4conda/share/psi4/basis/aug-cc-pvtz-ri.gbs 


*** tstart() called on node142.bme.utexas.edu
*** at Thu Nov  5 15:34:26 2020


  //>>>>>>>>>>>>>>>>>>>>>>>>>>>>>>>>>>>//
  //               DFMP2               //
  //<<<<<<<<<<<<<<<<<<<<<<<<<<<<<<<<<<<//

	 --------------------------------------------------------
	                          DF-MP2                         
	      2nd-Order Density-Fitted Moller-Plesset Theory     
	              RMP2 Wavefunction,   8 Threads             
	                                                         
	        Rob Parrish, Justin Turney, Andy Simmonett,      
	           Ed Hohenstein, and C. David Sherrill          
	 --------------------------------------------------------

   => Auxiliary Basis Set <=

  Basis Set: (AUG-CC-PVTZ AUX)
    Blend: AUG-CC-PVTZ-RI
    Number of shells: 247
    Number of basis function: 893
    Number of Cartesian functions: 1120
    Spherical Harmonics?: true
    Max angular momentum: 4

	 --------------------------------------------------------
	                 NBF =   395, NAUX =   893
	 --------------------------------------------------------
	   CLASS    FOCC     OCC    AOCC    AVIR     VIR    FVIR
	   PAIRS       0      25      25     370     370       0
	 --------------------------------------------------------

  DFHelper Memory: AOs need 1.058 GiB; user supplied 22.352 GiB. Using in-core AOs.


         ------------------------------------------------------------
                                     CPHF                           
                                  Rob Parrish                       
         ------------------------------------------------------------

  ==> Geometry <==

    Molecular point group: c1
    Full point group: C1

    Geometry (in Angstrom), charge = 0, multiplicity = 1:

       Center              X                  Y                   Z               Mass       
    ------------   -----------------  -----------------  -----------------  -----------------
         CL          -1.824141308163    -0.466255214111    -0.073484084097    34.968852682000
         O            2.717273691837    -0.413589214111    -0.173428084097    15.994914619570
         C            0.602700691837     0.803801785889    -0.301979084097    12.000000000000
         C            1.403626691837    -0.304078214111     0.370946915903    12.000000000000
         C           -0.745564908163     1.049183185889     0.267642515903    12.000000000000
         H            0.567444691837     0.614136785889    -1.378799084097     1.007825032230
         H            1.123259691837     1.760948785889    -0.156644084097     1.007825032230
         H            1.434191691837    -0.140577214111     1.459210915903     1.007825032230
         H            0.934116691837    -1.272969214111     0.195128915903     1.007825032230
         H           -0.789485308163     1.111454785889     1.332546915903     1.007825032230
         H           -1.305849308163     1.822053785889    -0.207624084097     1.007825032230
         H            3.192393691837     0.404163785889     0.050350915903     1.007825032230

  Nuclear repulsion =  223.926553908560635
  Reference energy  = -652.125357354001721

  ==> Basis Set <==

  Basis Set: AUG-CC-PVTZ
    Blend: AUG-CC-PVTZ
    Number of shells: 135
    Number of basis function: 395
    Number of Cartesian functions: 454
    Spherical Harmonics?: true
    Max angular momentum: 3

  ==> CGRSolver (by Rob Parrish) <==

   Number of roots    =         1
   Preconditioning    =    JACOBI
   Convergence cutoff =     1E-06
   Maximum iterations =       100

  ==> CPHFRHamiltonian (by Rob Parrish) <== 

  ==> MemDFJK: Density-Fitted J/K Matrices <==

    J tasked:                   Yes
    K tasked:                   Yes
    wK tasked:                   No
    OpenMP threads:               8
    Memory [MiB]:             22888
    Algorithm:                 Core
    Schwarz Cutoff:           1E-12
    Mask sparsity (%):       1.5228
    Fitting Condition:        1E-10

   => Auxiliary Basis Set <=

  Basis Set: (AUG-CC-PVTZ AUX)
    Blend: AUG-CC-PVTZ-JKFIT
    Number of shells: 260
    Number of basis function: 884
    Number of Cartesian functions: 1089
    Spherical Harmonics?: true
    Max angular momentum: 4

  ==> CPHF Iterations <==

  => Iterations <=

             Iter  Converged  Remaining    Residual
  CGR           1          0          1   8.451E-02
  CGR           2          0          1   1.771E-02
  CGR           3          0          1   7.408E-03
  CGR           4          0          1   2.072E-03
  CGR           5          0          1   6.489E-04
  CGR           6          0          1   2.242E-04
  CGR           7          0          1   6.402E-05
  CGR           8          0          1   1.797E-05
  CGR           9          0          1   4.355E-06
  CGR          10          0          1   1.445E-06
  CGR          11          1          0   3.634E-07

    CGRSolver converged.

	-----------------------------------------------------------
	 ==================> DF-MP2 Energies <==================== 
	-----------------------------------------------------------
	 Reference Energy          =    -652.1253573540017214 [Eh]
	 Singles Energy            =      -0.0000000000000000 [Eh]
	 Same-Spin Energy          =      -0.2527592655971785 [Eh]
	 Opposite-Spin Energy      =      -0.8298720508958304 [Eh]
	 Correlation Energy        =      -1.0826313164930088 [Eh]
	 Total Energy              =    -653.2079886704947285 [Eh]
	-----------------------------------------------------------
	 ================> DF-SCS-MP2 Energies <================== 
	-----------------------------------------------------------
	 SCS Same-Spin Scale       =       0.3333333333333333 [-]
	 SCS Opposite-Spin Scale   =       1.2000000000000000 [-]
	 SCS Same-Spin Energy      =      -0.0842530885323928 [Eh]
	 SCS Opposite-Spin Energy  =      -0.9958464610749964 [Eh]
	 SCS Correlation Energy    =      -1.0800995496073893 [Eh]
	 SCS Total Energy          =    -653.2054569036091607 [Eh]
	-----------------------------------------------------------



Properties will be evaluated at   0.000000,   0.000000,  -0.000000 [a0]

Properties computed using the MP2 density matrix

  Nuclear Dipole Moment: [e a0]
     X:     6.5166      Y:     4.4552      Z:     1.2797

  Electronic Dipole Moment: [e a0]
     X:    -6.1943      Y:    -3.2610      Z:    -0.8461

  Dipole Moment: [e a0]
     X:     0.3223      Y:     1.1942      Z:     0.4336     Total:     1.3107

  Dipole Moment: [D]
     X:     0.8193      Y:     3.0354      Z:     1.1020     Total:     3.3315


*** tstop() called on node142.bme.utexas.edu at Thu Nov  5 15:35:22 2020
Module time:
	user time   =     328.42 seconds =       5.47 minutes
	system time =       8.57 seconds =       0.14 minutes
	total time  =         56 seconds =       0.93 minutes
Total time:
	user time   =     428.82 seconds =       7.15 minutes
	system time =      12.88 seconds =       0.21 minutes
	total time  =         73 seconds =       1.22 minutes

    Psi4 stopped on: Thursday, 05 November 2020 03:35PM
    Psi4 wall time for execution: 0:01:13.18

*** Psi4 exiting successfully. Buy a developer a beer!
