
    -----------------------------------------------------------------------
          Psi4: An Open-Source Ab Initio Electronic Structure Package
                               Psi4 1.4a3.dev225 

                         Git: Rev {master} 7105e37 


    D. G. A. Smith, L. A. Burns, A. C. Simmonett, R. M. Parrish,
    M. C. Schieber, R. Galvelis, P. Kraus, H. Kruse, R. Di Remigio,
    A. Alenaizan, A. M. James, S. Lehtola, J. P. Misiewicz, M. Scheurer,
    R. A. Shaw, J. B. Schriber, Y. Xie, Z. L. Glick, D. A. Sirianni,
    J. S. O'Brien, J. M. Waldrop, A. Kumar, E. G. Hohenstein,
    B. P. Pritchard, B. R. Brooks, H. F. Schaefer III, A. Yu. Sokolov,
    K. Patkowski, A. E. DePrince III, U. Bozkaya, R. A. King,
    F. A. Evangelista, J. M. Turney, T. D. Crawford, C. D. Sherrill,
    J. Chem. Phys. 152(18) 184108 (2020). https://doi.org/10.1063/5.0006002

                            Additional Code Authors
    E. T. Seidl, C. L. Janssen, E. F. Valeev, M. L. Leininger,
    J. F. Gonthier, R. M. Richard, H. R. McAlexander, M. Saitow, X. Wang,
    P. Verma, and M. H. Lechner

             Previous Authors, Complete List of Code Contributors,
                       and Citations for Specific Modules
    https://github.com/psi4/psi4/blob/master/codemeta.json
    https://github.com/psi4/psi4/graphs/contributors
    http://psicode.org/psi4manual/master/introduction.html#citing-psifour

    -----------------------------------------------------------------------


    Psi4 started on: Sunday, 07 March 2021 06:31AM

    Process ID: 212113
    Host:       c419-121.stampede2.tacc.utexas.edu
    PSIDATADIR: /home1/07844/xy3866/miniconda3/envs/p4env/share/psi4
    Memory:     500.0 MiB
    Threads:    32
    
  ==> Input File <==

--------------------------------------------------------------------------
#psi4
#
memory 32 gb

molecule  {
1 1
  N       -2.8138210    -0.0000810     0.0131690
  C       -1.3233890    -0.0000370    -0.0148680
  C        0.7280520     1.2302730    -0.0129860
  C        0.7281180    -1.2302340    -0.0129780
  C       -0.6725800    -1.2264340    -0.0069900
  C       -0.6726490     1.2263940    -0.0069970
  C        1.3988940     0.0000390    -0.0107890
  C        1.4942690     2.5253230     0.0134310
  C        1.4944180    -2.5252350     0.0134270
  H       -1.2241800    -2.1659650    -0.0138510
  H       -1.2242990     2.1658960    -0.0138630
  H        2.4879510     0.0000680    -0.0240190
  H       -3.1956820     0.8285560    -0.4636260
  H       -3.1956410    -0.8285950    -0.4638730
  H       -3.1827690    -0.0002330     0.9749950
  H        0.8978483     3.4089807    -0.2259246
  H        1.8358100     2.7495590     1.0289260
  H        2.3762850     2.4675780    -0.6290150
  H        2.3762540    -2.4675350    -0.6292720
  H        0.8780380    -3.3605930    -0.3273260
  H        1.8362550    -2.7492930     1.0288600
units angstrom
no_reorient  #important for SAPT in psi4, default
symmetry c1  #important for SAPT in psi4, default
}

set PROPERTIES_ORIGIN ["COM"]
properties('MP2/aug-cc-pvtz', properties = ['dipole'])
--------------------------------------------------------------------------

  Memory set to  29.802 GiB by Python driver.
    SCF Algorithm Type (re)set to DF.

*** tstart() called on c419-121.stampede2.tacc.utexas.edu
*** at Sun Mar  7 06:31:30 2021

   => Loading Basis Set <=

    Name: AUG-CC-PVTZ
    Role: ORBITAL
    Keyword: BASIS
    atoms 1     entry N          line   285 file /home1/07844/xy3866/miniconda3/envs/p4env/share/psi4/basis/aug-cc-pvtz.gbs 
    atoms 2-9   entry C          line   239 file /home1/07844/xy3866/miniconda3/envs/p4env/share/psi4/basis/aug-cc-pvtz.gbs 
    atoms 10-21 entry H          line    40 file /home1/07844/xy3866/miniconda3/envs/p4env/share/psi4/basis/aug-cc-pvtz.gbs 


         ---------------------------------------------------------
                                   SCF
               by Justin Turney, Rob Parrish, Andy Simmonett
                          and Daniel G. A. Smith
                              RHF Reference
                       32 Threads,  30517 MiB Core
         ---------------------------------------------------------

  ==> Geometry <==

    Molecular point group: c1
    Full point group: C1

    Geometry (in Angstrom), charge = 1, multiplicity = 1:

       Center              X                  Y                   Z               Mass       
    ------------   -----------------  -----------------  -----------------  -----------------
         N           -2.808665532841    -0.000480161144     0.013469485508    14.003074004430
         C           -1.318233532841    -0.000436161144    -0.014567514492    12.000000000000
         C            0.733207467159     1.229873838856    -0.012685514492    12.000000000000
         C            0.733273467159    -1.230633161144    -0.012677514492    12.000000000000
         C           -0.667424532841    -1.226833161144    -0.006689514492    12.000000000000
         C           -0.667493532841     1.225994838856    -0.006696514492    12.000000000000
         C            1.404049467159    -0.000360161144    -0.010488514492    12.000000000000
         C            1.499424467159     2.524923838856     0.013731485508    12.000000000000
         C            1.499573467159    -2.525634161144     0.013727485508    12.000000000000
         H           -1.219024532841    -2.166364161144    -0.013550514492     1.007825032230
         H           -1.219143532841     2.165496838856    -0.013562514492     1.007825032230
         H            2.493106467159    -0.000331161144    -0.023718514492     1.007825032230
         H           -3.190526532841     0.828156838856    -0.463325514492     1.007825032230
         H           -3.190485532841    -0.828994161144    -0.463572514492     1.007825032230
         H           -3.177613532841    -0.000632161144     0.975295485508     1.007825032230
         H            0.903003767159     3.408581538856    -0.225624114492     1.007825032230
         H            1.840965467159     2.749159838856     1.029226485508     1.007825032230
         H            2.381440467159     2.467178838856    -0.628714514492     1.007825032230
         H            2.381409467159    -2.467934161144    -0.628971514492     1.007825032230
         H            0.883193467159    -3.360992161144    -0.327025514492     1.007825032230
         H            1.841410467159    -2.749692161144     1.029160485508     1.007825032230

  Running in c1 symmetry.

  Rotational constants: A =      0.05785  B =      0.05679  C =      0.02910 [cm^-1]
  Rotational constants: A =   1734.23867  B =   1702.41108  C =    872.43375 [MHz]
  Nuclear repulsion =  432.253165958856641

  Charge       = 1
  Multiplicity = 1
  Electrons    = 66
  Nalpha       = 33
  Nbeta        = 33

  ==> Algorithm <==

  SCF Algorithm Type is DF.
  DIIS enabled.
  MOM disabled.
  Fractional occupation disabled.
  Guess Type is SAD.
  Energy threshold   = 1.00e-10
  Density threshold  = 1.00e-10
  Integral threshold = 1.00e-12

  ==> Primary Basis <==

  Basis Set: AUG-CC-PVTZ
    Blend: AUG-CC-PVTZ
    Number of shells: 234
    Number of basis functions: 690
    Number of Cartesian functions: 795
    Spherical Harmonics?: true
    Max angular momentum: 3

   => Loading Basis Set <=

    Name: (AUG-CC-PVTZ AUX)
    Role: JKFIT
    Keyword: DF_BASIS_SCF
    atoms 1     entry N          line   224 file /home1/07844/xy3866/miniconda3/envs/p4env/share/psi4/basis/aug-cc-pvtz-jkfit.gbs 
    atoms 2-9   entry C          line   162 file /home1/07844/xy3866/miniconda3/envs/p4env/share/psi4/basis/aug-cc-pvtz-jkfit.gbs 
    atoms 10-21 entry H          line    70 file /home1/07844/xy3866/miniconda3/envs/p4env/share/psi4/basis/aug-cc-pvtz-jkfit.gbs 

  ==> Integral Setup <==

  DFHelper Memory: AOs need 4.967 GiB; user supplied 22.352 GiB. Using in-core AOs.

  ==> MemDFJK: Density-Fitted J/K Matrices <==

    J tasked:                   Yes
    K tasked:                   Yes
    wK tasked:                   No
    OpenMP threads:              32
    Memory [MiB]:             22888
    Algorithm:                 Core
    Schwarz Cutoff:           1E-12
    Mask sparsity (%):      10.1832
    Fitting Condition:        1E-10

   => Auxiliary Basis Set <=

  Basis Set: (AUG-CC-PVTZ AUX)
    Blend: AUG-CC-PVTZ-JKFIT
    Number of shells: 438
    Number of basis functions: 1488
    Number of Cartesian functions: 1839
    Spherical Harmonics?: true
    Max angular momentum: 4

  Minimum eigenvalue in the overlap matrix is 4.8661872699E-07.
  Reciprocal condition number of the overlap matrix is 2.4375668993E-08.
    Using symmetric orthogonalization.

  ==> Pre-Iterations <==

  SCF Guess: Superposition of Atomic Densities via on-the-fly atomic UHF (no occupation information).

   -------------------------
    Irrep   Nso     Nmo    
   -------------------------
     A        690     690 
   -------------------------
    Total     690     690
   -------------------------

  ==> Iterations <==

                           Total Energy        Delta E     RMS |[F,P]|

   @DF-RHF iter SAD:  -364.16517705825510   -3.64165e+02   0.00000e+00 
   @DF-RHF iter   1:  -363.97715973773376    1.88017e-01   1.00570e-03 DIIS
   @DF-RHF iter   2:  -364.24009214161401   -2.62932e-01   4.38928e-04 DIIS
   @DF-RHF iter   3:  -364.28792973626685   -4.78376e-02   1.15780e-04 DIIS
   @DF-RHF iter   4:  -364.29242932447613   -4.49959e-03   4.90429e-05 DIIS
   @DF-RHF iter   5:  -364.29313027907102   -7.00955e-04   8.16897e-06 DIIS
   @DF-RHF iter   6:  -364.29316429019883   -3.40111e-05   3.82174e-06 DIIS
   @DF-RHF iter   7:  -364.29317048952521   -6.19933e-06   1.27039e-06 DIIS
   @DF-RHF iter   8:  -364.29317235976390   -1.87024e-06   5.56698e-07 DIIS
   @DF-RHF iter   9:  -364.29317278679798   -4.27034e-07   2.91705e-07 DIIS
   @DF-RHF iter  10:  -364.29317288288109   -9.60831e-08   8.36802e-08 DIIS
   @DF-RHF iter  11:  -364.29317289190942   -9.02833e-09   2.24476e-08 DIIS
   @DF-RHF iter  12:  -364.29317289231091   -4.01485e-10   6.50054e-09 DIIS
   @DF-RHF iter  13:  -364.29317289233575   -2.48406e-11   2.27964e-09 DIIS
   @DF-RHF iter  14:  -364.29317289233603   -2.84217e-13   6.60278e-10 DIIS
   @DF-RHF iter  15:  -364.29317289233671   -6.82121e-13   2.57860e-10 DIIS
   @DF-RHF iter  16:  -364.29317289233688   -1.70530e-13   7.23294e-11 DIIS
  Energy and wave function converged.


  ==> Post-Iterations <==

    Orbital Energies [Eh]
    ---------------------

    Doubly Occupied:                                                      

       1A    -15.888697     2A    -11.458908     3A    -11.395574  
       4A    -11.394973     5A    -11.393666     6A    -11.393571  
       7A    -11.371901     8A    -11.345058     9A    -11.344813  
      10A     -1.502541    11A     -1.309319    12A     -1.204707  
      13A     -1.182110    14A     -1.083171    15A     -1.070479  
      16A     -0.988954    17A     -0.966374    18A     -0.949656  
      19A     -0.908330    20A     -0.856194    21A     -0.820555  
      22A     -0.794779    23A     -0.725206    24A     -0.717334  
      25A     -0.709079    26A     -0.689079    27A     -0.678813  
      28A     -0.655770    29A     -0.641027    30A     -0.633208  
      31A     -0.630432    32A     -0.486345    33A     -0.474778  

    Virtual:                                                              

      34A     -0.107235    35A     -0.072674    36A     -0.071208  
      37A     -0.058385    38A     -0.046361    39A     -0.042836  
      40A     -0.042088    41A     -0.039752    42A     -0.035169  
      43A     -0.030140    44A     -0.022014    45A     -0.018389  
      46A     -0.017728    47A     -0.013971    48A     -0.001145  
      49A      0.004038    50A      0.005253    51A      0.007371  
      52A      0.012936    53A      0.017871    54A      0.027076  
      55A      0.027502    56A      0.028691    57A      0.034876  
      58A      0.035059    59A      0.041336    60A      0.043927  
      61A      0.050063    62A      0.051664    63A      0.055972  
      64A      0.059088    65A      0.062775    66A      0.065000  
      67A      0.065614    68A      0.067685    69A      0.075273  
      70A      0.081080    71A      0.084306    72A      0.088491  
      73A      0.097197    74A      0.102844    75A      0.104422  
      76A      0.106713    77A      0.117269    78A      0.129121  
      79A      0.129789    80A      0.131927    81A      0.143124  
      82A      0.149152    83A      0.150506    84A      0.155340  
      85A      0.161244    86A      0.163819    87A      0.169379  
      88A      0.173369    89A      0.176882    90A      0.189542  
      91A      0.190912    92A      0.196913    93A      0.203484  
      94A      0.204847    95A      0.205327    96A      0.213499  
      97A      0.222306    98A      0.222687    99A      0.229504  
     100A      0.233379   101A      0.241331   102A      0.244890  
     103A      0.246257   104A      0.247383   105A      0.249486  
     106A      0.255615   107A      0.257412   108A      0.266798  
     109A      0.274844   110A      0.276231   111A      0.281576  
     112A      0.283275   113A      0.285918   114A      0.289911  
     115A      0.296639   116A      0.303403   117A      0.304283  
     118A      0.304781   119A      0.306928   120A      0.317014  
     121A      0.322263   122A      0.325783   123A      0.327856  
     124A      0.333357   125A      0.336497   126A      0.342042  
     127A      0.344122   128A      0.349455   129A      0.349730  
     130A      0.353632   131A      0.354770   132A      0.361125  
     133A      0.367559   134A      0.370258   135A      0.372199  
     136A      0.374768   137A      0.379451   138A      0.386460  
     139A      0.390182   140A      0.398574   141A      0.401724  
     142A      0.402834   143A      0.404683   144A      0.420164  
     145A      0.422417   146A      0.432069   147A      0.433267  
     148A      0.437066   149A      0.440375   150A      0.442658  
     151A      0.447062   152A      0.448959   153A      0.455853  
     154A      0.455934   155A      0.462011   156A      0.463558  
     157A      0.475288   158A      0.477924   159A      0.482655  
     160A      0.494033   161A      0.496313   162A      0.506768  
     163A      0.515948   164A      0.520542   165A      0.522893  
     166A      0.523485   167A      0.539790   168A      0.546872  
     169A      0.553618   170A      0.575164   171A      0.581551  
     172A      0.589693   173A      0.596129   174A      0.598299  
     175A      0.608477   176A      0.613594   177A      0.619911  
     178A      0.626846   179A      0.628411   180A      0.638397  
     181A      0.655531   182A      0.656676   183A      0.662073  
     184A      0.671804   185A      0.675854   186A      0.685461  
     187A      0.689872   188A      0.705014   189A      0.708062  
     190A      0.710346   191A      0.725349   192A      0.727195  
     193A      0.732743   194A      0.734907   195A      0.741011  
     196A      0.742158   197A      0.752506   198A      0.756124  
     199A      0.761473   200A      0.762216   201A      0.768616  
     202A      0.774801   203A      0.780520   204A      0.793808  
     205A      0.796564   206A      0.797259   207A      0.798746  
     208A      0.809894   209A      0.815124   210A      0.819537  
     211A      0.821257   212A      0.829013   213A      0.837521  
     214A      0.839841   215A      0.847482   216A      0.851542  
     217A      0.855462   218A      0.858550   219A      0.860827  
     220A      0.867784   221A      0.877955   222A      0.878346  
     223A      0.887592   224A      0.890006   225A      0.891526  
     226A      0.895384   227A      0.897693   228A      0.905531  
     229A      0.911015   230A      0.920306   231A      0.924308  
     232A      0.928887   233A      0.931551   234A      0.935355  
     235A      0.940356   236A      0.945933   237A      0.948609  
     238A      0.955343   239A      0.967029   240A      0.968321  
     241A      0.971290   242A      0.979305   243A      0.999840  
     244A      1.002175   245A      1.005379   246A      1.009185  
     247A      1.013827   248A      1.021885   249A      1.022552  
     250A      1.035961   251A      1.037201   252A      1.044452  
     253A      1.050995   254A      1.054194   255A      1.059218  
     256A      1.063485   257A      1.070707   258A      1.071842  
     259A      1.082420   260A      1.083749   261A      1.096284  
     262A      1.098548   263A      1.101480   264A      1.102314  
     265A      1.113051   266A      1.125208   267A      1.128900  
     268A      1.134867   269A      1.139119   270A      1.147332  
     271A      1.149390   272A      1.168059   273A      1.173736  
     274A      1.179357   275A      1.193774   276A      1.195954  
     277A      1.205100   278A      1.207789   279A      1.212470  
     280A      1.219298   281A      1.230915   282A      1.232376  
     283A      1.236475   284A      1.252363   285A      1.254282  
     286A      1.273177   287A      1.284385   288A      1.288766  
     289A      1.294114   290A      1.298933   291A      1.303476  
     292A      1.316194   293A      1.318114   294A      1.326515  
     295A      1.335509   296A      1.343162   297A      1.357532  
     298A      1.360078   299A      1.381978   300A      1.390040  
     301A      1.394379   302A      1.403074   303A      1.408850  
     304A      1.412950   305A      1.414713   306A      1.425000  
     307A      1.431182   308A      1.446309   309A      1.456861  
     310A      1.461977   311A      1.464865   312A      1.493618  
     313A      1.511138   314A      1.529850   315A      1.531445  
     316A      1.534645   317A      1.538939   318A      1.542419  
     319A      1.551149   320A      1.557679   321A      1.562529  
     322A      1.572629   323A      1.579564   324A      1.591188  
     325A      1.601127   326A      1.605417   327A      1.614488  
     328A      1.616957   329A      1.623404   330A      1.630670  
     331A      1.633952   332A      1.643770   333A      1.658203  
     334A      1.665436   335A      1.668939   336A      1.676259  
     337A      1.678424   338A      1.685740   339A      1.694496  
     340A      1.700900   341A      1.707061   342A      1.708872  
     343A      1.723000   344A      1.728209   345A      1.731745  
     346A      1.734770   347A      1.754609   348A      1.756884  
     349A      1.766051   350A      1.775854   351A      1.789369  
     352A      1.811766   353A      1.816352   354A      1.824343  
     355A      1.834186   356A      1.843514   357A      1.846044  
     358A      1.864885   359A      1.873655   360A      1.876542  
     361A      1.884083   362A      1.889685   363A      1.901577  
     364A      1.904494   365A      1.923982   366A      1.927407  
     367A      1.942146   368A      1.948209   369A      1.955430  
     370A      1.959789   371A      1.970163   372A      1.981213  
     373A      1.989250   374A      1.996156   375A      2.006510  
     376A      2.013469   377A      2.033024   378A      2.036958  
     379A      2.053046   380A      2.059651   381A      2.061211  
     382A      2.064780   383A      2.072928   384A      2.091291  
     385A      2.109861   386A      2.115474   387A      2.120255  
     388A      2.122830   389A      2.128335   390A      2.136740  
     391A      2.147814   392A      2.152925   393A      2.162309  
     394A      2.171628   395A      2.196721   396A      2.211252  
     397A      2.217075   398A      2.221705   399A      2.239927  
     400A      2.249690   401A      2.258156   402A      2.261095  
     403A      2.297188   404A      2.301368   405A      2.322452  
     406A      2.329854   407A      2.335277   408A      2.351878  
     409A      2.357585   410A      2.360280   411A      2.364322  
     412A      2.381522   413A      2.404506   414A      2.409578  
     415A      2.426109   416A      2.432430   417A      2.467077  
     418A      2.478129   419A      2.529174   420A      2.533189  
     421A      2.601276   422A      2.610497   423A      2.614406  
     424A      2.619374   425A      2.644565   426A      2.663712  
     427A      2.677610   428A      2.723227   429A      2.763398  
     430A      2.779019   431A      2.796624   432A      2.843252  
     433A      2.925931   434A      2.996132   435A      3.056775  
     436A      3.064003   437A      3.088656   438A      3.107702  
     439A      3.115061   440A      3.147992   441A      3.163055  
     442A      3.169228   443A      3.179905   444A      3.196716  
     445A      3.218184   446A      3.225718   447A      3.256631  
     448A      3.270256   449A      3.300347   450A      3.303861  
     451A      3.320405   452A      3.333931   453A      3.345264  
     454A      3.352408   455A      3.370975   456A      3.375087  
     457A      3.387083   458A      3.401150   459A      3.409891  
     460A      3.423331   461A      3.428129   462A      3.441309  
     463A      3.449407   464A      3.461161   465A      3.493083  
     466A      3.508708   467A      3.512640   468A      3.519246  
     469A      3.527849   470A      3.545140   471A      3.555028  
     472A      3.558261   473A      3.559856   474A      3.580162  
     475A      3.592153   476A      3.597543   477A      3.609880  
     478A      3.619612   479A      3.638410   480A      3.640925  
     481A      3.648595   482A      3.657580   483A      3.663357  
     484A      3.684362   485A      3.693882   486A      3.714597  
     487A      3.717549   488A      3.724512   489A      3.738404  
     490A      3.754542   491A      3.759813   492A      3.762407  
     493A      3.783648   494A      3.795127   495A      3.807622  
     496A      3.815966   497A      3.820052   498A      3.822937  
     499A      3.828617   500A      3.838508   501A      3.850476  
     502A      3.855595   503A      3.872996   504A      3.880625  
     505A      3.892836   506A      3.898287   507A      3.907818  
     508A      3.911984   509A      3.922029   510A      3.924897  
     511A      3.951919   512A      3.966221   513A      3.971294  
     514A      3.981558   515A      3.985852   516A      4.007333  
     517A      4.011664   518A      4.013399   519A      4.030017  
     520A      4.040691   521A      4.049457   522A      4.059994  
     523A      4.064400   524A      4.069135   525A      4.086451  
     526A      4.095143   527A      4.097137   528A      4.106727  
     529A      4.110171   530A      4.124801   531A      4.134023  
     532A      4.150788   533A      4.169551   534A      4.191997  
     535A      4.200305   536A      4.211024   537A      4.214531  
     538A      4.232683   539A      4.237819   540A      4.256266  
     541A      4.258527   542A      4.274152   543A      4.282837  
     544A      4.300663   545A      4.301642   546A      4.304978  
     547A      4.311265   548A      4.319058   549A      4.329075  
     550A      4.341037   551A      4.359006   552A      4.373192  
     553A      4.375636   554A      4.397696   555A      4.399572  
     556A      4.418188   557A      4.421511   558A      4.427360  
     559A      4.448825   560A      4.456202   561A      4.460142  
     562A      4.471513   563A      4.481138   564A      4.502764  
     565A      4.510625   566A      4.517699   567A      4.556881  
     568A      4.565396   569A      4.584722   570A      4.594254  
     571A      4.597435   572A      4.605193   573A      4.610846  
     574A      4.625736   575A      4.633684   576A      4.642970  
     577A      4.658140   578A      4.660536   579A      4.668784  
     580A      4.687886   581A      4.713817   582A      4.727973  
     583A      4.730011   584A      4.734879   585A      4.748623  
     586A      4.753014   587A      4.759483   588A      4.768370  
     589A      4.787745   590A      4.811380   591A      4.814122  
     592A      4.834173   593A      4.854358   594A      4.864208  
     595A      4.879818   596A      4.884641   597A      4.917380  
     598A      4.931818   599A      4.948472   600A      4.958953  
     601A      4.970265   602A      4.988545   603A      5.010390  
     604A      5.028007   605A      5.048528   606A      5.050610  
     607A      5.066510   608A      5.066955   609A      5.093359  
     610A      5.105327   611A      5.114267   612A      5.137295  
     613A      5.148265   614A      5.155726   615A      5.165350  
     616A      5.187774   617A      5.194142   618A      5.215201  
     619A      5.223332   620A      5.236991   621A      5.240833  
     622A      5.252230   623A      5.287542   624A      5.344462  
     625A      5.346249   626A      5.385526   627A      5.392335  
     628A      5.425819   629A      5.434637   630A      5.447199  
     631A      5.488674   632A      5.497814   633A      5.513693  
     634A      5.554877   635A      5.580003   636A      5.589671  
     637A      5.609694   638A      5.618273   639A      5.640067  
     640A      5.662224   641A      5.666589   642A      5.705040  
     643A      5.719080   644A      5.734375   645A      5.754424  
     646A      5.762346   647A      5.803382   648A      5.818683  
     649A      5.905685   650A      5.949942   651A      5.983260  
     652A      6.030031   653A      6.045484   654A      6.067900  
     655A      6.102273   656A      6.106028   657A      6.126808  
     658A      6.132282   659A      6.161447   660A      6.177177  
     661A      6.197352   662A      6.277014   663A      6.281864  
     664A      6.322717   665A      6.383872   666A      6.456526  
     667A      6.628102   668A      6.632900   669A      6.647024  
     670A      6.666128   671A      6.686070   672A      6.710359  
     673A      6.729083   674A      6.757104   675A      6.761607  
     676A      6.862261   677A      6.967105   678A      6.989312  
     679A      7.111879   680A      7.549240   681A      7.630182  
     682A     16.239728   683A     16.268088   684A     17.717897  
     685A     18.751588   686A     18.994732   687A     19.089216  
     688A     20.448778   689A     20.916275   690A     21.122931  

    Final Occupation by Irrep:
              A 
    DOCC [    33 ]

  @DF-RHF Final Energy:  -364.29317289233688

   => Energetics <=

    Nuclear Repulsion Energy =            432.2531659588566413
    One-Electron Energy =               -1337.7618715855494429
    Two-Electron Energy =                 541.2155327343558611
    Total Energy =                       -364.2931728923368837

Computation Completed

*** tstop() called on c419-121.stampede2.tacc.utexas.edu at Sun Mar  7 06:32:07 2021
Module time:
	user time   =     661.41 seconds =      11.02 minutes
	system time =      44.05 seconds =       0.73 minutes
	total time  =         37 seconds =       0.62 minutes
Total time:
	user time   =     661.41 seconds =      11.02 minutes
	system time =      44.05 seconds =       0.73 minutes
	total time  =         37 seconds =       0.62 minutes
   => Loading Basis Set <=

    Name: (AUG-CC-PVTZ AUX)
    Role: RIFIT
    Keyword: DF_BASIS_MP2
    atoms 1     entry N          line   206 file /home1/07844/xy3866/miniconda3/envs/p4env/share/psi4/basis/aug-cc-pvtz-ri.gbs 
    atoms 2-9   entry C          line   148 file /home1/07844/xy3866/miniconda3/envs/p4env/share/psi4/basis/aug-cc-pvtz-ri.gbs 
    atoms 10-21 entry H          line    30 file /home1/07844/xy3866/miniconda3/envs/p4env/share/psi4/basis/aug-cc-pvtz-ri.gbs 


*** tstart() called on c419-121.stampede2.tacc.utexas.edu
*** at Sun Mar  7 06:32:09 2021


  //>>>>>>>>>>>>>>>>>>>>>>>>>>>>>>>>>>>//
  //               DFMP2               //
  //<<<<<<<<<<<<<<<<<<<<<<<<<<<<<<<<<<<//

	 --------------------------------------------------------
	                          DF-MP2                         
	      2nd-Order Density-Fitted Moller-Plesset Theory     
	              RMP2 Wavefunction,  32 Threads             
	                                                         
	        Rob Parrish, Justin Turney, Andy Simmonett,      
	           Ed Hohenstein, and C. David Sherrill          
	 --------------------------------------------------------

   => Auxiliary Basis Set <=

  Basis Set: (AUG-CC-PVTZ AUX)
    Blend: AUG-CC-PVTZ-RI
    Number of shells: 420
    Number of basis functions: 1506
    Number of Cartesian functions: 1884
    Spherical Harmonics?: true
    Max angular momentum: 4

	 --------------------------------------------------------
	                 NBF =   690, NAUX =  1506
	 --------------------------------------------------------
	   CLASS    FOCC     OCC    AOCC    AVIR     VIR    FVIR
	   PAIRS       0      33      33     657     657       0
	 --------------------------------------------------------

  DFHelper Memory: AOs need 5.186 GiB; user supplied 22.352 GiB. Using in-core AOs.


         ------------------------------------------------------------
                                     CPHF                           
                                  Rob Parrish                       
         ------------------------------------------------------------

  ==> Geometry <==

    Molecular point group: c1
    Full point group: C1

    Geometry (in Angstrom), charge = 1, multiplicity = 1:

       Center              X                  Y                   Z               Mass       
    ------------   -----------------  -----------------  -----------------  -----------------
         N           -2.808665532841    -0.000480161144     0.013469485508    14.003074004430
         C           -1.318233532841    -0.000436161144    -0.014567514492    12.000000000000
         C            0.733207467159     1.229873838856    -0.012685514492    12.000000000000
         C            0.733273467159    -1.230633161144    -0.012677514492    12.000000000000
         C           -0.667424532841    -1.226833161144    -0.006689514492    12.000000000000
         C           -0.667493532841     1.225994838856    -0.006696514492    12.000000000000
         C            1.404049467159    -0.000360161144    -0.010488514492    12.000000000000
         C            1.499424467159     2.524923838856     0.013731485508    12.000000000000
         C            1.499573467159    -2.525634161144     0.013727485508    12.000000000000
         H           -1.219024532841    -2.166364161144    -0.013550514492     1.007825032230
         H           -1.219143532841     2.165496838856    -0.013562514492     1.007825032230
         H            2.493106467159    -0.000331161144    -0.023718514492     1.007825032230
         H           -3.190526532841     0.828156838856    -0.463325514492     1.007825032230
         H           -3.190485532841    -0.828994161144    -0.463572514492     1.007825032230
         H           -3.177613532841    -0.000632161144     0.975295485508     1.007825032230
         H            0.903003767159     3.408581538856    -0.225624114492     1.007825032230
         H            1.840965467159     2.749159838856     1.029226485508     1.007825032230
         H            2.381440467159     2.467178838856    -0.628714514492     1.007825032230
         H            2.381409467159    -2.467934161144    -0.628971514492     1.007825032230
         H            0.883193467159    -3.360992161144    -0.327025514492     1.007825032230
         H            1.841410467159    -2.749692161144     1.029160485508     1.007825032230

  Nuclear repulsion =  432.253165958856641
  Reference energy  = -364.293172892336884

  ==> Basis Set <==

  Basis Set: AUG-CC-PVTZ
    Blend: AUG-CC-PVTZ
    Number of shells: 234
    Number of basis functions: 690
    Number of Cartesian functions: 795
    Spherical Harmonics?: true
    Max angular momentum: 3

  ==> CGRSolver (by Rob Parrish) <==

   Number of roots    =         1
   Preconditioning    =    JACOBI
   Convergence cutoff =     1E-06
   Maximum iterations =       100

  ==> CPHFRHamiltonian (by Rob Parrish) <== 

  ==> MemDFJK: Density-Fitted J/K Matrices <==

    J tasked:                   Yes
    K tasked:                   Yes
    wK tasked:                   No
    OpenMP threads:              32
    Memory [MiB]:             22888
    Algorithm:                 Core
    Schwarz Cutoff:           1E-12
    Mask sparsity (%):       6.0328
    Fitting Condition:        1E-10

   => Auxiliary Basis Set <=

  Basis Set: (AUG-CC-PVTZ AUX)
    Blend: AUG-CC-PVTZ-JKFIT
    Number of shells: 438
    Number of basis functions: 1488
    Number of Cartesian functions: 1839
    Spherical Harmonics?: true
    Max angular momentum: 4

  ==> CPHF Iterations <==

  => Iterations <=

             Iter  Converged  Remaining    Residual
  CGR           1          0          1   7.333E-02
  CGR           2          0          1   1.727E-02
  CGR           3          0          1   9.770E-03
  CGR           4          0          1   4.681E-03
  CGR           5          0          1   1.285E-03
  CGR           6          0          1   4.674E-04
  CGR           7          0          1   1.312E-04
  CGR           8          0          1   4.798E-05
  CGR           9          0          1   1.614E-05
  CGR          10          0          1   4.029E-06
  CGR          11          1          0   9.085E-07

    CGRSolver converged.

	-----------------------------------------------------------
	 ==================> DF-MP2 Energies <==================== 
	-----------------------------------------------------------
	 Reference Energy          =    -364.2931728923368837 [Eh]
	 Singles Energy            =      -0.0000000000000000 [Eh]
	 Same-Spin Energy          =      -0.3972085294979723 [Eh]
	 Opposite-Spin Energy      =      -1.3053341073287632 [Eh]
	 Correlation Energy        =      -1.7025426368267356 [Eh]
	 Total Energy              =    -365.9957155291636468 [Eh]
	-----------------------------------------------------------
	 ================> DF-SCS-MP2 Energies <================== 
	-----------------------------------------------------------
	 SCS Same-Spin Scale       =       0.3333333333333333 [-]
	 SCS Opposite-Spin Scale   =       1.2000000000000000 [-]
	 SCS Same-Spin Energy      =      -0.1324028431659907 [Eh]
	 SCS Opposite-Spin Energy  =      -1.5664009287945158 [Eh]
	 SCS Correlation Energy    =      -1.6988037719605065 [Eh]
	 SCS Total Energy          =    -365.9919766642973968 [Eh]
	-----------------------------------------------------------



Properties will be evaluated at  -0.000000,  -0.000000,  -0.000000 [a0]

Properties computed using the MP2 density matrix

  Nuclear Dipole Moment: [e a0]
     X:     0.6904      Y:     0.0409      Z:     0.2302

  Electronic Dipole Moment: [e a0]
     X:    -3.9841      Y:    -0.0317      Z:    -0.1496

  Dipole Moment: [e a0]
     X:    -3.2937      Y:     0.0092      Z:     0.0806     Total:     3.2947

  Dipole Moment: [D]
     X:    -8.3718      Y:     0.0234      Z:     0.2049     Total:     8.3743


*** tstop() called on c419-121.stampede2.tacc.utexas.edu at Sun Mar  7 06:35:39 2021
Module time:
	user time   =    1943.60 seconds =      32.39 minutes
	system time =      59.82 seconds =       1.00 minutes
	total time  =        210 seconds =       3.50 minutes
Total time:
	user time   =    2606.06 seconds =      43.43 minutes
	system time =     103.89 seconds =       1.73 minutes
	total time  =        249 seconds =       4.15 minutes

    Psi4 stopped on: Sunday, 07 March 2021 06:35AM
    Psi4 wall time for execution: 0:04:10.13

*** Psi4 exiting successfully. Buy a developer a beer!
