
    -----------------------------------------------------------------------
          Psi4: An Open-Source Ab Initio Electronic Structure Package
                               Psi4 1.4a3.dev225 

                         Git: Rev {master} 7105e37 


    D. G. A. Smith, L. A. Burns, A. C. Simmonett, R. M. Parrish,
    M. C. Schieber, R. Galvelis, P. Kraus, H. Kruse, R. Di Remigio,
    A. Alenaizan, A. M. James, S. Lehtola, J. P. Misiewicz, M. Scheurer,
    R. A. Shaw, J. B. Schriber, Y. Xie, Z. L. Glick, D. A. Sirianni,
    J. S. O'Brien, J. M. Waldrop, A. Kumar, E. G. Hohenstein,
    B. P. Pritchard, B. R. Brooks, H. F. Schaefer III, A. Yu. Sokolov,
    K. Patkowski, A. E. DePrince III, U. Bozkaya, R. A. King,
    F. A. Evangelista, J. M. Turney, T. D. Crawford, C. D. Sherrill,
    J. Chem. Phys. 152(18) 184108 (2020). https://doi.org/10.1063/5.0006002

                            Additional Code Authors
    E. T. Seidl, C. L. Janssen, E. F. Valeev, M. L. Leininger,
    J. F. Gonthier, R. M. Richard, H. R. McAlexander, M. Saitow, X. Wang,
    P. Verma, and M. H. Lechner

             Previous Authors, Complete List of Code Contributors,
                       and Citations for Specific Modules
    https://github.com/psi4/psi4/blob/master/codemeta.json
    https://github.com/psi4/psi4/graphs/contributors
    http://psicode.org/psi4manual/master/introduction.html#citing-psifour

    -----------------------------------------------------------------------


    Psi4 started on: Sunday, 07 March 2021 09:07AM

    Process ID: 240818
    Host:       c419-121.stampede2.tacc.utexas.edu
    PSIDATADIR: /home1/07844/xy3866/miniconda3/envs/p4env/share/psi4
    Memory:     500.0 MiB
    Threads:    32
    
  ==> Input File <==

--------------------------------------------------------------------------
#psi4
#
memory 32 gb

molecule  {
1 1
  N       -2.8138210    -0.0000810     0.0131690
  C       -1.3233890    -0.0000370    -0.0148680
  C        0.7280520     1.2302730    -0.0129860
  C        0.7281180    -1.2302340    -0.0129780
  C       -0.6725800    -1.2264340    -0.0069900
  C       -0.6726490     1.2263940    -0.0069970
  C        1.4467684    -0.0877563    -0.0106322
  C        1.4942690     2.5253230     0.0134310
  C        1.4944180    -2.5252350     0.0134270
  H       -1.2241800    -2.1659650    -0.0138510
  H       -1.2242990     2.1658960    -0.0138630
  H        2.4879510     0.0000680    -0.0240190
  H       -3.1956820     0.8285560    -0.4636260
  H       -3.1956410    -0.8285950    -0.4638730
  H       -3.1827690    -0.0002330     0.9749950
  H        0.8779320     3.3605910    -0.3276200
  H        1.8358100     2.7495590     1.0289260
  H        2.3762850     2.4675780    -0.6290150
  H        2.3762540    -2.4675350    -0.6292720
  H        0.8780380    -3.3605930    -0.3273260
  H        1.8362550    -2.7492930     1.0288600
units angstrom
no_reorient  #important for SAPT in psi4, default
symmetry c1  #important for SAPT in psi4, default
}

set PROPERTIES_ORIGIN ["COM"]
properties('MP2/aug-cc-pvtz', properties = ['dipole'])
--------------------------------------------------------------------------

  Memory set to  29.802 GiB by Python driver.
    SCF Algorithm Type (re)set to DF.

*** tstart() called on c419-121.stampede2.tacc.utexas.edu
*** at Sun Mar  7 09:07:54 2021

   => Loading Basis Set <=

    Name: AUG-CC-PVTZ
    Role: ORBITAL
    Keyword: BASIS
    atoms 1     entry N          line   285 file /home1/07844/xy3866/miniconda3/envs/p4env/share/psi4/basis/aug-cc-pvtz.gbs 
    atoms 2-9   entry C          line   239 file /home1/07844/xy3866/miniconda3/envs/p4env/share/psi4/basis/aug-cc-pvtz.gbs 
    atoms 10-21 entry H          line    40 file /home1/07844/xy3866/miniconda3/envs/p4env/share/psi4/basis/aug-cc-pvtz.gbs 


         ---------------------------------------------------------
                                   SCF
               by Justin Turney, Rob Parrish, Andy Simmonett
                          and Daniel G. A. Smith
                              RHF Reference
                       32 Threads,  30517 MiB Core
         ---------------------------------------------------------

  ==> Geometry <==

    Molecular point group: c1
    Full point group: C1

    Geometry (in Angstrom), charge = 1, multiplicity = 1:

       Center              X                  Y                   Z               Mass       
    ------------   -----------------  -----------------  -----------------  -----------------
         N           -2.813206355061     0.008548006478     0.014293499128    14.003074004430
         C           -1.322774355061     0.008592006478    -0.013743500872    12.000000000000
         C            0.728666644939     1.238902006478    -0.011861500872    12.000000000000
         C            0.728732644939    -1.221604993522    -0.011853500872    12.000000000000
         C           -0.671965355061    -1.217804993522    -0.005865500872    12.000000000000
         C           -0.672034355061     1.235023006478    -0.005872500872    12.000000000000
         C            1.447383044939    -0.079127293522    -0.009507700872    12.000000000000
         C            1.494883644939     2.533952006478     0.014555499128    12.000000000000
         C            1.495032644939    -2.516605993522     0.014551499128    12.000000000000
         H           -1.223565355061    -2.157335993522    -0.012726500872     1.007825032230
         H           -1.223684355061     2.174525006478    -0.012738500872     1.007825032230
         H            2.488565644939     0.008697006478    -0.022894500872     1.007825032230
         H           -3.195067355061     0.837185006478    -0.462501500872     1.007825032230
         H           -3.195026355061    -0.819965993522    -0.462748500872     1.007825032230
         H           -3.182154355061     0.008396006478     0.976119499128     1.007825032230
         H            0.878546644939     3.369220006478    -0.326495500872     1.007825032230
         H            1.836424644939     2.758188006478     1.030050499128     1.007825032230
         H            2.376899644939     2.476207006478    -0.627890500872     1.007825032230
         H            2.376868644939    -2.458905993522    -0.628147500872     1.007825032230
         H            0.878652644939    -3.351963993522    -0.326201500872     1.007825032230
         H            1.836869644939    -2.740663993522     1.029984499128     1.007825032230

  Running in c1 symmetry.

  Rotational constants: A =      0.05795  B =      0.05641  C =      0.02903 [cm^-1]
  Rotational constants: A =   1737.18303  B =   1691.22793  C =    870.39750 [MHz]
  Nuclear repulsion =  431.625527096252370

  Charge       = 1
  Multiplicity = 1
  Electrons    = 66
  Nalpha       = 33
  Nbeta        = 33

  ==> Algorithm <==

  SCF Algorithm Type is DF.
  DIIS enabled.
  MOM disabled.
  Fractional occupation disabled.
  Guess Type is SAD.
  Energy threshold   = 1.00e-10
  Density threshold  = 1.00e-10
  Integral threshold = 1.00e-12

  ==> Primary Basis <==

  Basis Set: AUG-CC-PVTZ
    Blend: AUG-CC-PVTZ
    Number of shells: 234
    Number of basis functions: 690
    Number of Cartesian functions: 795
    Spherical Harmonics?: true
    Max angular momentum: 3

   => Loading Basis Set <=

    Name: (AUG-CC-PVTZ AUX)
    Role: JKFIT
    Keyword: DF_BASIS_SCF
    atoms 1     entry N          line   224 file /home1/07844/xy3866/miniconda3/envs/p4env/share/psi4/basis/aug-cc-pvtz-jkfit.gbs 
    atoms 2-9   entry C          line   162 file /home1/07844/xy3866/miniconda3/envs/p4env/share/psi4/basis/aug-cc-pvtz-jkfit.gbs 
    atoms 10-21 entry H          line    70 file /home1/07844/xy3866/miniconda3/envs/p4env/share/psi4/basis/aug-cc-pvtz-jkfit.gbs 

  ==> Integral Setup <==

  DFHelper Memory: AOs need 4.967 GiB; user supplied 22.352 GiB. Using in-core AOs.

  ==> MemDFJK: Density-Fitted J/K Matrices <==

    J tasked:                   Yes
    K tasked:                   Yes
    wK tasked:                   No
    OpenMP threads:              32
    Memory [MiB]:             22888
    Algorithm:                 Core
    Schwarz Cutoff:           1E-12
    Mask sparsity (%):      10.1655
    Fitting Condition:        1E-10

   => Auxiliary Basis Set <=

  Basis Set: (AUG-CC-PVTZ AUX)
    Blend: AUG-CC-PVTZ-JKFIT
    Number of shells: 438
    Number of basis functions: 1488
    Number of Cartesian functions: 1839
    Spherical Harmonics?: true
    Max angular momentum: 4

  Minimum eigenvalue in the overlap matrix is 5.3900204843E-07.
  Reciprocal condition number of the overlap matrix is 2.7005290784E-08.
    Using symmetric orthogonalization.

  ==> Pre-Iterations <==

  SCF Guess: Superposition of Atomic Densities via on-the-fly atomic UHF (no occupation information).

   -------------------------
    Irrep   Nso     Nmo    
   -------------------------
     A        690     690 
   -------------------------
    Total     690     690
   -------------------------

  ==> Iterations <==

                           Total Energy        Delta E     RMS |[F,P]|

   @DF-RHF iter SAD:  -364.11594465216797   -3.64116e+02   0.00000e+00 
   @DF-RHF iter   1:  -363.96719342551597    1.48751e-01   1.00480e-03 DIIS
   @DF-RHF iter   2:  -364.23032544574119   -2.63132e-01   4.35342e-04 DIIS
   @DF-RHF iter   3:  -364.27734665353370   -4.70212e-02   1.16525e-04 DIIS
   @DF-RHF iter   4:  -364.28188651510300   -4.53986e-03   4.95412e-05 DIIS
   @DF-RHF iter   5:  -364.28260954810162   -7.23033e-04   8.29112e-06 DIIS
   @DF-RHF iter   6:  -364.28264753444898   -3.79863e-05   4.06683e-06 DIIS
   @DF-RHF iter   7:  -364.28265534148113   -7.80703e-06   1.42613e-06 DIIS
   @DF-RHF iter   8:  -364.28265809604858   -2.75457e-06   6.51707e-07 DIIS
   @DF-RHF iter   9:  -364.28265866448578   -5.68437e-07   3.22523e-07 DIIS
   @DF-RHF iter  10:  -364.28265879287216   -1.28386e-07   1.15213e-07 DIIS
   @DF-RHF iter  11:  -364.28265880519274   -1.23206e-08   4.00076e-08 DIIS
   @DF-RHF iter  12:  -364.28265880624514   -1.05240e-09   1.50762e-08 DIIS
   @DF-RHF iter  13:  -364.28265880640362   -1.58479e-10   4.68532e-09 DIIS
   @DF-RHF iter  14:  -364.28265880643090   -2.72848e-11   2.10661e-09 DIIS
   @DF-RHF iter  15:  -364.28265880643664   -5.74119e-12   1.12606e-09 DIIS
   @DF-RHF iter  16:  -364.28265880643966   -3.01270e-12   3.89750e-10 DIIS
   @DF-RHF iter  17:  -364.28265880644017   -5.11591e-13   1.05797e-10 DIIS
   @DF-RHF iter  18:  -364.28265880644119   -1.02318e-12   4.76511e-11 DIIS
  Energy and wave function converged.


  ==> Post-Iterations <==

    Orbital Energies [Eh]
    ---------------------

    Doubly Occupied:                                                      

       1A    -15.889086     2A    -11.460180     3A    -11.406181  
       4A    -11.396452     5A    -11.391154     6A    -11.386071  
       7A    -11.372355     8A    -11.347074     9A    -11.341017  
      10A     -1.502982    11A     -1.306193    12A     -1.205523  
      13A     -1.180675    14A     -1.083982    15A     -1.066970  
      16A     -0.992250    17A     -0.964301    18A     -0.950043  
      19A     -0.903319    20A     -0.855878    21A     -0.828712  
      22A     -0.793301    23A     -0.724589    24A     -0.714733  
      25A     -0.709469    26A     -0.690136    27A     -0.686940  
      28A     -0.656701    29A     -0.649954    30A     -0.633402  
      31A     -0.611670    32A     -0.489570    33A     -0.469577  

    Virtual:                                                              

      34A     -0.107345    35A     -0.073013    36A     -0.071215  
      37A     -0.058397    38A     -0.049952    39A     -0.042568  
      40A     -0.042001    41A     -0.039239    42A     -0.035053  
      43A     -0.030412    44A     -0.022144    45A     -0.018397  
      46A     -0.017585    47A     -0.013618    48A     -0.000845  
      49A      0.003708    50A      0.005150    51A      0.007260  
      52A      0.013346    53A      0.017852    54A      0.026662  
      55A      0.027574    56A      0.028425    57A      0.034956  
      58A      0.035155    59A      0.041142    60A      0.044445  
      61A      0.049639    62A      0.051556    63A      0.055932  
      64A      0.058979    65A      0.063271    66A      0.064907  
      67A      0.065490    68A      0.067128    69A      0.075618  
      70A      0.081051    71A      0.084656    72A      0.088641  
      73A      0.096845    74A      0.103185    75A      0.104801  
      76A      0.106273    77A      0.119860    78A      0.127909  
      79A      0.130273    80A      0.131025    81A      0.142362  
      82A      0.148690    83A      0.149720    84A      0.155021  
      85A      0.160793    86A      0.163297    87A      0.168756  
      88A      0.172249    89A      0.176443    90A      0.187607  
      91A      0.191093    92A      0.196732    93A      0.202966  
      94A      0.204539    95A      0.205245    96A      0.215846  
      97A      0.221563    98A      0.224188    99A      0.229430  
     100A      0.233102   101A      0.241077   102A      0.245310  
     103A      0.246388   104A      0.247759   105A      0.248565  
     106A      0.253149   107A      0.257316   108A      0.266554  
     109A      0.274716   110A      0.275968   111A      0.280941  
     112A      0.282296   113A      0.285942   114A      0.290407  
     115A      0.295211   116A      0.301280   117A      0.305269  
     118A      0.305533   119A      0.307920   120A      0.316551  
     121A      0.320203   122A      0.327074   123A      0.327750  
     124A      0.333604   125A      0.335733   126A      0.340239  
     127A      0.345339   128A      0.348639   129A      0.351945  
     130A      0.353683   131A      0.355090   132A      0.360114  
     133A      0.365876   134A      0.369604   135A      0.371821  
     136A      0.374123   137A      0.382388   138A      0.386639  
     139A      0.391731   140A      0.398295   141A      0.400980  
     142A      0.402603   143A      0.405676   144A      0.418467  
     145A      0.421267   146A      0.432611   147A      0.432952  
     148A      0.435575   149A      0.436961   150A      0.443879  
     151A      0.446820   152A      0.448481   153A      0.453361  
     154A      0.454745   155A      0.461897   156A      0.462753  
     157A      0.470391   158A      0.479325   159A      0.481748  
     160A      0.493340   161A      0.497917   162A      0.506071  
     163A      0.514086   164A      0.518632   165A      0.520971  
     166A      0.524136   167A      0.539282   168A      0.547351  
     169A      0.553236   170A      0.575836   171A      0.581446  
     172A      0.592542   173A      0.595256   174A      0.598454  
     175A      0.605761   176A      0.607479   177A      0.621893  
     178A      0.625232   179A      0.628754   180A      0.634569  
     181A      0.652956   182A      0.655821   183A      0.661938  
     184A      0.671857   185A      0.676650   186A      0.684086  
     187A      0.688045   188A      0.703175   189A      0.707697  
     190A      0.711455   191A      0.724635   192A      0.730420  
     193A      0.733512   194A      0.736006   195A      0.740361  
     196A      0.742197   197A      0.752297   198A      0.756493  
     199A      0.760238   200A      0.761732   201A      0.768915  
     202A      0.775427   203A      0.779832   204A      0.793040  
     205A      0.795589   206A      0.796869   207A      0.801615  
     208A      0.809786   209A      0.814757   210A      0.818220  
     211A      0.825049   212A      0.828773   213A      0.838118  
     214A      0.840488   215A      0.848128   216A      0.853221  
     217A      0.853916   218A      0.861288   219A      0.862544  
     220A      0.870497   221A      0.878188   222A      0.881999  
     223A      0.888499   224A      0.890380   225A      0.891420  
     226A      0.894311   227A      0.895912   228A      0.906311  
     229A      0.912604   230A      0.919212   231A      0.921918  
     232A      0.929721   233A      0.931736   234A      0.934278  
     235A      0.938016   236A      0.942589   237A      0.946839  
     238A      0.956092   239A      0.966130   240A      0.967896  
     241A      0.971714   242A      0.975928   243A      0.999127  
     244A      1.003333   245A      1.006486   246A      1.008423  
     247A      1.012801   248A      1.020397   249A      1.021965  
     250A      1.032073   251A      1.039840   252A      1.045733  
     253A      1.050071   254A      1.053092   255A      1.063075  
     256A      1.066206   257A      1.069798   258A      1.071186  
     259A      1.083941   260A      1.085553   261A      1.094208  
     262A      1.097511   263A      1.102931   264A      1.105217  
     265A      1.114547   266A      1.122918   267A      1.127757  
     268A      1.134532   269A      1.140432   270A      1.145898  
     271A      1.154788   272A      1.164505   273A      1.172963  
     274A      1.177011   275A      1.193023   276A      1.195437  
     277A      1.196547   278A      1.206971   279A      1.212902  
     280A      1.223177   281A      1.231489   282A      1.235361  
     283A      1.236894   284A      1.248186   285A      1.264296  
     286A      1.270851   287A      1.281043   288A      1.290186  
     289A      1.294383   290A      1.297964   291A      1.304692  
     292A      1.313925   293A      1.321933   294A      1.329023  
     295A      1.341625   296A      1.342824   297A      1.357783  
     298A      1.361911   299A      1.381463   300A      1.384973  
     301A      1.388938   302A      1.401754   303A      1.409950  
     304A      1.412166   305A      1.417858   306A      1.429050  
     307A      1.430282   308A      1.448359   309A      1.454914  
     310A      1.462122   311A      1.464579   312A      1.496023  
     313A      1.509851   314A      1.529678   315A      1.531573  
     316A      1.536970   317A      1.537655   318A      1.546589  
     319A      1.553098   320A      1.555561   321A      1.561336  
     322A      1.577504   323A      1.580328   324A      1.588359  
     325A      1.598848   326A      1.603529   327A      1.613727  
     328A      1.617312   329A      1.623766   330A      1.631440  
     331A      1.634202   332A      1.643025   333A      1.654257  
     334A      1.665838   335A      1.669334   336A      1.671778  
     337A      1.678981   338A      1.688209   339A      1.699955  
     340A      1.702241   341A      1.705842   342A      1.710113  
     343A      1.717988   344A      1.724795   345A      1.726470  
     346A      1.732321   347A      1.750880   348A      1.756059  
     349A      1.761471   350A      1.772141   351A      1.789452  
     352A      1.810255   353A      1.815636   354A      1.822570  
     355A      1.834568   356A      1.843548   357A      1.847910  
     358A      1.860226   359A      1.872652   360A      1.878419  
     361A      1.884794   362A      1.894820   363A      1.902133  
     364A      1.907881   365A      1.922111   366A      1.928333  
     367A      1.941397   368A      1.950271   369A      1.956525  
     370A      1.960690   371A      1.970514   372A      1.975997  
     373A      1.986402   374A      1.994560   375A      2.001740  
     376A      2.015246   377A      2.026277   378A      2.039163  
     379A      2.049246   380A      2.055908   381A      2.060191  
     382A      2.068151   383A      2.068975   384A      2.092811  
     385A      2.103479   386A      2.114463   387A      2.118516  
     388A      2.121603   389A      2.128506   390A      2.133273  
     391A      2.136829   392A      2.154885   393A      2.165302  
     394A      2.173005   395A      2.190926   396A      2.213086  
     397A      2.216721   398A      2.222343   399A      2.232299  
     400A      2.245444   401A      2.254570   402A      2.259508  
     403A      2.288848   404A      2.302119   405A      2.321027  
     406A      2.325702   407A      2.335143   408A      2.351005  
     409A      2.355440   410A      2.361914   411A      2.368255  
     412A      2.385847   413A      2.396596   414A      2.412973  
     415A      2.422988   416A      2.431977   417A      2.464397  
     418A      2.470907   419A      2.514461   420A      2.532771  
     421A      2.574247   422A      2.592633   423A      2.610040  
     424A      2.620415   425A      2.636425   426A      2.643933  
     427A      2.662423   428A      2.679862   429A      2.769396  
     430A      2.789891   431A      2.813692   432A      2.838206  
     433A      2.921645   434A      2.988893   435A      3.056516  
     436A      3.060680   437A      3.080059   438A      3.103930  
     439A      3.117974   440A      3.134289   441A      3.149348  
     442A      3.168775   443A      3.181149   444A      3.197691  
     445A      3.218005   446A      3.224945   447A      3.267842  
     448A      3.277667   449A      3.296857   450A      3.309687  
     451A      3.320742   452A      3.332022   453A      3.348296  
     454A      3.351818   455A      3.362123   456A      3.374195  
     457A      3.385847   458A      3.387110   459A      3.406326  
     460A      3.419304   461A      3.428978   462A      3.437767  
     463A      3.451207   464A      3.460301   465A      3.481231  
     466A      3.507787   467A      3.509340   468A      3.519690  
     469A      3.529394   470A      3.550597   471A      3.555336  
     472A      3.559335   473A      3.569151   474A      3.578604  
     475A      3.593642   476A      3.595641   477A      3.604280  
     478A      3.619859   479A      3.635164   480A      3.639424  
     481A      3.644567   482A      3.659830   483A      3.667772  
     484A      3.680088   485A      3.697704   486A      3.717536  
     487A      3.723179   488A      3.728246   489A      3.742563  
     490A      3.747640   491A      3.761327   492A      3.767592  
     493A      3.782017   494A      3.796303   495A      3.799389  
     496A      3.816830   497A      3.820051   498A      3.823304  
     499A      3.831084   500A      3.836172   501A      3.850033  
     502A      3.859888   503A      3.877343   504A      3.879853  
     505A      3.892690   506A      3.897345   507A      3.906244  
     508A      3.911206   509A      3.914176   510A      3.922236  
     511A      3.946110   512A      3.958371   513A      3.964163  
     514A      3.978074   515A      3.988924   516A      4.000102  
     517A      4.005655   518A      4.015019   519A      4.030090  
     520A      4.043436   521A      4.049854   522A      4.056736  
     523A      4.059666   524A      4.061779   525A      4.082104  
     526A      4.091893   527A      4.097538   528A      4.108333  
     529A      4.113510   530A      4.122452   531A      4.141172  
     532A      4.144553   533A      4.164088   534A      4.187487  
     535A      4.195894   536A      4.198701   537A      4.209785  
     538A      4.230682   539A      4.245593   540A      4.248698  
     541A      4.261005   542A      4.274519   543A      4.277570  
     544A      4.293399   545A      4.296395   546A      4.305780  
     547A      4.306710   548A      4.319835   549A      4.325004  
     550A      4.338706   551A      4.352160   552A      4.370034  
     553A      4.381802   554A      4.386578   555A      4.408579  
     556A      4.415044   557A      4.422857   558A      4.428881  
     559A      4.442476   560A      4.448290   561A      4.456691  
     562A      4.469255   563A      4.480546   564A      4.504185  
     565A      4.510849   566A      4.516752   567A      4.545766  
     568A      4.560203   569A      4.579557   570A      4.589842  
     571A      4.596175   572A      4.604142   573A      4.612447  
     574A      4.625045   575A      4.629267   576A      4.639829  
     577A      4.653999   578A      4.658041   579A      4.674575  
     580A      4.683393   581A      4.700003   582A      4.720176  
     583A      4.729298   584A      4.736702   585A      4.743201  
     586A      4.752795   587A      4.767974   588A      4.773113  
     589A      4.788149   590A      4.797388   591A      4.809417  
     592A      4.831616   593A      4.850662   594A      4.874694  
     595A      4.884153   596A      4.886908   597A      4.921725  
     598A      4.932062   599A      4.942767   600A      4.959482  
     601A      4.978144   602A      4.991818   603A      5.021902  
     604A      5.026783   605A      5.033104   606A      5.053064  
     607A      5.070684   608A      5.080400   609A      5.094126  
     610A      5.111481   611A      5.115788   612A      5.139113  
     613A      5.143021   614A      5.163050   615A      5.180178  
     616A      5.190997   617A      5.205777   618A      5.217066  
     619A      5.227398   620A      5.238880   621A      5.253130  
     622A      5.274734   623A      5.307718   624A      5.340749  
     625A      5.346154   626A      5.399086   627A      5.416681  
     628A      5.424906   629A      5.431153   630A      5.472363  
     631A      5.490332   632A      5.525802   633A      5.535316  
     634A      5.560639   635A      5.578037   636A      5.601888  
     637A      5.609887   638A      5.624997   639A      5.644150  
     640A      5.651132   641A      5.666163   642A      5.686322  
     643A      5.710562   644A      5.736576   645A      5.758102  
     646A      5.784633   647A      5.809408   648A      5.816295  
     649A      5.924118   650A      5.949357   651A      5.985147  
     652A      6.031342   653A      6.045059   654A      6.061940  
     655A      6.088600   656A      6.101867   657A      6.105968  
     658A      6.120182   659A      6.137455   660A      6.155462  
     661A      6.190375   662A      6.273300   663A      6.300920  
     664A      6.321326   665A      6.345382   666A      6.454885  
     667A      6.616888   668A      6.626519   669A      6.637992  
     670A      6.663127   671A      6.678637   672A      6.717747  
     673A      6.735048   674A      6.751048   675A      6.805292  
     676A      6.863629   677A      6.954886   678A      6.981746  
     679A      7.087694   680A      7.549291   681A      7.628901  
     682A     15.975967   683A     16.626202   684A     17.717708  
     685A     18.751472   686A     18.911681   687A     19.120955  
     688A     20.391385   689A     20.904070   690A     21.123274  

    Final Occupation by Irrep:
              A 
    DOCC [    33 ]

  @DF-RHF Final Energy:  -364.28265880644119

   => Energetics <=

    Nuclear Repulsion Energy =            431.6255270962523696
    One-Electron Energy =               -1336.4954954519612329
    Two-Electron Energy =                 540.5873095492676157
    Total Energy =                       -364.2826588064411908

Computation Completed

*** tstop() called on c419-121.stampede2.tacc.utexas.edu at Sun Mar  7 09:08:32 2021
Module time:
	user time   =     707.66 seconds =      11.79 minutes
	system time =      46.85 seconds =       0.78 minutes
	total time  =         38 seconds =       0.63 minutes
Total time:
	user time   =     707.66 seconds =      11.79 minutes
	system time =      46.85 seconds =       0.78 minutes
	total time  =         38 seconds =       0.63 minutes
   => Loading Basis Set <=

    Name: (AUG-CC-PVTZ AUX)
    Role: RIFIT
    Keyword: DF_BASIS_MP2
    atoms 1     entry N          line   206 file /home1/07844/xy3866/miniconda3/envs/p4env/share/psi4/basis/aug-cc-pvtz-ri.gbs 
    atoms 2-9   entry C          line   148 file /home1/07844/xy3866/miniconda3/envs/p4env/share/psi4/basis/aug-cc-pvtz-ri.gbs 
    atoms 10-21 entry H          line    30 file /home1/07844/xy3866/miniconda3/envs/p4env/share/psi4/basis/aug-cc-pvtz-ri.gbs 


*** tstart() called on c419-121.stampede2.tacc.utexas.edu
*** at Sun Mar  7 09:08:33 2021


  //>>>>>>>>>>>>>>>>>>>>>>>>>>>>>>>>>>>//
  //               DFMP2               //
  //<<<<<<<<<<<<<<<<<<<<<<<<<<<<<<<<<<<//

	 --------------------------------------------------------
	                          DF-MP2                         
	      2nd-Order Density-Fitted Moller-Plesset Theory     
	              RMP2 Wavefunction,  32 Threads             
	                                                         
	        Rob Parrish, Justin Turney, Andy Simmonett,      
	           Ed Hohenstein, and C. David Sherrill          
	 --------------------------------------------------------

   => Auxiliary Basis Set <=

  Basis Set: (AUG-CC-PVTZ AUX)
    Blend: AUG-CC-PVTZ-RI
    Number of shells: 420
    Number of basis functions: 1506
    Number of Cartesian functions: 1884
    Spherical Harmonics?: true
    Max angular momentum: 4

	 --------------------------------------------------------
	                 NBF =   690, NAUX =  1506
	 --------------------------------------------------------
	   CLASS    FOCC     OCC    AOCC    AVIR     VIR    FVIR
	   PAIRS       0      33      33     657     657       0
	 --------------------------------------------------------

  DFHelper Memory: AOs need 5.186 GiB; user supplied 22.352 GiB. Using in-core AOs.


         ------------------------------------------------------------
                                     CPHF                           
                                  Rob Parrish                       
         ------------------------------------------------------------

  ==> Geometry <==

    Molecular point group: c1
    Full point group: C1

    Geometry (in Angstrom), charge = 1, multiplicity = 1:

       Center              X                  Y                   Z               Mass       
    ------------   -----------------  -----------------  -----------------  -----------------
         N           -2.813206355061     0.008548006478     0.014293499128    14.003074004430
         C           -1.322774355061     0.008592006478    -0.013743500872    12.000000000000
         C            0.728666644939     1.238902006478    -0.011861500872    12.000000000000
         C            0.728732644939    -1.221604993522    -0.011853500872    12.000000000000
         C           -0.671965355061    -1.217804993522    -0.005865500872    12.000000000000
         C           -0.672034355061     1.235023006478    -0.005872500872    12.000000000000
         C            1.447383044939    -0.079127293522    -0.009507700872    12.000000000000
         C            1.494883644939     2.533952006478     0.014555499128    12.000000000000
         C            1.495032644939    -2.516605993522     0.014551499128    12.000000000000
         H           -1.223565355061    -2.157335993522    -0.012726500872     1.007825032230
         H           -1.223684355061     2.174525006478    -0.012738500872     1.007825032230
         H            2.488565644939     0.008697006478    -0.022894500872     1.007825032230
         H           -3.195067355061     0.837185006478    -0.462501500872     1.007825032230
         H           -3.195026355061    -0.819965993522    -0.462748500872     1.007825032230
         H           -3.182154355061     0.008396006478     0.976119499128     1.007825032230
         H            0.878546644939     3.369220006478    -0.326495500872     1.007825032230
         H            1.836424644939     2.758188006478     1.030050499128     1.007825032230
         H            2.376899644939     2.476207006478    -0.627890500872     1.007825032230
         H            2.376868644939    -2.458905993522    -0.628147500872     1.007825032230
         H            0.878652644939    -3.351963993522    -0.326201500872     1.007825032230
         H            1.836869644939    -2.740663993522     1.029984499128     1.007825032230

  Nuclear repulsion =  431.625527096252370
  Reference energy  = -364.282658806441191

  ==> Basis Set <==

  Basis Set: AUG-CC-PVTZ
    Blend: AUG-CC-PVTZ
    Number of shells: 234
    Number of basis functions: 690
    Number of Cartesian functions: 795
    Spherical Harmonics?: true
    Max angular momentum: 3

  ==> CGRSolver (by Rob Parrish) <==

   Number of roots    =         1
   Preconditioning    =    JACOBI
   Convergence cutoff =     1E-06
   Maximum iterations =       100

  ==> CPHFRHamiltonian (by Rob Parrish) <== 

  ==> MemDFJK: Density-Fitted J/K Matrices <==

    J tasked:                   Yes
    K tasked:                   Yes
    wK tasked:                   No
    OpenMP threads:              32
    Memory [MiB]:             22888
    Algorithm:                 Core
    Schwarz Cutoff:           1E-12
    Mask sparsity (%):       6.0332
    Fitting Condition:        1E-10

   => Auxiliary Basis Set <=

  Basis Set: (AUG-CC-PVTZ AUX)
    Blend: AUG-CC-PVTZ-JKFIT
    Number of shells: 438
    Number of basis functions: 1488
    Number of Cartesian functions: 1839
    Spherical Harmonics?: true
    Max angular momentum: 4

  ==> CPHF Iterations <==

  => Iterations <=

             Iter  Converged  Remaining    Residual
  CGR           1          0          1   7.793E-02
  CGR           2          0          1   2.418E-02
  CGR           3          0          1   1.494E-02
  CGR           4          0          1   5.630E-03
  CGR           5          0          1   1.714E-03
  CGR           6          0          1   6.613E-04
  CGR           7          0          1   2.177E-04
  CGR           8          0          1   1.146E-04
  CGR           9          0          1   5.009E-05
  CGR          10          0          1   2.011E-05
  CGR          11          0          1   6.076E-06
  CGR          12          0          1   2.479E-06
  CGR          13          1          0   6.009E-07

    CGRSolver converged.

	-----------------------------------------------------------
	 ==================> DF-MP2 Energies <==================== 
	-----------------------------------------------------------
	 Reference Energy          =    -364.2826588064411908 [Eh]
	 Singles Energy            =      -0.0000000000000000 [Eh]
	 Same-Spin Energy          =      -0.3969243858965311 [Eh]
	 Opposite-Spin Energy      =      -1.3058275325168567 [Eh]
	 Correlation Energy        =      -1.7027519184133877 [Eh]
	 Total Energy              =    -365.9854107248546029 [Eh]
	-----------------------------------------------------------
	 ================> DF-SCS-MP2 Energies <================== 
	-----------------------------------------------------------
	 SCS Same-Spin Scale       =       0.3333333333333333 [-]
	 SCS Opposite-Spin Scale   =       1.2000000000000000 [-]
	 SCS Same-Spin Energy      =      -0.1323081286321770 [Eh]
	 SCS Opposite-Spin Energy  =      -1.5669930390202280 [Eh]
	 SCS Correlation Energy    =      -1.6993011676524050 [Eh]
	 SCS Total Energy          =    -365.9819599740935701 [Eh]
	-----------------------------------------------------------



Properties will be evaluated at  -0.000000,  -0.000000,  -0.000000 [a0]

Properties computed using the MP2 density matrix

  Nuclear Dipole Moment: [e a0]
     X:     0.6206      Y:     0.0971      Z:     0.1442

  Electronic Dipole Moment: [e a0]
     X:    -3.9170      Y:    -0.0334      Z:    -0.0772

  Dipole Moment: [e a0]
     X:    -3.2964      Y:     0.0636      Z:     0.0670     Total:     3.2977

  Dipole Moment: [D]
     X:    -8.3785      Y:     0.1618      Z:     0.1703     Total:     8.3818


*** tstop() called on c419-121.stampede2.tacc.utexas.edu at Sun Mar  7 09:12:05 2021
Module time:
	user time   =    1985.62 seconds =      33.09 minutes
	system time =      61.92 seconds =       1.03 minutes
	total time  =        212 seconds =       3.53 minutes
Total time:
	user time   =    2694.28 seconds =      44.90 minutes
	system time =     108.81 seconds =       1.81 minutes
	total time  =        251 seconds =       4.18 minutes

    Psi4 stopped on: Sunday, 07 March 2021 09:12AM
    Psi4 wall time for execution: 0:04:12.66

*** Psi4 exiting successfully. Buy a developer a beer!
