
    -----------------------------------------------------------------------
          Psi4: An Open-Source Ab Initio Electronic Structure Package
                               Psi4 1.4a3.dev225 

                         Git: Rev {master} 7105e37 


    D. G. A. Smith, L. A. Burns, A. C. Simmonett, R. M. Parrish,
    M. C. Schieber, R. Galvelis, P. Kraus, H. Kruse, R. Di Remigio,
    A. Alenaizan, A. M. James, S. Lehtola, J. P. Misiewicz, M. Scheurer,
    R. A. Shaw, J. B. Schriber, Y. Xie, Z. L. Glick, D. A. Sirianni,
    J. S. O'Brien, J. M. Waldrop, A. Kumar, E. G. Hohenstein,
    B. P. Pritchard, B. R. Brooks, H. F. Schaefer III, A. Yu. Sokolov,
    K. Patkowski, A. E. DePrince III, U. Bozkaya, R. A. King,
    F. A. Evangelista, J. M. Turney, T. D. Crawford, C. D. Sherrill,
    J. Chem. Phys. 152(18) 184108 (2020). https://doi.org/10.1063/5.0006002

                            Additional Code Authors
    E. T. Seidl, C. L. Janssen, E. F. Valeev, M. L. Leininger,
    J. F. Gonthier, R. M. Richard, H. R. McAlexander, M. Saitow, X. Wang,
    P. Verma, and M. H. Lechner

             Previous Authors, Complete List of Code Contributors,
                       and Citations for Specific Modules
    https://github.com/psi4/psi4/blob/master/codemeta.json
    https://github.com/psi4/psi4/graphs/contributors
    http://psicode.org/psi4manual/master/introduction.html#citing-psifour

    -----------------------------------------------------------------------


    Psi4 started on: Sunday, 07 March 2021 08:33AM

    Process ID: 234429
    Host:       c419-121.stampede2.tacc.utexas.edu
    PSIDATADIR: /home1/07844/xy3866/miniconda3/envs/p4env/share/psi4
    Memory:     500.0 MiB
    Threads:    32
    
  ==> Input File <==

--------------------------------------------------------------------------
#psi4
#
memory 32 gb

molecule  {
1 1
  N       -2.8138210    -0.0000810     0.0131690
  C       -1.3286231    -0.0000602     0.1410782
  C        0.7280520     1.2302730    -0.0129860
  C        0.7281180    -1.2302340    -0.0129780
  C       -0.6725800    -1.2264340    -0.0069900
  C       -0.6726490     1.2263940    -0.0069970
  C        1.3988940     0.0000390    -0.0107890
  C        1.4942690     2.5253230     0.0134310
  C        1.4944180    -2.5252350     0.0134270
  H       -1.2241800    -2.1659650    -0.0138510
  H       -1.2242990     2.1658960    -0.0138630
  H        2.4879510     0.0000680    -0.0240190
  H       -3.1956820     0.8285560    -0.4636260
  H       -3.1956410    -0.8285950    -0.4638730
  H       -3.1827690    -0.0002330     0.9749950
  H        0.8779320     3.3605910    -0.3276200
  H        1.8358100     2.7495590     1.0289260
  H        2.3762850     2.4675780    -0.6290150
  H        2.3762540    -2.4675350    -0.6292720
  H        0.8780380    -3.3605930    -0.3273260
  H        1.8362550    -2.7492930     1.0288600
units angstrom
no_reorient  #important for SAPT in psi4, default
symmetry c1  #important for SAPT in psi4, default
}

set PROPERTIES_ORIGIN ["COM"]
properties('MP2/aug-cc-pvtz', properties = ['dipole'])
--------------------------------------------------------------------------

  Memory set to  29.802 GiB by Python driver.
    SCF Algorithm Type (re)set to DF.

*** tstart() called on c419-121.stampede2.tacc.utexas.edu
*** at Sun Mar  7 08:33:04 2021

   => Loading Basis Set <=

    Name: AUG-CC-PVTZ
    Role: ORBITAL
    Keyword: BASIS
    atoms 1     entry N          line   285 file /home1/07844/xy3866/miniconda3/envs/p4env/share/psi4/basis/aug-cc-pvtz.gbs 
    atoms 2-9   entry C          line   239 file /home1/07844/xy3866/miniconda3/envs/p4env/share/psi4/basis/aug-cc-pvtz.gbs 
    atoms 10-21 entry H          line    40 file /home1/07844/xy3866/miniconda3/envs/p4env/share/psi4/basis/aug-cc-pvtz.gbs 


         ---------------------------------------------------------
                                   SCF
               by Justin Turney, Rob Parrish, Andy Simmonett
                          and Daniel G. A. Smith
                              RHF Reference
                       32 Threads,  30517 MiB Core
         ---------------------------------------------------------

  ==> Geometry <==

    Molecular point group: c1
    Full point group: C1

    Geometry (in Angstrom), charge = 1, multiplicity = 1:

       Center              X                  Y                   Z               Mass       
    ------------   -----------------  -----------------  -----------------  -----------------
         N           -2.807986717120    -0.000078457898    -0.001017877827    14.003074004430
         C           -1.322788817120    -0.000057657898     0.126891322173    12.000000000000
         C            0.733886282880     1.230275542102    -0.027172877827    12.000000000000
         C            0.733952282880    -1.230231457898    -0.027164877827    12.000000000000
         C           -0.666745717120    -1.226431457898    -0.021176877827    12.000000000000
         C           -0.666814717120     1.226396542102    -0.021183877827    12.000000000000
         C            1.404728282880     0.000041542102    -0.024975877827    12.000000000000
         C            1.500103282880     2.525325542102    -0.000755877827    12.000000000000
         C            1.500252282880    -2.525232457898    -0.000759877827    12.000000000000
         H           -1.218345717120    -2.165962457898    -0.028037877827     1.007825032230
         H           -1.218464717120     2.165898542102    -0.028049877827     1.007825032230
         H            2.493785282880     0.000070542102    -0.038205877827     1.007825032230
         H           -3.189847717120     0.828558542102    -0.477812877827     1.007825032230
         H           -3.189806717120    -0.828592457898    -0.478059877827     1.007825032230
         H           -3.176934717120    -0.000230457898     0.960808122173     1.007825032230
         H            0.883766282880     3.360593542102    -0.341806877827     1.007825032230
         H            1.841644282880     2.749561542102     1.014739122173     1.007825032230
         H            2.382119282880     2.467580542102    -0.643201877827     1.007825032230
         H            2.382088282880    -2.467532457898    -0.643458877827     1.007825032230
         H            0.883872282880    -3.360590457898    -0.341512877827     1.007825032230
         H            1.842089282880    -2.749290457898     1.014673122173     1.007825032230

  Running in c1 symmetry.

  Rotational constants: A =      0.05786  B =      0.05671  C =      0.02911 [cm^-1]
  Rotational constants: A =   1734.72441  B =   1700.14043  C =    872.70248 [MHz]
  Nuclear repulsion =  432.023719482470881

  Charge       = 1
  Multiplicity = 1
  Electrons    = 66
  Nalpha       = 33
  Nbeta        = 33

  ==> Algorithm <==

  SCF Algorithm Type is DF.
  DIIS enabled.
  MOM disabled.
  Fractional occupation disabled.
  Guess Type is SAD.
  Energy threshold   = 1.00e-10
  Density threshold  = 1.00e-10
  Integral threshold = 1.00e-12

  ==> Primary Basis <==

  Basis Set: AUG-CC-PVTZ
    Blend: AUG-CC-PVTZ
    Number of shells: 234
    Number of basis functions: 690
    Number of Cartesian functions: 795
    Spherical Harmonics?: true
    Max angular momentum: 3

   => Loading Basis Set <=

    Name: (AUG-CC-PVTZ AUX)
    Role: JKFIT
    Keyword: DF_BASIS_SCF
    atoms 1     entry N          line   224 file /home1/07844/xy3866/miniconda3/envs/p4env/share/psi4/basis/aug-cc-pvtz-jkfit.gbs 
    atoms 2-9   entry C          line   162 file /home1/07844/xy3866/miniconda3/envs/p4env/share/psi4/basis/aug-cc-pvtz-jkfit.gbs 
    atoms 10-21 entry H          line    70 file /home1/07844/xy3866/miniconda3/envs/p4env/share/psi4/basis/aug-cc-pvtz-jkfit.gbs 

  ==> Integral Setup <==

  DFHelper Memory: AOs need 4.968 GiB; user supplied 22.352 GiB. Using in-core AOs.

  ==> MemDFJK: Density-Fitted J/K Matrices <==

    J tasked:                   Yes
    K tasked:                   Yes
    wK tasked:                   No
    OpenMP threads:              32
    Memory [MiB]:             22888
    Algorithm:                 Core
    Schwarz Cutoff:           1E-12
    Mask sparsity (%):      10.1479
    Fitting Condition:        1E-10

   => Auxiliary Basis Set <=

  Basis Set: (AUG-CC-PVTZ AUX)
    Blend: AUG-CC-PVTZ-JKFIT
    Number of shells: 438
    Number of basis functions: 1488
    Number of Cartesian functions: 1839
    Spherical Harmonics?: true
    Max angular momentum: 4

  Minimum eigenvalue in the overlap matrix is 9.0860114794E-07.
  Reciprocal condition number of the overlap matrix is 4.5492442548E-08.
    Using symmetric orthogonalization.

  ==> Pre-Iterations <==

  SCF Guess: Superposition of Atomic Densities via on-the-fly atomic UHF (no occupation information).

   -------------------------
    Irrep   Nso     Nmo    
   -------------------------
     A        690     690 
   -------------------------
    Total     690     690
   -------------------------

  ==> Iterations <==

                           Total Energy        Delta E     RMS |[F,P]|

   @DF-RHF iter SAD:  -364.14191973299467   -3.64142e+02   0.00000e+00 
   @DF-RHF iter   1:  -363.96845276345431    1.73467e-01   1.00781e-03 DIIS
   @DF-RHF iter   2:  -364.23169298786257   -2.63240e-01   4.48210e-04 DIIS
   @DF-RHF iter   3:  -364.28126956899206   -4.95766e-02   1.19033e-04 DIIS
   @DF-RHF iter   4:  -364.28599281979558   -4.72325e-03   5.08126e-05 DIIS
   @DF-RHF iter   5:  -364.28675182443629   -7.59005e-04   8.36268e-06 DIIS
   @DF-RHF iter   6:  -364.28679021058781   -3.83862e-05   4.05048e-06 DIIS
   @DF-RHF iter   7:  -364.28679790656048   -7.69597e-06   1.47306e-06 DIIS
   @DF-RHF iter   8:  -364.28680056806775   -2.66151e-06   6.30436e-07 DIIS
   @DF-RHF iter   9:  -364.28680113569675   -5.67629e-07   3.17984e-07 DIIS
   @DF-RHF iter  10:  -364.28680124957555   -1.13879e-07   9.13599e-08 DIIS
   @DF-RHF iter  11:  -364.28680125972579   -1.01502e-08   2.49132e-08 DIIS
   @DF-RHF iter  12:  -364.28680126022368   -4.97892e-10   7.20868e-09 DIIS
   @DF-RHF iter  13:  -364.28680126025279   -2.91038e-11   2.25990e-09 DIIS
   @DF-RHF iter  14:  -364.28680126025648   -3.69482e-12   6.36177e-10 DIIS
   @DF-RHF iter  15:  -364.28680126025455    1.93268e-12   2.10562e-10 DIIS
   @DF-RHF iter  16:  -364.28680126025540   -8.52651e-13   7.01271e-11 DIIS
  Energy and wave function converged.


  ==> Post-Iterations <==

    Orbital Energies [Eh]
    ---------------------

    Doubly Occupied:                                                      

       1A    -15.887697     2A    -11.460076     3A    -11.396237  
       4A    -11.396201     5A    -11.394040     6A    -11.394009  
       7A    -11.373036     8A    -11.345097     9A    -11.345097  
      10A     -1.501977    11A     -1.307945    12A     -1.204466  
      13A     -1.180841    14A     -1.081416    15A     -1.070561  
      16A     -0.990468    17A     -0.965129    18A     -0.948603  
      19A     -0.907576    20A     -0.853793    21A     -0.820420  
      22A     -0.792901    23A     -0.723371    24A     -0.716463  
      25A     -0.709630    26A     -0.690317    27A     -0.679336  
      28A     -0.656459    29A     -0.641987    30A     -0.632077  
      31A     -0.628529    32A     -0.486512    33A     -0.473989  

    Virtual:                                                              

      34A     -0.107534    35A     -0.072430    36A     -0.071089  
      37A     -0.058857    38A     -0.047009    39A     -0.046749  
      40A     -0.042136    41A     -0.039782    42A     -0.033939  
      43A     -0.030147    44A     -0.021801    45A     -0.018501  
      46A     -0.016866    47A     -0.014635    48A     -0.001074  
      49A      0.003420    50A      0.005170    51A      0.007724  
      52A      0.012061    53A      0.013445    54A      0.024906  
      55A      0.027132    56A      0.028777    57A      0.033990  
      58A      0.035022    59A      0.040763    60A      0.045161  
      61A      0.050085    62A      0.050826    63A      0.057440  
      64A      0.060171    65A      0.062383    66A      0.063022  
      67A      0.063799    68A      0.067095    69A      0.075999  
      70A      0.078507    71A      0.083553    72A      0.090441  
      73A      0.094719    74A      0.099700    75A      0.104358  
      76A      0.110294    77A      0.119121    78A      0.129214  
      79A      0.129828    80A      0.131021    81A      0.144692  
      82A      0.146026    83A      0.152096    84A      0.154763  
      85A      0.158739    86A      0.165824    87A      0.168359  
      88A      0.171062    89A      0.177770    90A      0.189374  
      91A      0.189465    92A      0.195800    93A      0.205113  
      94A      0.206322    95A      0.206828    96A      0.214850  
      97A      0.223218    98A      0.223950    99A      0.227594  
     100A      0.236768   101A      0.239464   102A      0.241974  
     103A      0.243417   104A      0.248598   105A      0.249250  
     106A      0.252652   107A      0.257674   108A      0.264804  
     109A      0.269396   110A      0.273800   111A      0.276936  
     112A      0.280742   113A      0.281306   114A      0.287380  
     115A      0.294310   116A      0.300141   117A      0.301898  
     118A      0.304910   119A      0.309766   120A      0.313639  
     121A      0.322631   122A      0.324396   123A      0.325575  
     124A      0.329861   125A      0.332906   126A      0.336305  
     127A      0.344953   128A      0.348115   129A      0.350509  
     130A      0.353601   131A      0.357634   132A      0.359335  
     133A      0.365851   134A      0.369081   135A      0.375037  
     136A      0.381556   137A      0.384311   138A      0.390557  
     139A      0.395283   140A      0.397619   141A      0.402181  
     142A      0.406168   143A      0.406536   144A      0.419460  
     145A      0.427243   146A      0.431022   147A      0.433693  
     148A      0.438263   149A      0.442826   150A      0.443485  
     151A      0.445776   152A      0.446607   153A      0.452813  
     154A      0.456959   155A      0.459986   156A      0.463372  
     157A      0.464775   158A      0.477500   159A      0.482147  
     160A      0.487741   161A      0.494390   162A      0.502369  
     163A      0.506758   164A      0.507290   165A      0.518781  
     166A      0.521101   167A      0.536827   168A      0.548210  
     169A      0.560236   170A      0.569340   171A      0.574610  
     172A      0.588261   173A      0.592897   174A      0.603828  
     175A      0.606729   176A      0.614791   177A      0.618563  
     178A      0.626143   179A      0.631819   180A      0.640298  
     181A      0.647151   182A      0.657957   183A      0.663432  
     184A      0.668744   185A      0.680992   186A      0.682096  
     187A      0.684640   188A      0.703527   189A      0.715088  
     190A      0.721062   191A      0.728582   192A      0.733261  
     193A      0.734102   194A      0.736683   195A      0.738441  
     196A      0.744996   197A      0.746120   198A      0.751631  
     199A      0.761549   200A      0.766970   201A      0.767792  
     202A      0.769922   203A      0.775727   204A      0.787374  
     205A      0.793326   206A      0.793762   207A      0.801074  
     208A      0.811979   209A      0.812129   210A      0.816214  
     211A      0.816986   212A      0.827206   213A      0.829588  
     214A      0.830254   215A      0.846261   216A      0.849209  
     217A      0.854962   218A      0.859486   219A      0.862155  
     220A      0.869036   221A      0.877848   222A      0.881935  
     223A      0.883492   224A      0.884309   225A      0.892406  
     226A      0.892599   227A      0.898093   228A      0.907419  
     229A      0.913101   230A      0.917171   231A      0.918735  
     232A      0.926504   233A      0.935774   234A      0.935906  
     235A      0.950238   236A      0.953476   237A      0.954918  
     238A      0.956215   239A      0.957011   240A      0.969341  
     241A      0.975600   242A      0.982577   243A      1.001788  
     244A      1.004033   245A      1.008969   246A      1.010087  
     247A      1.016279   248A      1.018039   249A      1.032038  
     250A      1.034049   251A      1.040836   252A      1.046865  
     253A      1.051792   254A      1.053590   255A      1.062510  
     256A      1.063959   257A      1.069015   258A      1.075022  
     259A      1.082935   260A      1.088289   261A      1.094047  
     262A      1.095053   263A      1.098968   264A      1.106029  
     265A      1.112599   266A      1.115633   267A      1.129317  
     268A      1.135839   269A      1.138493   270A      1.147333  
     271A      1.156202   272A      1.157326   273A      1.160765  
     274A      1.182775   275A      1.184800   276A      1.192892  
     277A      1.200432   278A      1.202868   279A      1.213469  
     280A      1.215885   281A      1.222744   282A      1.227209  
     283A      1.234168   284A      1.243351   285A      1.250300  
     286A      1.269463   287A      1.273608   288A      1.286203  
     289A      1.287167   290A      1.294830   291A      1.311961  
     292A      1.319324   293A      1.324649   294A      1.326710  
     295A      1.341976   296A      1.349469   297A      1.353901  
     298A      1.365190   299A      1.372604   300A      1.386404  
     301A      1.387664   302A      1.400926   303A      1.405450  
     304A      1.410772   305A      1.418949   306A      1.423333  
     307A      1.430924   308A      1.439297   309A      1.454444  
     310A      1.459712   311A      1.462186   312A      1.490406  
     313A      1.508514   314A      1.526554   315A      1.527987  
     316A      1.534090   317A      1.539537   318A      1.550415  
     319A      1.551464   320A      1.553196   321A      1.566503  
     322A      1.578277   323A      1.579259   324A      1.592788  
     325A      1.596304   326A      1.598831   327A      1.608205  
     328A      1.618843   329A      1.621526   330A      1.635945  
     331A      1.639681   332A      1.649993   333A      1.659364  
     334A      1.662884   335A      1.664994   336A      1.673653  
     337A      1.679122   338A      1.691975   339A      1.693315  
     340A      1.705627   341A      1.706493   342A      1.709044  
     343A      1.722306   344A      1.725987   345A      1.734034  
     346A      1.740401   347A      1.755930   348A      1.763083  
     349A      1.773853   350A      1.777091   351A      1.795340  
     352A      1.809279   353A      1.814791   354A      1.820516  
     355A      1.833041   356A      1.835086   357A      1.846924  
     358A      1.872828   359A      1.874871   360A      1.875022  
     361A      1.889824   362A      1.892400   363A      1.892683  
     364A      1.902238   365A      1.909190   366A      1.921480  
     367A      1.933475   368A      1.944956   369A      1.951795  
     370A      1.958410   371A      1.969346   372A      1.985586  
     373A      1.989352   374A      1.993948   375A      2.006242  
     376A      2.012279   377A      2.028392   378A      2.031867  
     379A      2.047883   380A      2.050597   381A      2.053731  
     382A      2.055557   383A      2.076885   384A      2.083022  
     385A      2.093311   386A      2.102037   387A      2.108304  
     388A      2.112962   389A      2.124616   390A      2.130539  
     391A      2.131667   392A      2.153407   393A      2.168453  
     394A      2.172005   395A      2.200018   396A      2.206006  
     397A      2.206345   398A      2.218755   399A      2.243461  
     400A      2.243777   401A      2.259701   402A      2.261692  
     403A      2.273918   404A      2.288552   405A      2.320804  
     406A      2.324939   407A      2.325358   408A      2.336856  
     409A      2.350649   410A      2.359694   411A      2.368894  
     412A      2.371852   413A      2.401981   414A      2.410499  
     415A      2.429356   416A      2.441356   417A      2.461459  
     418A      2.495254   419A      2.518723   420A      2.520839  
     421A      2.554530   422A      2.555100   423A      2.601433  
     424A      2.626348   425A      2.642684   426A      2.659302  
     427A      2.667523   428A      2.719159   429A      2.725898  
     430A      2.779016   431A      2.823611   432A      2.854971  
     433A      2.896829   434A      2.984814   435A      3.039009  
     436A      3.049550   437A      3.063036   438A      3.066035  
     439A      3.128511   440A      3.131396   441A      3.152058  
     442A      3.155840   443A      3.173150   444A      3.198659  
     445A      3.216790   446A      3.252315   447A      3.275658  
     448A      3.297832   449A      3.303004   450A      3.305434  
     451A      3.334131   452A      3.335889   453A      3.338412  
     454A      3.373276   455A      3.378777   456A      3.390922  
     457A      3.395318   458A      3.399748   459A      3.414507  
     460A      3.431018   461A      3.433493   462A      3.448009  
     463A      3.465654   464A      3.469870   465A      3.498295  
     466A      3.507972   467A      3.517062   468A      3.527828  
     469A      3.528630   470A      3.533478   471A      3.553338  
     472A      3.560195   473A      3.561569   474A      3.574032  
     475A      3.586120   476A      3.602490   477A      3.613656  
     478A      3.613953   479A      3.618430   480A      3.621790  
     481A      3.641816   482A      3.660048   483A      3.663199  
     484A      3.685613   485A      3.691163   486A      3.707576  
     487A      3.719120   488A      3.724338   489A      3.737024  
     490A      3.744650   491A      3.761176   492A      3.778065  
     493A      3.782031   494A      3.782758   495A      3.803956  
     496A      3.804538   497A      3.817183   498A      3.821240  
     499A      3.823176   500A      3.842408   501A      3.851104  
     502A      3.855101   503A      3.879104   504A      3.879938  
     505A      3.881683   506A      3.886635   507A      3.903434  
     508A      3.905180   509A      3.920299   510A      3.934212  
     511A      3.940609   512A      3.962684   513A      3.963622  
     514A      3.973563   515A      3.980409   516A      3.989281  
     517A      4.005221   518A      4.014376   519A      4.023530  
     520A      4.040339   521A      4.050665   522A      4.052989  
     523A      4.067358   524A      4.070270   525A      4.080166  
     526A      4.103049   527A      4.108360   528A      4.112364  
     529A      4.113149   530A      4.117491   531A      4.120918  
     532A      4.152060   533A      4.167271   534A      4.185025  
     535A      4.192586   536A      4.195539   537A      4.208902  
     538A      4.220421   539A      4.245086   540A      4.254447  
     541A      4.256584   542A      4.278195   543A      4.283282  
     544A      4.288829   545A      4.290574   546A      4.303397  
     547A      4.304991   548A      4.316270   549A      4.326910  
     550A      4.340774   551A      4.363939   552A      4.365886  
     553A      4.376181   554A      4.384895   555A      4.396267  
     556A      4.402950   557A      4.422543   558A      4.424476  
     559A      4.435955   560A      4.443403   561A      4.468691  
     562A      4.474311   563A      4.490665   564A      4.492470  
     565A      4.509929   566A      4.518078   567A      4.538721  
     568A      4.558155   569A      4.580381   570A      4.581967  
     571A      4.597152   572A      4.602569   573A      4.620122  
     574A      4.632953   575A      4.635689   576A      4.653223  
     577A      4.654497   578A      4.676149   579A      4.680179  
     580A      4.681618   581A      4.706462   582A      4.716359  
     583A      4.737518   584A      4.741335   585A      4.746324  
     586A      4.755215   587A      4.776202   588A      4.784365  
     589A      4.797291   590A      4.800920   591A      4.804492  
     592A      4.824540   593A      4.855808   594A      4.860747  
     595A      4.878137   596A      4.881302   597A      4.908850  
     598A      4.930365   599A      4.933552   600A      4.934243  
     601A      4.975137   602A      4.984951   603A      5.017915  
     604A      5.024531   605A      5.037300   606A      5.049086  
     607A      5.057096   608A      5.079648   609A      5.081369  
     610A      5.102428   611A      5.122693   612A      5.129598  
     613A      5.160270   614A      5.175460   615A      5.175868  
     616A      5.188109   617A      5.193861   618A      5.200464  
     619A      5.216428   620A      5.225263   621A      5.259779  
     622A      5.278204   623A      5.296195   624A      5.328728  
     625A      5.360653   626A      5.385616   627A      5.403637  
     628A      5.412912   629A      5.427169   630A      5.446365  
     631A      5.459558   632A      5.505681   633A      5.545556  
     634A      5.563221   635A      5.576848   636A      5.577841  
     637A      5.607175   638A      5.625601   639A      5.632464  
     640A      5.654891   641A      5.665866   642A      5.682663  
     643A      5.696320   644A      5.706893   645A      5.725528  
     646A      5.773554   647A      5.808532   648A      5.813211  
     649A      5.911906   650A      5.924070   651A      5.988347  
     652A      6.022335   653A      6.039981   654A      6.053817  
     655A      6.083903   656A      6.100950   657A      6.103784  
     658A      6.120166   659A      6.151366   660A      6.167803  
     661A      6.206216   662A      6.272586   663A      6.297623  
     664A      6.340019   665A      6.345615   666A      6.462386  
     667A      6.626621   668A      6.627781   669A      6.657239  
     670A      6.662092   671A      6.673190   672A      6.680835  
     673A      6.713572   674A      6.754435   675A      6.757615  
     676A      6.869197   677A      6.916818   678A      6.918437  
     679A      7.001709   680A      7.570009   681A      7.620105  
     682A     16.157310   683A     16.282423   684A     17.915700  
     685A     18.765146   686A     18.903694   687A     19.088289  
     688A     20.345680   689A     20.505829   690A     20.797289  

    Final Occupation by Irrep:
              A 
    DOCC [    33 ]

  @DF-RHF Final Energy:  -364.28680126025540

   => Energetics <=

    Nuclear Repulsion Energy =            432.0237194824708808
    One-Electron Energy =               -1337.3085272792193336
    Two-Electron Energy =                 540.9980065364931079
    Total Energy =                       -364.2868012602554018

Computation Completed

*** tstop() called on c419-121.stampede2.tacc.utexas.edu at Sun Mar  7 08:33:41 2021
Module time:
	user time   =     655.08 seconds =      10.92 minutes
	system time =      44.25 seconds =       0.74 minutes
	total time  =         37 seconds =       0.62 minutes
Total time:
	user time   =     655.08 seconds =      10.92 minutes
	system time =      44.25 seconds =       0.74 minutes
	total time  =         37 seconds =       0.62 minutes
   => Loading Basis Set <=

    Name: (AUG-CC-PVTZ AUX)
    Role: RIFIT
    Keyword: DF_BASIS_MP2
    atoms 1     entry N          line   206 file /home1/07844/xy3866/miniconda3/envs/p4env/share/psi4/basis/aug-cc-pvtz-ri.gbs 
    atoms 2-9   entry C          line   148 file /home1/07844/xy3866/miniconda3/envs/p4env/share/psi4/basis/aug-cc-pvtz-ri.gbs 
    atoms 10-21 entry H          line    30 file /home1/07844/xy3866/miniconda3/envs/p4env/share/psi4/basis/aug-cc-pvtz-ri.gbs 


*** tstart() called on c419-121.stampede2.tacc.utexas.edu
*** at Sun Mar  7 08:33:42 2021


  //>>>>>>>>>>>>>>>>>>>>>>>>>>>>>>>>>>>//
  //               DFMP2               //
  //<<<<<<<<<<<<<<<<<<<<<<<<<<<<<<<<<<<//

	 --------------------------------------------------------
	                          DF-MP2                         
	      2nd-Order Density-Fitted Moller-Plesset Theory     
	              RMP2 Wavefunction,  32 Threads             
	                                                         
	        Rob Parrish, Justin Turney, Andy Simmonett,      
	           Ed Hohenstein, and C. David Sherrill          
	 --------------------------------------------------------

   => Auxiliary Basis Set <=

  Basis Set: (AUG-CC-PVTZ AUX)
    Blend: AUG-CC-PVTZ-RI
    Number of shells: 420
    Number of basis functions: 1506
    Number of Cartesian functions: 1884
    Spherical Harmonics?: true
    Max angular momentum: 4

	 --------------------------------------------------------
	                 NBF =   690, NAUX =  1506
	 --------------------------------------------------------
	   CLASS    FOCC     OCC    AOCC    AVIR     VIR    FVIR
	   PAIRS       0      33      33     657     657       0
	 --------------------------------------------------------

  DFHelper Memory: AOs need 5.186 GiB; user supplied 22.352 GiB. Using in-core AOs.


         ------------------------------------------------------------
                                     CPHF                           
                                  Rob Parrish                       
         ------------------------------------------------------------

  ==> Geometry <==

    Molecular point group: c1
    Full point group: C1

    Geometry (in Angstrom), charge = 1, multiplicity = 1:

       Center              X                  Y                   Z               Mass       
    ------------   -----------------  -----------------  -----------------  -----------------
         N           -2.807986717120    -0.000078457898    -0.001017877827    14.003074004430
         C           -1.322788817120    -0.000057657898     0.126891322173    12.000000000000
         C            0.733886282880     1.230275542102    -0.027172877827    12.000000000000
         C            0.733952282880    -1.230231457898    -0.027164877827    12.000000000000
         C           -0.666745717120    -1.226431457898    -0.021176877827    12.000000000000
         C           -0.666814717120     1.226396542102    -0.021183877827    12.000000000000
         C            1.404728282880     0.000041542102    -0.024975877827    12.000000000000
         C            1.500103282880     2.525325542102    -0.000755877827    12.000000000000
         C            1.500252282880    -2.525232457898    -0.000759877827    12.000000000000
         H           -1.218345717120    -2.165962457898    -0.028037877827     1.007825032230
         H           -1.218464717120     2.165898542102    -0.028049877827     1.007825032230
         H            2.493785282880     0.000070542102    -0.038205877827     1.007825032230
         H           -3.189847717120     0.828558542102    -0.477812877827     1.007825032230
         H           -3.189806717120    -0.828592457898    -0.478059877827     1.007825032230
         H           -3.176934717120    -0.000230457898     0.960808122173     1.007825032230
         H            0.883766282880     3.360593542102    -0.341806877827     1.007825032230
         H            1.841644282880     2.749561542102     1.014739122173     1.007825032230
         H            2.382119282880     2.467580542102    -0.643201877827     1.007825032230
         H            2.382088282880    -2.467532457898    -0.643458877827     1.007825032230
         H            0.883872282880    -3.360590457898    -0.341512877827     1.007825032230
         H            1.842089282880    -2.749290457898     1.014673122173     1.007825032230

  Nuclear repulsion =  432.023719482470881
  Reference energy  = -364.286801260255402

  ==> Basis Set <==

  Basis Set: AUG-CC-PVTZ
    Blend: AUG-CC-PVTZ
    Number of shells: 234
    Number of basis functions: 690
    Number of Cartesian functions: 795
    Spherical Harmonics?: true
    Max angular momentum: 3

  ==> CGRSolver (by Rob Parrish) <==

   Number of roots    =         1
   Preconditioning    =    JACOBI
   Convergence cutoff =     1E-06
   Maximum iterations =       100

  ==> CPHFRHamiltonian (by Rob Parrish) <== 

  ==> MemDFJK: Density-Fitted J/K Matrices <==

    J tasked:                   Yes
    K tasked:                   Yes
    wK tasked:                   No
    OpenMP threads:              32
    Memory [MiB]:             22888
    Algorithm:                 Core
    Schwarz Cutoff:           1E-12
    Mask sparsity (%):       6.0248
    Fitting Condition:        1E-10

   => Auxiliary Basis Set <=

  Basis Set: (AUG-CC-PVTZ AUX)
    Blend: AUG-CC-PVTZ-JKFIT
    Number of shells: 438
    Number of basis functions: 1488
    Number of Cartesian functions: 1839
    Spherical Harmonics?: true
    Max angular momentum: 4

  ==> CPHF Iterations <==

  => Iterations <=

             Iter  Converged  Remaining    Residual
  CGR           1          0          1   7.247E-02
  CGR           2          0          1   1.564E-02
  CGR           3          0          1   7.810E-03
  CGR           4          0          1   4.183E-03
  CGR           5          0          1   1.291E-03
  CGR           6          0          1   4.851E-04
  CGR           7          0          1   1.414E-04
  CGR           8          0          1   5.256E-05
  CGR           9          0          1   1.784E-05
  CGR          10          0          1   4.580E-06
  CGR          11          1          0   9.246E-07

    CGRSolver converged.

	-----------------------------------------------------------
	 ==================> DF-MP2 Energies <==================== 
	-----------------------------------------------------------
	 Reference Energy          =    -364.2868012602554018 [Eh]
	 Singles Energy            =      -0.0000000000000000 [Eh]
	 Same-Spin Energy          =      -0.3974940098953383 [Eh]
	 Opposite-Spin Energy      =      -1.3063740223613323 [Eh]
	 Correlation Energy        =      -1.7038680322566706 [Eh]
	 Total Energy              =    -365.9906692925120524 [Eh]
	-----------------------------------------------------------
	 ================> DF-SCS-MP2 Energies <================== 
	-----------------------------------------------------------
	 SCS Same-Spin Scale       =       0.3333333333333333 [-]
	 SCS Opposite-Spin Scale   =       1.2000000000000000 [-]
	 SCS Same-Spin Energy      =      -0.1324980032984461 [Eh]
	 SCS Opposite-Spin Energy  =      -1.5676488268335986 [Eh]
	 SCS Correlation Energy    =      -1.7001468301320448 [Eh]
	 SCS Total Energy          =    -365.9869480903874432 [Eh]
	-----------------------------------------------------------



Properties will be evaluated at   0.000000,   0.000000,   0.000000 [a0]

Properties computed using the MP2 density matrix

  Nuclear Dipole Moment: [e a0]
     X:     0.6794      Y:     0.0001      Z:    -0.0281

  Electronic Dipole Moment: [e a0]
     X:    -3.9577      Y:    -0.0002      Z:     0.0409

  Dipole Moment: [e a0]
     X:    -3.2783      Y:    -0.0001      Z:     0.0129     Total:     3.2784

  Dipole Moment: [D]
     X:    -8.3327      Y:    -0.0002      Z:     0.0328     Total:     8.3328


*** tstop() called on c419-121.stampede2.tacc.utexas.edu at Sun Mar  7 08:37:12 2021
Module time:
	user time   =    1931.72 seconds =      32.20 minutes
	system time =      61.78 seconds =       1.03 minutes
	total time  =        210 seconds =       3.50 minutes
Total time:
	user time   =    2587.83 seconds =      43.13 minutes
	system time =     106.04 seconds =       1.77 minutes
	total time  =        248 seconds =       4.13 minutes

    Psi4 stopped on: Sunday, 07 March 2021 08:37AM
    Psi4 wall time for execution: 0:04:08.77

*** Psi4 exiting successfully. Buy a developer a beer!
