
    -----------------------------------------------------------------------
          Psi4: An Open-Source Ab Initio Electronic Structure Package
                               Psi4 1.4a3.dev225 

                         Git: Rev {master} 7105e37 


    D. G. A. Smith, L. A. Burns, A. C. Simmonett, R. M. Parrish,
    M. C. Schieber, R. Galvelis, P. Kraus, H. Kruse, R. Di Remigio,
    A. Alenaizan, A. M. James, S. Lehtola, J. P. Misiewicz, M. Scheurer,
    R. A. Shaw, J. B. Schriber, Y. Xie, Z. L. Glick, D. A. Sirianni,
    J. S. O'Brien, J. M. Waldrop, A. Kumar, E. G. Hohenstein,
    B. P. Pritchard, B. R. Brooks, H. F. Schaefer III, A. Yu. Sokolov,
    K. Patkowski, A. E. DePrince III, U. Bozkaya, R. A. King,
    F. A. Evangelista, J. M. Turney, T. D. Crawford, C. D. Sherrill,
    J. Chem. Phys. 152(18) 184108 (2020). https://doi.org/10.1063/5.0006002

                            Additional Code Authors
    E. T. Seidl, C. L. Janssen, E. F. Valeev, M. L. Leininger,
    J. F. Gonthier, R. M. Richard, H. R. McAlexander, M. Saitow, X. Wang,
    P. Verma, and M. H. Lechner

             Previous Authors, Complete List of Code Contributors,
                       and Citations for Specific Modules
    https://github.com/psi4/psi4/blob/master/codemeta.json
    https://github.com/psi4/psi4/graphs/contributors
    http://psicode.org/psi4manual/master/introduction.html#citing-psifour

    -----------------------------------------------------------------------


    Psi4 started on: Sunday, 07 March 2021 05:30AM

    Process ID: 200973
    Host:       c419-121.stampede2.tacc.utexas.edu
    PSIDATADIR: /home1/07844/xy3866/miniconda3/envs/p4env/share/psi4
    Memory:     500.0 MiB
    Threads:    32
    
  ==> Input File <==

--------------------------------------------------------------------------
#psi4
#
memory 32 gb

molecule  {
1 1
  N       -2.8138210    -0.0000810     0.0131690
  C       -1.3233890    -0.0000370    -0.0148680
  C        0.7280520     1.2302730    -0.0129860
  C        0.7281180    -1.2302340    -0.0129780
  C       -0.6725800    -1.2264340    -0.0069900
  C       -0.6726490     1.2263940    -0.0069970
  C        1.3988940     0.0000390    -0.0107890
  C        1.4942690     2.5253230     0.0134310
  C        1.4944180    -2.5252350     0.0134270
  H       -1.2241800    -2.1659650    -0.0138510
  H       -1.2242990     2.1658960    -0.0138630
  H        2.4879510     0.0000680    -0.0240190
  H       -3.1773769     0.8493700    -0.4407592
  H       -3.1956410    -0.8285950    -0.4638730
  H       -3.1827690    -0.0002330     0.9749950
  H        0.8779320     3.3605910    -0.3276200
  H        1.8358100     2.7495590     1.0289260
  H        2.3762850     2.4675780    -0.6290150
  H        2.3762540    -2.4675350    -0.6292720
  H        0.8780380    -3.3605930    -0.3273260
  H        1.8362550    -2.7492930     1.0288600
units angstrom
no_reorient  #important for SAPT in psi4, default
symmetry c1  #important for SAPT in psi4, default
}

set PROPERTIES_ORIGIN ["COM"]
properties('MP2/aug-cc-pvtz', properties = ['dipole'])
--------------------------------------------------------------------------

  Memory set to  29.802 GiB by Python driver.
    SCF Algorithm Type (re)set to DF.

*** tstart() called on c419-121.stampede2.tacc.utexas.edu
*** at Sun Mar  7 05:30:50 2021

   => Loading Basis Set <=

    Name: AUG-CC-PVTZ
    Role: ORBITAL
    Keyword: BASIS
    atoms 1     entry N          line   285 file /home1/07844/xy3866/miniconda3/envs/p4env/share/psi4/basis/aug-cc-pvtz.gbs 
    atoms 2-9   entry C          line   239 file /home1/07844/xy3866/miniconda3/envs/p4env/share/psi4/basis/aug-cc-pvtz.gbs 
    atoms 10-21 entry H          line    40 file /home1/07844/xy3866/miniconda3/envs/p4env/share/psi4/basis/aug-cc-pvtz.gbs 


         ---------------------------------------------------------
                                   SCF
               by Justin Turney, Rob Parrish, Andy Simmonett
                          and Daniel G. A. Smith
                              RHF Reference
                       32 Threads,  30517 MiB Core
         ---------------------------------------------------------

  ==> Geometry <==

    Molecular point group: c1
    Full point group: C1

    Geometry (in Angstrom), charge = 1, multiplicity = 1:

       Center              X                  Y                   Z               Mass       
    ------------   -----------------  -----------------  -----------------  -----------------
         N           -2.808652233513    -0.000252543049     0.014120160406    14.003074004430
         C           -1.318220233513    -0.000208543049    -0.013916839594    12.000000000000
         C            0.733220766487     1.230101456951    -0.012034839594    12.000000000000
         C            0.733286766487    -1.230405543049    -0.012026839594    12.000000000000
         C           -0.667411233513    -1.226605543049    -0.006038839594    12.000000000000
         C           -0.667480233513     1.226222456951    -0.006045839594    12.000000000000
         C            1.404062766487    -0.000132543049    -0.009837839594    12.000000000000
         C            1.499437766487     2.525151456951     0.014382160406    12.000000000000
         C            1.499586766487    -2.525406543049     0.014378160406    12.000000000000
         H           -1.219011233513    -2.166136543049    -0.012899839594     1.007825032230
         H           -1.219130233513     2.165724456951    -0.012911839594     1.007825032230
         H            2.493119766487    -0.000103543049    -0.023067839594     1.007825032230
         H           -3.172208133513     0.849198456951    -0.439808039594     1.007825032230
         H           -3.190472233513    -0.828766543049    -0.462921839594     1.007825032230
         H           -3.177600233513    -0.000404543049     0.975946160406     1.007825032230
         H            0.883100766487     3.360419456951    -0.326668839594     1.007825032230
         H            1.840978766487     2.749387456951     1.029877160406     1.007825032230
         H            2.381453766487     2.467406456951    -0.628063839594     1.007825032230
         H            2.381422766487    -2.467706543049    -0.628320839594     1.007825032230
         H            0.883206766487    -3.360764543049    -0.326374839594     1.007825032230
         H            1.841423766487    -2.749464543049     1.029811160406     1.007825032230

  Running in c1 symmetry.

  Rotational constants: A =      0.05790  B =      0.05681  C =      0.02912 [cm^-1]
  Rotational constants: A =   1735.77168  B =   1703.09302  C =    873.10974 [MHz]
  Nuclear repulsion =  432.374189287402828

  Charge       = 1
  Multiplicity = 1
  Electrons    = 66
  Nalpha       = 33
  Nbeta        = 33

  ==> Algorithm <==

  SCF Algorithm Type is DF.
  DIIS enabled.
  MOM disabled.
  Fractional occupation disabled.
  Guess Type is SAD.
  Energy threshold   = 1.00e-10
  Density threshold  = 1.00e-10
  Integral threshold = 1.00e-12

  ==> Primary Basis <==

  Basis Set: AUG-CC-PVTZ
    Blend: AUG-CC-PVTZ
    Number of shells: 234
    Number of basis functions: 690
    Number of Cartesian functions: 795
    Spherical Harmonics?: true
    Max angular momentum: 3

   => Loading Basis Set <=

    Name: (AUG-CC-PVTZ AUX)
    Role: JKFIT
    Keyword: DF_BASIS_SCF
    atoms 1     entry N          line   224 file /home1/07844/xy3866/miniconda3/envs/p4env/share/psi4/basis/aug-cc-pvtz-jkfit.gbs 
    atoms 2-9   entry C          line   162 file /home1/07844/xy3866/miniconda3/envs/p4env/share/psi4/basis/aug-cc-pvtz-jkfit.gbs 
    atoms 10-21 entry H          line    70 file /home1/07844/xy3866/miniconda3/envs/p4env/share/psi4/basis/aug-cc-pvtz-jkfit.gbs 

  ==> Integral Setup <==

  DFHelper Memory: AOs need 4.971 GiB; user supplied 22.352 GiB. Using in-core AOs.

  ==> MemDFJK: Density-Fitted J/K Matrices <==

    J tasked:                   Yes
    K tasked:                   Yes
    wK tasked:                   No
    OpenMP threads:              32
    Memory [MiB]:             22888
    Algorithm:                 Core
    Schwarz Cutoff:           1E-12
    Mask sparsity (%):      10.1059
    Fitting Condition:        1E-10

   => Auxiliary Basis Set <=

  Basis Set: (AUG-CC-PVTZ AUX)
    Blend: AUG-CC-PVTZ-JKFIT
    Number of shells: 438
    Number of basis functions: 1488
    Number of Cartesian functions: 1839
    Spherical Harmonics?: true
    Max angular momentum: 4

  Minimum eigenvalue in the overlap matrix is 4.8584174769E-07.
  Reciprocal condition number of the overlap matrix is 2.4310560900E-08.
    Using symmetric orthogonalization.

  ==> Pre-Iterations <==

  SCF Guess: Superposition of Atomic Densities via on-the-fly atomic UHF (no occupation information).

   -------------------------
    Irrep   Nso     Nmo    
   -------------------------
     A        690     690 
   -------------------------
    Total     690     690
   -------------------------

  ==> Iterations <==

                           Total Energy        Delta E     RMS |[F,P]|

   @DF-RHF iter SAD:  -364.17068724055321   -3.64171e+02   0.00000e+00 
   @DF-RHF iter   1:  -363.97816445147532    1.92523e-01   1.00581e-03 DIIS
   @DF-RHF iter   2:  -364.24114157995194   -2.62977e-01   4.38944e-04 DIIS
   @DF-RHF iter   3:  -364.28898459904354   -4.78430e-02   1.16072e-04 DIIS
   @DF-RHF iter   4:  -364.29349804637218   -4.51345e-03   4.90396e-05 DIIS
   @DF-RHF iter   5:  -364.29419884778747   -7.00801e-04   8.13708e-06 DIIS
   @DF-RHF iter   6:  -364.29423238653942   -3.35388e-05   3.80418e-06 DIIS
   @DF-RHF iter   7:  -364.29423846454853   -6.07801e-06   1.25306e-06 DIIS
   @DF-RHF iter   8:  -364.29424026093812   -1.79639e-06   5.48060e-07 DIIS
   @DF-RHF iter   9:  -364.29424067280235   -4.11864e-07   2.88242e-07 DIIS
   @DF-RHF iter  10:  -364.29424076693647   -9.41341e-08   8.39189e-08 DIIS
   @DF-RHF iter  11:  -364.29424077614033   -9.20386e-09   2.25140e-08 DIIS
   @DF-RHF iter  12:  -364.29424077655335   -4.13024e-10   6.23939e-09 DIIS
   @DF-RHF iter  13:  -364.29424077657728   -2.39311e-11   1.95769e-09 DIIS
   @DF-RHF iter  14:  -364.29424077657916   -1.87583e-12   5.45048e-10 DIIS
   @DF-RHF iter  15:  -364.29424077657842    7.38964e-13   1.76473e-10 DIIS
   @DF-RHF iter  16:  -364.29424077658007   -1.64846e-12   6.26806e-11 DIIS
  Energy and wave function converged.


  ==> Post-Iterations <==

    Orbital Energies [Eh]
    ---------------------

    Doubly Occupied:                                                      

       1A    -15.888723     2A    -11.458942     3A    -11.395034  
       4A    -11.394899     5A    -11.393725     6A    -11.393498  
       7A    -11.371582     8A    -11.345110     9A    -11.345028  
      10A     -1.502658    11A     -1.309273    12A     -1.204997  
      13A     -1.181946    14A     -1.083447    15A     -1.070465  
      16A     -0.988495    17A     -0.968412    18A     -0.947301  
      19A     -0.909141    20A     -0.855684    21A     -0.820457  
      22A     -0.795171    23A     -0.724293    24A     -0.715476  
      25A     -0.710790    26A     -0.690420    27A     -0.679198  
      28A     -0.656978    29A     -0.641222    30A     -0.634610  
      31A     -0.628609    32A     -0.486427    33A     -0.475162  

    Virtual:                                                              

      34A     -0.107084    35A     -0.072565    36A     -0.071322  
      37A     -0.058386    38A     -0.046371    39A     -0.042939  
      40A     -0.042175    41A     -0.039861    42A     -0.034973  
      43A     -0.030203    44A     -0.022371    45A     -0.018386  
      46A     -0.017532    47A     -0.014437    48A     -0.000854  
      49A      0.003734    50A      0.005330    51A      0.007043  
      52A      0.013241    53A      0.018069    54A      0.027102  
      55A      0.027661    56A      0.028141    57A      0.034749  
      58A      0.035111    59A      0.041198    60A      0.043993  
      61A      0.049902    62A      0.051542    63A      0.055776  
      64A      0.058894    65A      0.062955    66A      0.065273  
      67A      0.065398    68A      0.067271    69A      0.075025  
      70A      0.080304    71A      0.084340    72A      0.088730  
      73A      0.097716    74A      0.103153    75A      0.104881  
      76A      0.106521    77A      0.117386    78A      0.129184  
      79A      0.129397    80A      0.130753    81A      0.141852  
      82A      0.149139    83A      0.150170    84A      0.155040  
      85A      0.161003    86A      0.163532    87A      0.169309  
      88A      0.172658    89A      0.176852    90A      0.190223  
      91A      0.190654    92A      0.196961    93A      0.203460  
      94A      0.205309    95A      0.205401    96A      0.213323  
      97A      0.222194    98A      0.223902    99A      0.228856  
     100A      0.233260   101A      0.241367   102A      0.245249  
     103A      0.246416   104A      0.247597   105A      0.249960  
     106A      0.256590   107A      0.257403   108A      0.267712  
     109A      0.275491   110A      0.275672   111A      0.281346  
     112A      0.283234   113A      0.285920   114A      0.290040  
     115A      0.296734   116A      0.303040   117A      0.304685  
     118A      0.305027   119A      0.307153   120A      0.318029  
     121A      0.321139   122A      0.325040   123A      0.327082  
     124A      0.332912   125A      0.336402   126A      0.341586  
     127A      0.343894   128A      0.349683   129A      0.350056  
     130A      0.353750   131A      0.354069   132A      0.361241  
     133A      0.367081   134A      0.369878   135A      0.371589  
     136A      0.374345   137A      0.379819   138A      0.387086  
     139A      0.391029   140A      0.399659   141A      0.400511  
     142A      0.402985   143A      0.403671   144A      0.418132  
     145A      0.421157   146A      0.432803   147A      0.433066  
     148A      0.436113   149A      0.441116   150A      0.443198  
     151A      0.448193   152A      0.448857   153A      0.453830  
     154A      0.455539   155A      0.461741   156A      0.463596  
     157A      0.473812   158A      0.479326   159A      0.482185  
     160A      0.495438   161A      0.497807   162A      0.506444  
     163A      0.514490   164A      0.519837   165A      0.522152  
     166A      0.523004   167A      0.541557   168A      0.546370  
     169A      0.554018   170A      0.575957   171A      0.580731  
     172A      0.592333   173A      0.597299   174A      0.597924  
     175A      0.609073   176A      0.613517   177A      0.620521  
     178A      0.627691   179A      0.629705   180A      0.637064  
     181A      0.656087   182A      0.657691   183A      0.661825  
     184A      0.673630   185A      0.674016   186A      0.686230  
     187A      0.686729   188A      0.706649   189A      0.709444  
     190A      0.710160   191A      0.726884   192A      0.727088  
     193A      0.731385   194A      0.735345   195A      0.741017  
     196A      0.742046   197A      0.752152   198A      0.755190  
     199A      0.760428   200A      0.762115   201A      0.769337  
     202A      0.775027   203A      0.780267   204A      0.795961  
     205A      0.796150   206A      0.797956   207A      0.800168  
     208A      0.809874   209A      0.815010   210A      0.820595  
     211A      0.822172   212A      0.828571   213A      0.838582  
     214A      0.839150   215A      0.848662   216A      0.850867  
     217A      0.855541   218A      0.859526   219A      0.861905  
     220A      0.869103   221A      0.879181   222A      0.879587  
     223A      0.887406   224A      0.889171   225A      0.893356  
     226A      0.894788   227A      0.897122   228A      0.904315  
     229A      0.912288   230A      0.919960   231A      0.920904  
     232A      0.927942   233A      0.931053   234A      0.934382  
     235A      0.941072   236A      0.941524   237A      0.949285  
     238A      0.955171   239A      0.966745   240A      0.967559  
     241A      0.970429   242A      0.977505   243A      1.000237  
     244A      1.001615   245A      1.007177   246A      1.008054  
     247A      1.013230   248A      1.020925   249A      1.021881  
     250A      1.033830   251A      1.037428   252A      1.046607  
     253A      1.050889   254A      1.053911   255A      1.062268  
     256A      1.062954   257A      1.070583   258A      1.071035  
     259A      1.084176   260A      1.084902   261A      1.098236  
     262A      1.098997   263A      1.101375   264A      1.103078  
     265A      1.114456   266A      1.124850   267A      1.128312  
     268A      1.136832   269A      1.141084   270A      1.145042  
     271A      1.152252   272A      1.168085   273A      1.174034  
     274A      1.178339   275A      1.195160   276A      1.196905  
     277A      1.202572   278A      1.209381   279A      1.213444  
     280A      1.216442   281A      1.231572   282A      1.233747  
     283A      1.237405   284A      1.248650   285A      1.263298  
     286A      1.272842   287A      1.284906   288A      1.287842  
     289A      1.295136   290A      1.297889   291A      1.303414  
     292A      1.315825   293A      1.317448   294A      1.328700  
     295A      1.338269   296A      1.342632   297A      1.357770  
     298A      1.361033   299A      1.383332   300A      1.390096  
     301A      1.392227   302A      1.404425   303A      1.408074  
     304A      1.414682   305A      1.415934   306A      1.431343  
     307A      1.432346   308A      1.447983   309A      1.454817  
     310A      1.462509   311A      1.465114   312A      1.497988  
     313A      1.511951   314A      1.530223   315A      1.533400  
     316A      1.535570   317A      1.536389   318A      1.545565  
     319A      1.550807   320A      1.556284   321A      1.563417  
     322A      1.576901   323A      1.581292   324A      1.589200  
     325A      1.601778   326A      1.602934   327A      1.613614  
     328A      1.617305   329A      1.623532   330A      1.632900  
     331A      1.635369   332A      1.644529   333A      1.659286  
     334A      1.667235   335A      1.668230   336A      1.676347  
     337A      1.676935   338A      1.684390   339A      1.696379  
     340A      1.702313   341A      1.708313   342A      1.708720  
     343A      1.724821   344A      1.725813   345A      1.730699  
     346A      1.734375   347A      1.753711   348A      1.757522  
     349A      1.760193   350A      1.777597   351A      1.790504  
     352A      1.813414   353A      1.813745   354A      1.823550  
     355A      1.836928   356A      1.844029   357A      1.847500  
     358A      1.864314   359A      1.868854   360A      1.877784  
     361A      1.886047   362A      1.890584   363A      1.891941  
     364A      1.900231   365A      1.923929   366A      1.929833  
     367A      1.945672   368A      1.949134   369A      1.957376  
     370A      1.959809   371A      1.969474   372A      1.981472  
     373A      1.990481   374A      1.994875   375A      2.009014  
     376A      2.013965   377A      2.033138   378A      2.036838  
     379A      2.057472   380A      2.058475   381A      2.060538  
     382A      2.063542   383A      2.074165   384A      2.089742  
     385A      2.110599   386A      2.114970   387A      2.122932  
     388A      2.125683   389A      2.127200   390A      2.130013  
     391A      2.141205   392A      2.155629   393A      2.171263  
     394A      2.171390   395A      2.195351   396A      2.212764  
     397A      2.216254   398A      2.222578   399A      2.241360  
     400A      2.249281   401A      2.254175   402A      2.262316  
     403A      2.293377   404A      2.300408   405A      2.323411  
     406A      2.324825   407A      2.335205   408A      2.352784  
     409A      2.354793   410A      2.359802   411A      2.361068  
     412A      2.380019   413A      2.404039   414A      2.411946  
     415A      2.426960   416A      2.428700   417A      2.468992  
     418A      2.477950   419A      2.524066   420A      2.537069  
     421A      2.601939   422A      2.610844   423A      2.614921  
     424A      2.619440   425A      2.644659   426A      2.661411  
     427A      2.675914   428A      2.721937   429A      2.766492  
     430A      2.782059   431A      2.793329   432A      2.839818  
     433A      2.927696   434A      2.998257   435A      3.058666  
     436A      3.064002   437A      3.093269   438A      3.104720  
     439A      3.119009   440A      3.147468   441A      3.162566  
     442A      3.168843   443A      3.182214   444A      3.196766  
     445A      3.221833   446A      3.224695   447A      3.258455  
     448A      3.272736   449A      3.303646   450A      3.305999  
     451A      3.321680   452A      3.336132   453A      3.346488  
     454A      3.351496   455A      3.368746   456A      3.377177  
     457A      3.383947   458A      3.399887   459A      3.408808  
     460A      3.426313   461A      3.428748   462A      3.439583  
     463A      3.450076   464A      3.461816   465A      3.489165  
     466A      3.509316   467A      3.512681   468A      3.517123  
     469A      3.526004   470A      3.547539   471A      3.555586  
     472A      3.558419   473A      3.560074   474A      3.574242  
     475A      3.593150   476A      3.597115   477A      3.608390  
     478A      3.621523   479A      3.634506   480A      3.641150  
     481A      3.651549   482A      3.662682   483A      3.664020  
     484A      3.685039   485A      3.697716   486A      3.717877  
     487A      3.720596   488A      3.721197   489A      3.739977  
     490A      3.755885   491A      3.759301   492A      3.761110  
     493A      3.784612   494A      3.787491   495A      3.808655  
     496A      3.816294   497A      3.818518   498A      3.823119  
     499A      3.828205   500A      3.835645   501A      3.850692  
     502A      3.856970   503A      3.874411   504A      3.881759  
     505A      3.892798   506A      3.896896   507A      3.910870  
     508A      3.913408   509A      3.920610   510A      3.927529  
     511A      3.950026   512A      3.968948   513A      3.971162  
     514A      3.982985   515A      3.983450   516A      4.008555  
     517A      4.009034   518A      4.012398   519A      4.031125  
     520A      4.047637   521A      4.051661   522A      4.062245  
     523A      4.062858   524A      4.066511   525A      4.089017  
     526A      4.096084   527A      4.096611   528A      4.109963  
     529A      4.110815   530A      4.124405   531A      4.130469  
     532A      4.149514   533A      4.168516   534A      4.191196  
     535A      4.200526   536A      4.203297   537A      4.218447  
     538A      4.227003   539A      4.240347   540A      4.254052  
     541A      4.259342   542A      4.271138   543A      4.279901  
     544A      4.299261   545A      4.303331   546A      4.307950  
     547A      4.308236   548A      4.320872   549A      4.327498  
     550A      4.340630   551A      4.360043   552A      4.374383  
     553A      4.378950   554A      4.397469   555A      4.399404  
     556A      4.418643   557A      4.424638   558A      4.426024  
     559A      4.445365   560A      4.457742   561A      4.460454  
     562A      4.470926   563A      4.482107   564A      4.501839  
     565A      4.511287   566A      4.515847   567A      4.559158  
     568A      4.560374   569A      4.592350   570A      4.593664  
     571A      4.598767   572A      4.609456   573A      4.613491  
     574A      4.625825   575A      4.631474   576A      4.635601  
     577A      4.657582   578A      4.659646   579A      4.668758  
     580A      4.685750   581A      4.702965   582A      4.722649  
     583A      4.731900   584A      4.739928   585A      4.745770  
     586A      4.754697   587A      4.758925   588A      4.768278  
     589A      4.791262   590A      4.806302   591A      4.815335  
     592A      4.835351   593A      4.852446   594A      4.870391  
     595A      4.876978   596A      4.887681   597A      4.918782  
     598A      4.933300   599A      4.940673   600A      4.955243  
     601A      4.975983   602A      4.991072   603A      5.014090  
     604A      5.021864   605A      5.046876   606A      5.047215  
     607A      5.065773   608A      5.068349   609A      5.090786  
     610A      5.104107   611A      5.116474   612A      5.143365  
     613A      5.151247   614A      5.158597   615A      5.164448  
     616A      5.189033   617A      5.199389   618A      5.214912  
     619A      5.220971   620A      5.238622   621A      5.240972  
     622A      5.255986   623A      5.299047   624A      5.344330  
     625A      5.346124   626A      5.392900   627A      5.399493  
     628A      5.427266   629A      5.428244   630A      5.453865  
     631A      5.501784   632A      5.502725   633A      5.549401  
     634A      5.559184   635A      5.583658   636A      5.590645  
     637A      5.607645   638A      5.617428   639A      5.648137  
     640A      5.659300   641A      5.664063   642A      5.687118  
     643A      5.701912   644A      5.730879   645A      5.738995  
     646A      5.744207   647A      5.800137   648A      5.819310  
     649A      5.922818   650A      5.967342   651A      5.991220  
     652A      6.025651   653A      6.044445   654A      6.052769  
     655A      6.086877   656A      6.090500   657A      6.121155  
     658A      6.122055   659A      6.154587   660A      6.167622  
     661A      6.195256   662A      6.278494   663A      6.283452  
     664A      6.325527   665A      6.383515   666A      6.459046  
     667A      6.630688   668A      6.634381   669A      6.648748  
     670A      6.666552   671A      6.676240   672A      6.710109  
     673A      6.731274   674A      6.760478   675A      6.763568  
     676A      6.870075   677A      6.956931   678A      6.981665  
     679A      7.111493   680A      7.558639   681A      7.611113  
     682A     16.234877   683A     16.285385   684A     17.720586  
     685A     18.761282   686A     19.014872   687A     19.100363  
     688A     20.469326   689A     20.906347   690A     21.094761  

    Final Occupation by Irrep:
              A 
    DOCC [    33 ]

  @DF-RHF Final Energy:  -364.29424077658007

   => Energetics <=

    Nuclear Repulsion Energy =            432.3741892874028281
    One-Electron Energy =               -1338.0025108845688919
    Two-Electron Energy =                 541.3340808205859958
    Total Energy =                       -364.2942407765800681

Computation Completed

*** tstop() called on c419-121.stampede2.tacc.utexas.edu at Sun Mar  7 05:31:26 2021
Module time:
	user time   =     661.18 seconds =      11.02 minutes
	system time =      43.89 seconds =       0.73 minutes
	total time  =         36 seconds =       0.60 minutes
Total time:
	user time   =     661.18 seconds =      11.02 minutes
	system time =      43.89 seconds =       0.73 minutes
	total time  =         36 seconds =       0.60 minutes
   => Loading Basis Set <=

    Name: (AUG-CC-PVTZ AUX)
    Role: RIFIT
    Keyword: DF_BASIS_MP2
    atoms 1     entry N          line   206 file /home1/07844/xy3866/miniconda3/envs/p4env/share/psi4/basis/aug-cc-pvtz-ri.gbs 
    atoms 2-9   entry C          line   148 file /home1/07844/xy3866/miniconda3/envs/p4env/share/psi4/basis/aug-cc-pvtz-ri.gbs 
    atoms 10-21 entry H          line    30 file /home1/07844/xy3866/miniconda3/envs/p4env/share/psi4/basis/aug-cc-pvtz-ri.gbs 


*** tstart() called on c419-121.stampede2.tacc.utexas.edu
*** at Sun Mar  7 05:31:27 2021


  //>>>>>>>>>>>>>>>>>>>>>>>>>>>>>>>>>>>//
  //               DFMP2               //
  //<<<<<<<<<<<<<<<<<<<<<<<<<<<<<<<<<<<//

	 --------------------------------------------------------
	                          DF-MP2                         
	      2nd-Order Density-Fitted Moller-Plesset Theory     
	              RMP2 Wavefunction,  32 Threads             
	                                                         
	        Rob Parrish, Justin Turney, Andy Simmonett,      
	           Ed Hohenstein, and C. David Sherrill          
	 --------------------------------------------------------

   => Auxiliary Basis Set <=

  Basis Set: (AUG-CC-PVTZ AUX)
    Blend: AUG-CC-PVTZ-RI
    Number of shells: 420
    Number of basis functions: 1506
    Number of Cartesian functions: 1884
    Spherical Harmonics?: true
    Max angular momentum: 4

	 --------------------------------------------------------
	                 NBF =   690, NAUX =  1506
	 --------------------------------------------------------
	   CLASS    FOCC     OCC    AOCC    AVIR     VIR    FVIR
	   PAIRS       0      33      33     657     657       0
	 --------------------------------------------------------

  DFHelper Memory: AOs need 5.187 GiB; user supplied 22.352 GiB. Using in-core AOs.


         ------------------------------------------------------------
                                     CPHF                           
                                  Rob Parrish                       
         ------------------------------------------------------------

  ==> Geometry <==

    Molecular point group: c1
    Full point group: C1

    Geometry (in Angstrom), charge = 1, multiplicity = 1:

       Center              X                  Y                   Z               Mass       
    ------------   -----------------  -----------------  -----------------  -----------------
         N           -2.808652233513    -0.000252543049     0.014120160406    14.003074004430
         C           -1.318220233513    -0.000208543049    -0.013916839594    12.000000000000
         C            0.733220766487     1.230101456951    -0.012034839594    12.000000000000
         C            0.733286766487    -1.230405543049    -0.012026839594    12.000000000000
         C           -0.667411233513    -1.226605543049    -0.006038839594    12.000000000000
         C           -0.667480233513     1.226222456951    -0.006045839594    12.000000000000
         C            1.404062766487    -0.000132543049    -0.009837839594    12.000000000000
         C            1.499437766487     2.525151456951     0.014382160406    12.000000000000
         C            1.499586766487    -2.525406543049     0.014378160406    12.000000000000
         H           -1.219011233513    -2.166136543049    -0.012899839594     1.007825032230
         H           -1.219130233513     2.165724456951    -0.012911839594     1.007825032230
         H            2.493119766487    -0.000103543049    -0.023067839594     1.007825032230
         H           -3.172208133513     0.849198456951    -0.439808039594     1.007825032230
         H           -3.190472233513    -0.828766543049    -0.462921839594     1.007825032230
         H           -3.177600233513    -0.000404543049     0.975946160406     1.007825032230
         H            0.883100766487     3.360419456951    -0.326668839594     1.007825032230
         H            1.840978766487     2.749387456951     1.029877160406     1.007825032230
         H            2.381453766487     2.467406456951    -0.628063839594     1.007825032230
         H            2.381422766487    -2.467706543049    -0.628320839594     1.007825032230
         H            0.883206766487    -3.360764543049    -0.326374839594     1.007825032230
         H            1.841423766487    -2.749464543049     1.029811160406     1.007825032230

  Nuclear repulsion =  432.374189287402828
  Reference energy  = -364.294240776580068

  ==> Basis Set <==

  Basis Set: AUG-CC-PVTZ
    Blend: AUG-CC-PVTZ
    Number of shells: 234
    Number of basis functions: 690
    Number of Cartesian functions: 795
    Spherical Harmonics?: true
    Max angular momentum: 3

  ==> CGRSolver (by Rob Parrish) <==

   Number of roots    =         1
   Preconditioning    =    JACOBI
   Convergence cutoff =     1E-06
   Maximum iterations =       100

  ==> CPHFRHamiltonian (by Rob Parrish) <== 

  ==> MemDFJK: Density-Fitted J/K Matrices <==

    J tasked:                   Yes
    K tasked:                   Yes
    wK tasked:                   No
    OpenMP threads:              32
    Memory [MiB]:             22888
    Algorithm:                 Core
    Schwarz Cutoff:           1E-12
    Mask sparsity (%):       6.0143
    Fitting Condition:        1E-10

   => Auxiliary Basis Set <=

  Basis Set: (AUG-CC-PVTZ AUX)
    Blend: AUG-CC-PVTZ-JKFIT
    Number of shells: 438
    Number of basis functions: 1488
    Number of Cartesian functions: 1839
    Spherical Harmonics?: true
    Max angular momentum: 4

  ==> CPHF Iterations <==

  => Iterations <=

             Iter  Converged  Remaining    Residual
  CGR           1          0          1   7.330E-02
  CGR           2          0          1   1.742E-02
  CGR           3          0          1   9.949E-03
  CGR           4          0          1   4.721E-03
  CGR           5          0          1   1.288E-03
  CGR           6          0          1   4.758E-04
  CGR           7          0          1   1.335E-04
  CGR           8          0          1   4.909E-05
  CGR           9          0          1   1.624E-05
  CGR          10          0          1   4.024E-06
  CGR          11          1          0   8.323E-07

    CGRSolver converged.

	-----------------------------------------------------------
	 ==================> DF-MP2 Energies <==================== 
	-----------------------------------------------------------
	 Reference Energy          =    -364.2942407765800681 [Eh]
	 Singles Energy            =      -0.0000000000000000 [Eh]
	 Same-Spin Energy          =      -0.3971803950910818 [Eh]
	 Opposite-Spin Energy      =      -1.3053362912685902 [Eh]
	 Correlation Energy        =      -1.7025166863596719 [Eh]
	 Total Energy              =    -365.9967574629397404 [Eh]
	-----------------------------------------------------------
	 ================> DF-SCS-MP2 Energies <================== 
	-----------------------------------------------------------
	 SCS Same-Spin Scale       =       0.3333333333333333 [-]
	 SCS Opposite-Spin Scale   =       1.2000000000000000 [-]
	 SCS Same-Spin Energy      =      -0.1323934650303606 [Eh]
	 SCS Opposite-Spin Energy  =      -1.5664035495223081 [Eh]
	 SCS Correlation Energy    =      -1.6987970145526687 [Eh]
	 SCS Total Energy          =    -365.9930377911327355 [Eh]
	-----------------------------------------------------------



Properties will be evaluated at  -0.000000,  -0.000000,   0.000000 [a0]

Properties computed using the MP2 density matrix

  Nuclear Dipole Moment: [e a0]
     X:     0.6890      Y:     0.0176      Z:     0.1636

  Electronic Dipole Moment: [e a0]
     X:    -3.9712      Y:    -0.0119      Z:    -0.0863

  Dipole Moment: [e a0]
     X:    -3.2822      Y:     0.0058      Z:     0.0774     Total:     3.2831

  Dipole Moment: [D]
     X:    -8.3426      Y:     0.0146      Z:     0.1967     Total:     8.3449


*** tstop() called on c419-121.stampede2.tacc.utexas.edu at Sun Mar  7 05:34:58 2021
Module time:
	user time   =    1943.68 seconds =      32.39 minutes
	system time =      61.39 seconds =       1.02 minutes
	total time  =        211 seconds =       3.52 minutes
Total time:
	user time   =    2605.89 seconds =      43.43 minutes
	system time =     105.30 seconds =       1.75 minutes
	total time  =        248 seconds =       4.13 minutes

    Psi4 stopped on: Sunday, 07 March 2021 05:34AM
    Psi4 wall time for execution: 0:04:09.00

*** Psi4 exiting successfully. Buy a developer a beer!
