
    -----------------------------------------------------------------------
          Psi4: An Open-Source Ab Initio Electronic Structure Package
                               Psi4 1.3.2 release

                         Git: Rev {HEAD} ecbda83 


    R. M. Parrish, L. A. Burns, D. G. A. Smith, A. C. Simmonett,
    A. E. DePrince III, E. G. Hohenstein, U. Bozkaya, A. Yu. Sokolov,
    R. Di Remigio, R. M. Richard, J. F. Gonthier, A. M. James,
    H. R. McAlexander, A. Kumar, M. Saitow, X. Wang, B. P. Pritchard,
    P. Verma, H. F. Schaefer III, K. Patkowski, R. A. King, E. F. Valeev,
    F. A. Evangelista, J. M. Turney, T. D. Crawford, and C. D. Sherrill,
    J. Chem. Theory Comput. 13(7) pp 3185--3197 (2017).
    (doi: 10.1021/acs.jctc.7b00174)


                         Additional Contributions by
    P. Kraus, H. Kruse, M. H. Lechner, M. C. Schieber, R. A. Shaw,
    A. Alenaizan, R. Galvelis, Z. L. Glick, S. Lehtola, and J. P. Misiewicz

    -----------------------------------------------------------------------


    Psi4 started on: Tuesday, 03 November 2020 08:29PM

    Process ID: 12108
    Host:       node74.bme.utexas.edu
    PSIDATADIR: /home/xy3866/psi4conda/share/psi4
    Memory:     500.0 MiB
    Threads:    8
    
  ==> Input File <==

--------------------------------------------------------------------------
#psi4
#
memory 32 gb

molecule  {
0 1
  O       -2.2334690    -1.1675340     0.0001340
  N        0.0265130    -0.9084710    -0.0000270
  N        2.3544690    -0.8475160    -0.0005320
  N       -1.4642636     1.1239499     0.0002211
  C        1.1706060    -0.1768690    -0.0001310
  C        1.0385970     1.1986830    -0.0000890
  C       -1.2978830    -0.3751090     0.0001540
  C       -0.2757380     1.7018570     0.0000510
  H        0.0506260    -1.9247470    -0.0002200
  H        1.9024710     1.8518520    -0.0001620
  H       -0.4079780     2.7850560     0.0002120
  H        3.2235170    -0.3366370     0.0005700
  H        2.4001700    -1.8548790     0.0010060
units angstrom
no_reorient  #important for SAPT in psi4, default
symmetry c1  #important for SAPT in psi4, default
}

set PROPERTIES_ORIGIN ["COM"]
properties('MP2/aug-cc-pvtz', properties = ['dipole'])
--------------------------------------------------------------------------

  Memory set to  29.802 GiB by Python driver.
    SCF Algorithm Type (re)set to DF.

*** tstart() called on node74.bme.utexas.edu
*** at Tue Nov  3 20:29:28 2020

   => Loading Basis Set <=

    Name: AUG-CC-PVTZ
    Role: ORBITAL
    Keyword: BASIS
    atoms 1    entry O          line   327 file /home/xy3866/psi4conda/share/psi4/basis/aug-cc-pvtz.gbs 
    atoms 2-4  entry N          line   281 file /home/xy3866/psi4conda/share/psi4/basis/aug-cc-pvtz.gbs 
    atoms 5-8  entry C          line   235 file /home/xy3866/psi4conda/share/psi4/basis/aug-cc-pvtz.gbs 
    atoms 9-13 entry H          line    36 file /home/xy3866/psi4conda/share/psi4/basis/aug-cc-pvtz.gbs 


         ---------------------------------------------------------
                                   SCF
               by Justin Turney, Rob Parrish, Andy Simmonett
                          and Daniel G. A. Smith
                              RHF Reference
                        8 Threads,  30517 MiB Core
         ---------------------------------------------------------

  ==> Geometry <==

    Molecular point group: c1
    Full point group: C1

    Geometry (in Angstrom), charge = 0, multiplicity = 1:

       Center              X                  Y                   Z               Mass       
    ------------   -----------------  -----------------  -----------------  -----------------
         O           -2.161106354161    -1.178182049368     0.000146169294    15.994914619570
         N            0.098875645839    -0.919119049368    -0.000014830706    14.003074004430
         N            2.426831645839    -0.858164049368    -0.000519830706    14.003074004430
         N           -1.391900954161     1.113301850632     0.000233269294    14.003074004430
         C            1.242968645839    -0.187517049368    -0.000118830706    12.000000000000
         C            1.110959645839     1.188034950632    -0.000076830706    12.000000000000
         C           -1.225520354161    -0.385757049368     0.000166169294    12.000000000000
         C           -0.203375354161     1.691208950632     0.000063169294    12.000000000000
         H            0.122988645839    -1.935395049368    -0.000207830706     1.007825032230
         H            1.974833645839     1.841203950632    -0.000149830706     1.007825032230
         H           -0.335615354161     2.774407950632     0.000224169294     1.007825032230
         H            3.295879645839    -0.347285049368     0.000582169294     1.007825032230
         H            2.472532645839    -1.865527049368     0.001018169294     1.007825032230

  Running in c1 symmetry.

  Rotational constants: A =      0.12604  B =      0.06547  C =      0.04309 [cm^-1]
  Rotational constants: A =   3778.65335  B =   1962.80493  C =   1291.79021 [MHz]
  Nuclear repulsion =  352.054750866884888

  Charge       = 0
  Multiplicity = 1
  Electrons    = 58
  Nalpha       = 29
  Nbeta        = 29

  ==> Algorithm <==

  SCF Algorithm Type is DF.
  DIIS enabled.
  MOM disabled.
  Fractional occupation disabled.
  Guess Type is SAD.
  Energy threshold   = 1.00e-10
  Density threshold  = 1.00e-10
  Integral threshold = 0.00e+00

  ==> Primary Basis <==

  Basis Set: AUG-CC-PVTZ
    Blend: AUG-CC-PVTZ
    Number of shells: 157
    Number of basis function: 483
    Number of Cartesian functions: 565
    Spherical Harmonics?: true
    Max angular momentum: 3

   => Loading Basis Set <=

    Name: (AUG-CC-PVTZ AUX)
    Role: JKFIT
    Keyword: DF_BASIS_SCF
    atoms 1    entry O          line   286 file /home/xy3866/psi4conda/share/psi4/basis/aug-cc-pvtz-jkfit.gbs 
    atoms 2-4  entry N          line   224 file /home/xy3866/psi4conda/share/psi4/basis/aug-cc-pvtz-jkfit.gbs 
    atoms 5-8  entry C          line   162 file /home/xy3866/psi4conda/share/psi4/basis/aug-cc-pvtz-jkfit.gbs 
    atoms 9-13 entry H          line    70 file /home/xy3866/psi4conda/share/psi4/basis/aug-cc-pvtz-jkfit.gbs 

  ==> Pre-Iterations <==

   -------------------------------------------------------
    Irrep   Nso     Nmo     Nalpha   Nbeta   Ndocc  Nsocc
   -------------------------------------------------------
     A        483     483       0       0       0       0
   -------------------------------------------------------
    Total     483     483      29      29      29       0
   -------------------------------------------------------

  ==> Integral Setup <==

  DFHelper Memory: AOs need 1.860 GiB; user supplied 22.352 GiB. Using in-core AOs.

  ==> MemDFJK: Density-Fitted J/K Matrices <==

    J tasked:                   Yes
    K tasked:                   Yes
    wK tasked:                   No
    OpenMP threads:               8
    Memory [MiB]:             22888
    Algorithm:                 Core
    Schwarz Cutoff:           1E-12
    Mask sparsity (%):       2.9997
    Fitting Condition:        1E-10

   => Auxiliary Basis Set <=

  Basis Set: (AUG-CC-PVTZ AUX)
    Blend: AUG-CC-PVTZ-JKFIT
    Number of shells: 310
    Number of basis function: 1062
    Number of Cartesian functions: 1323
    Spherical Harmonics?: true
    Max angular momentum: 4

  Minimum eigenvalue in the overlap matrix is 3.1684375651E-06.
  Using Symmetric Orthogonalization.

  SCF Guess: Superposition of Atomic Densities via on-the-fly atomic UHF.

  ==> Iterations <==

                           Total Energy        Delta E     RMS |[F,P]|

   @DF-RHF iter SAD:  -391.89305593908273   -3.91893e+02   0.00000e+00 
   @DF-RHF iter   1:  -392.47456091573861   -5.81505e-01   1.50991e-03 DIIS
   @DF-RHF iter   2:  -392.66464195081863   -1.90081e-01   8.91755e-04 DIIS
   @DF-RHF iter   3:  -392.72880574770966   -6.41638e-02   1.74615e-04 DIIS
   @DF-RHF iter   4:  -392.73284538190762   -4.03963e-03   7.37886e-05 DIIS
   @DF-RHF iter   5:  -392.73370806053765   -8.62679e-04   1.65312e-05 DIIS
   @DF-RHF iter   6:  -392.73382477590997   -1.16715e-04   8.67742e-06 DIIS
   @DF-RHF iter   7:  -392.73385253436606   -2.77585e-05   3.44404e-06 DIIS
   @DF-RHF iter   8:  -392.73385740616374   -4.87180e-06   1.20528e-06 DIIS
   @DF-RHF iter   9:  -392.73385781323532   -4.07072e-07   5.05433e-07 DIIS
   @DF-RHF iter  10:  -392.73385788606856   -7.28332e-08   1.67997e-07 DIIS
   @DF-RHF iter  11:  -392.73385789864096   -1.25724e-08   5.76853e-08 DIIS
   @DF-RHF iter  12:  -392.73385789975322   -1.11226e-09   2.29125e-08 DIIS
   @DF-RHF iter  13:  -392.73385789992597   -1.72747e-10   9.40263e-09 DIIS
   @DF-RHF iter  14:  -392.73385789996769   -4.17231e-11   4.58108e-09 DIIS
   @DF-RHF iter  15:  -392.73385789997724   -9.54969e-12   1.41499e-09 DIIS
   @DF-RHF iter  16:  -392.73385789997752   -2.84217e-13   5.14007e-10 DIIS
   @DF-RHF iter  17:  -392.73385789997712    3.97904e-13   1.92161e-10 DIIS
   @DF-RHF iter  18:  -392.73385789997639    7.38964e-13   8.57272e-11 DIIS
  Energy and wave function converged.


  ==> Post-Iterations <==

    Orbital Energies [Eh]
    ---------------------

    Doubly Occupied:                                                      

       1A    -20.522902     2A    -15.637139     3A    -15.629112  
       4A    -15.563738     5A    -11.387432     6A    -11.383831  
       7A    -11.300158     8A    -11.231018     9A     -1.390418  
      10A     -1.326215    11A     -1.236097    12A     -1.194182  
      13A     -1.051611    14A     -0.899720    15A     -0.877832  
      16A     -0.786368    17A     -0.743411    18A     -0.724023  
      19A     -0.680290    20A     -0.636984    21A     -0.635507  
      22A     -0.623526    23A     -0.556330    24A     -0.544532  
      25A     -0.468548    26A     -0.463700    27A     -0.444835  
      28A     -0.412861    29A     -0.324320  

    Virtual:                                                              

      30A      0.008093    31A      0.024930    32A      0.036042  
      33A      0.049261    34A      0.061397    35A      0.066229  
      36A      0.084268    37A      0.093875    38A      0.096781  
      39A      0.100886    40A      0.102277    41A      0.105375  
      42A      0.106867    43A      0.115974    44A      0.121689  
      45A      0.130408    46A      0.136032    47A      0.139534  
      48A      0.146379    49A      0.149576    50A      0.154587  
      51A      0.164055    52A      0.166912    53A      0.174997  
      54A      0.184732    55A      0.196164    56A      0.210045  
      57A      0.224150    58A      0.228006    59A      0.236012  
      60A      0.251112    61A      0.254667    62A      0.258198  
      63A      0.262138    64A      0.267106    65A      0.270438  
      66A      0.274966    67A      0.277914    68A      0.283015  
      69A      0.293997    70A      0.303844    71A      0.306763  
      72A      0.314626    73A      0.319537    74A      0.328945  
      75A      0.333474    76A      0.336205    77A      0.342305  
      78A      0.364507    79A      0.364626    80A      0.379689  
      81A      0.379773    82A      0.381393    83A      0.388773  
      84A      0.399390    85A      0.403707    86A      0.407757  
      87A      0.417661    88A      0.426602    89A      0.433015  
      90A      0.442988    91A      0.448736    92A      0.459457  
      93A      0.464136    94A      0.470711    95A      0.480056  
      96A      0.482099    97A      0.488676    98A      0.496222  
      99A      0.508445   100A      0.509581   101A      0.512928  
     102A      0.522251   103A      0.528505   104A      0.537169  
     105A      0.550605   106A      0.557272   107A      0.560739  
     108A      0.576563   109A      0.596884   110A      0.599538  
     111A      0.621382   112A      0.631855   113A      0.632521  
     114A      0.641327   115A      0.642243   116A      0.648885  
     117A      0.666668   118A      0.681265   119A      0.684097  
     120A      0.691848   121A      0.698983   122A      0.714196  
     123A      0.720838   124A      0.722616   125A      0.732605  
     126A      0.732765   127A      0.751549   128A      0.755417  
     129A      0.772273   130A      0.776601   131A      0.780298  
     132A      0.794027   133A      0.803739   134A      0.810161  
     135A      0.828010   136A      0.837104   137A      0.853708  
     138A      0.858386   139A      0.870934   140A      0.878504  
     141A      0.888653   142A      0.893607   143A      0.898191  
     144A      0.918835   145A      0.919182   146A      0.924116  
     147A      0.929894   148A      0.940970   149A      0.960869  
     150A      0.963742   151A      0.983138   152A      0.984465  
     153A      0.986580   154A      0.999202   155A      0.999733  
     156A      1.005040   157A      1.019341   158A      1.026419  
     159A      1.031129   160A      1.040249   161A      1.057869  
     162A      1.063665   163A      1.072403   164A      1.074890  
     165A      1.085718   166A      1.086607   167A      1.099492  
     168A      1.104777   169A      1.113850   170A      1.131612  
     171A      1.138296   172A      1.149879   173A      1.165594  
     174A      1.171901   175A      1.175483   176A      1.177783  
     177A      1.194032   178A      1.196279   179A      1.207556  
     180A      1.216369   181A      1.220528   182A      1.227645  
     183A      1.234747   184A      1.254312   185A      1.265816  
     186A      1.269239   187A      1.271702   188A      1.278727  
     189A      1.303955   190A      1.305466   191A      1.330136  
     192A      1.336325   193A      1.344875   194A      1.353156  
     195A      1.373756   196A      1.387426   197A      1.389250  
     198A      1.413879   199A      1.421503   200A      1.429841  
     201A      1.429940   202A      1.436426   203A      1.448784  
     204A      1.458384   205A      1.470667   206A      1.477809  
     207A      1.499325   208A      1.519517   209A      1.522370  
     210A      1.532326   211A      1.536084   212A      1.562744  
     213A      1.578200   214A      1.581744   215A      1.608323  
     216A      1.626459   217A      1.634153   218A      1.650910  
     219A      1.659938   220A      1.689180   221A      1.709632  
     222A      1.717244   223A      1.731606   224A      1.745463  
     225A      1.747559   226A      1.751935   227A      1.762750  
     228A      1.768262   229A      1.783922   230A      1.790251  
     231A      1.810053   232A      1.847348   233A      1.852712  
     234A      1.868873   235A      1.891884   236A      1.905609  
     237A      1.940426   238A      1.944409   239A      1.979679  
     240A      1.988768   241A      2.002039   242A      2.005476  
     243A      2.026972   244A      2.031548   245A      2.041603  
     246A      2.064634   247A      2.066536   248A      2.086907  
     249A      2.105608   250A      2.133172   251A      2.142929  
     252A      2.149843   253A      2.156023   254A      2.178120  
     255A      2.184381   256A      2.215313   257A      2.223838  
     258A      2.242726   259A      2.247797   260A      2.273213  
     261A      2.280862   262A      2.304436   263A      2.313443  
     264A      2.314652   265A      2.339784   266A      2.345721  
     267A      2.392035   268A      2.403043   269A      2.409544  
     270A      2.422977   271A      2.469357   272A      2.482932  
     273A      2.490876   274A      2.505907   275A      2.515661  
     276A      2.515841   277A      2.522220   278A      2.531914  
     279A      2.553928   280A      2.558367   281A      2.574741  
     282A      2.588002   283A      2.608165   284A      2.631697  
     285A      2.633411   286A      2.666742   287A      2.691775  
     288A      2.701235   289A      2.715116   290A      2.754344  
     291A      2.756758   292A      2.771038   293A      2.786219  
     294A      2.824575   295A      2.859358   296A      2.923087  
     297A      2.950573   298A      2.959195   299A      3.002919  
     300A      3.004850   301A      3.011238   302A      3.023874  
     303A      3.035055   304A      3.103370   305A      3.150866  
     306A      3.177722   307A      3.227842   308A      3.244259  
     309A      3.265826   310A      3.272898   311A      3.302516  
     312A      3.313621   313A      3.365691   314A      3.369322  
     315A      3.400131   316A      3.422215   317A      3.450421  
     318A      3.466395   319A      3.477063   320A      3.511629  
     321A      3.549632   322A      3.560298   323A      3.565654  
     324A      3.623414   325A      3.641644   326A      3.643423  
     327A      3.646844   328A      3.687148   329A      3.710245  
     330A      3.711001   331A      3.727303   332A      3.748455  
     333A      3.756169   334A      3.781698   335A      3.790878  
     336A      3.828859   337A      3.834338   338A      3.869147  
     339A      3.887556   340A      3.900686   341A      3.930612  
     342A      3.941202   343A      3.951841   344A      3.959734  
     345A      4.012277   346A      4.014275   347A      4.033539  
     348A      4.051650   349A      4.069989   350A      4.095222  
     351A      4.098111   352A      4.116753   353A      4.139142  
     354A      4.144845   355A      4.159179   356A      4.176865  
     357A      4.183095   358A      4.214070   359A      4.223494  
     360A      4.251885   361A      4.253592   362A      4.279760  
     363A      4.292453   364A      4.303638   365A      4.321548  
     366A      4.347510   367A      4.349932   368A      4.382409  
     369A      4.383085   370A      4.401813   371A      4.429991  
     372A      4.452829   373A      4.500709   374A      4.514207  
     375A      4.515232   376A      4.531804   377A      4.568798  
     378A      4.589357   379A      4.624858   380A      4.652749  
     381A      4.678420   382A      4.704178   383A      4.736084  
     384A      4.758532   385A      4.790966   386A      4.801977  
     387A      4.837328   388A      4.861929   389A      4.867974  
     390A      4.885608   391A      4.914142   392A      4.916552  
     393A      4.949150   394A      4.963951   395A      4.991179  
     396A      4.994596   397A      5.042723   398A      5.051129  
     399A      5.073862   400A      5.106175   401A      5.117438  
     402A      5.123045   403A      5.146289   404A      5.156253  
     405A      5.185733   406A      5.221725   407A      5.243702  
     408A      5.270516   409A      5.324881   410A      5.342576  
     411A      5.359124   412A      5.397566   413A      5.409184  
     414A      5.425966   415A      5.462491   416A      5.476300  
     417A      5.493919   418A      5.517857   419A      5.523930  
     420A      5.528103   421A      5.566001   422A      5.568794  
     423A      5.631159   424A      5.635641   425A      5.658202  
     426A      5.672602   427A      5.728668   428A      5.764424  
     429A      5.782395   430A      5.807291   431A      5.835435  
     432A      5.854166   433A      5.882178   434A      5.930566  
     435A      5.976757   436A      5.983592   437A      6.014949  
     438A      6.040420   439A      6.066100   440A      6.129565  
     441A      6.148638   442A      6.163509   443A      6.182643  
     444A      6.296549   445A      6.338967   446A      6.374464  
     447A      6.498073   448A      6.537972   449A      6.568987  
     450A      6.606554   451A      6.620845   452A      6.680142  
     453A      6.713559   454A      6.729640   455A      6.754266  
     456A      6.803852   457A      6.828272   458A      6.873181  
     459A      6.983326   460A      6.983867   461A      7.084873  
     462A      7.131612   463A      7.158558   464A      7.253166  
     465A      7.375250   466A      7.378780   467A      7.435265  
     468A      7.510539   469A      7.646091   470A      7.670482  
     471A      7.689553   472A      7.721962   473A      7.847795  
     474A      7.888327   475A      7.988245   476A     15.269450  
     477A     15.518193   478A     16.040861   479A     17.936966  
     480A     18.206414   481A     18.634493   482A     19.343308  
     483A     20.094543  

    Final Occupation by Irrep:
              A 
    DOCC [    29 ]

  @DF-RHF Final Energy:  -392.73385789997639

   => Energetics <=

    Nuclear Repulsion Energy =            352.0547508668848877
    One-Electron Energy =               -1232.2239400007342738
    Two-Electron Energy =                 487.4353312338730007
    Total Energy =                       -392.7338578999763854

Computation Completed

*** tstop() called on node74.bme.utexas.edu at Tue Nov  3 20:29:42 2020
Module time:
	user time   =      89.79 seconds =       1.50 minutes
	system time =       8.62 seconds =       0.14 minutes
	total time  =         14 seconds =       0.23 minutes
Total time:
	user time   =      89.79 seconds =       1.50 minutes
	system time =       8.62 seconds =       0.14 minutes
	total time  =         14 seconds =       0.23 minutes
   => Loading Basis Set <=

    Name: (AUG-CC-PVTZ AUX)
    Role: RIFIT
    Keyword: DF_BASIS_MP2
    atoms 1    entry O          line   264 file /home/xy3866/psi4conda/share/psi4/basis/aug-cc-pvtz-ri.gbs 
    atoms 2-4  entry N          line   206 file /home/xy3866/psi4conda/share/psi4/basis/aug-cc-pvtz-ri.gbs 
    atoms 5-8  entry C          line   148 file /home/xy3866/psi4conda/share/psi4/basis/aug-cc-pvtz-ri.gbs 
    atoms 9-13 entry H          line    30 file /home/xy3866/psi4conda/share/psi4/basis/aug-cc-pvtz-ri.gbs 


*** tstart() called on node74.bme.utexas.edu
*** at Tue Nov  3 20:29:42 2020


  //>>>>>>>>>>>>>>>>>>>>>>>>>>>>>>>>>>>//
  //               DFMP2               //
  //<<<<<<<<<<<<<<<<<<<<<<<<<<<<<<<<<<<//

	 --------------------------------------------------------
	                          DF-MP2                         
	      2nd-Order Density-Fitted Moller-Plesset Theory     
	              RMP2 Wavefunction,   8 Threads             
	                                                         
	        Rob Parrish, Justin Turney, Andy Simmonett,      
	           Ed Hohenstein, and C. David Sherrill          
	 --------------------------------------------------------

   => Auxiliary Basis Set <=

  Basis Set: (AUG-CC-PVTZ AUX)
    Blend: AUG-CC-PVTZ-RI
    Number of shells: 294
    Number of basis function: 1078
    Number of Cartesian functions: 1363
    Spherical Harmonics?: true
    Max angular momentum: 4

	 --------------------------------------------------------
	                 NBF =   483, NAUX =  1078
	 --------------------------------------------------------
	   CLASS    FOCC     OCC    AOCC    AVIR     VIR    FVIR
	   PAIRS       0      29      29     454     454       0
	 --------------------------------------------------------

  DFHelper Memory: AOs need 1.860 GiB; user supplied 22.352 GiB. Using in-core AOs.


         ------------------------------------------------------------
                                     CPHF                           
                                  Rob Parrish                       
         ------------------------------------------------------------

  ==> Geometry <==

    Molecular point group: c1
    Full point group: C1

    Geometry (in Angstrom), charge = 0, multiplicity = 1:

       Center              X                  Y                   Z               Mass       
    ------------   -----------------  -----------------  -----------------  -----------------
         O           -2.161106354161    -1.178182049368     0.000146169294    15.994914619570
         N            0.098875645839    -0.919119049368    -0.000014830706    14.003074004430
         N            2.426831645839    -0.858164049368    -0.000519830706    14.003074004430
         N           -1.391900954161     1.113301850632     0.000233269294    14.003074004430
         C            1.242968645839    -0.187517049368    -0.000118830706    12.000000000000
         C            1.110959645839     1.188034950632    -0.000076830706    12.000000000000
         C           -1.225520354161    -0.385757049368     0.000166169294    12.000000000000
         C           -0.203375354161     1.691208950632     0.000063169294    12.000000000000
         H            0.122988645839    -1.935395049368    -0.000207830706     1.007825032230
         H            1.974833645839     1.841203950632    -0.000149830706     1.007825032230
         H           -0.335615354161     2.774407950632     0.000224169294     1.007825032230
         H            3.295879645839    -0.347285049368     0.000582169294     1.007825032230
         H            2.472532645839    -1.865527049368     0.001018169294     1.007825032230

  Nuclear repulsion =  352.054750866884888
  Reference energy  = -392.733857899976385

  ==> Basis Set <==

  Basis Set: AUG-CC-PVTZ
    Blend: AUG-CC-PVTZ
    Number of shells: 157
    Number of basis function: 483
    Number of Cartesian functions: 565
    Spherical Harmonics?: true
    Max angular momentum: 3

  ==> CGRSolver (by Rob Parrish) <==

   Number of roots    =         1
   Preconditioning    =    JACOBI
   Convergence cutoff =     1E-06
   Maximum iterations =       100

  ==> CPHFRHamiltonian (by Rob Parrish) <== 

  ==> MemDFJK: Density-Fitted J/K Matrices <==

    J tasked:                   Yes
    K tasked:                   Yes
    wK tasked:                   No
    OpenMP threads:               8
    Memory [MiB]:             22888
    Algorithm:                 Core
    Schwarz Cutoff:           1E-12
    Mask sparsity (%):       2.9997
    Fitting Condition:        1E-10

   => Auxiliary Basis Set <=

  Basis Set: (AUG-CC-PVTZ AUX)
    Blend: AUG-CC-PVTZ-JKFIT
    Number of shells: 310
    Number of basis function: 1062
    Number of Cartesian functions: 1323
    Spherical Harmonics?: true
    Max angular momentum: 4

  ==> CPHF Iterations <==

  => Iterations <=

             Iter  Converged  Remaining    Residual
  CGR           1          0          1   1.543E-01
  CGR           2          0          1   5.159E-02
  CGR           3          0          1   2.419E-02
  CGR           4          0          1   7.083E-03
  CGR           5          0          1   3.513E-03
  CGR           6          0          1   1.579E-03
  CGR           7          0          1   5.491E-04
  CGR           8          0          1   2.274E-04
  CGR           9          0          1   8.091E-05
  CGR          10          0          1   2.490E-05
  CGR          11          0          1   8.339E-06
  CGR          12          0          1   3.370E-06
  CGR          13          0          1   1.038E-06
  CGR          14          1          0   3.568E-07

    CGRSolver converged.

	-----------------------------------------------------------
	 ==================> DF-MP2 Energies <==================== 
	-----------------------------------------------------------
	 Reference Energy          =    -392.7338578999763854 [Eh]
	 Singles Energy            =      -0.0000000000000000 [Eh]
	 Same-Spin Energy          =      -0.4070105590541016 [Eh]
	 Opposite-Spin Energy      =      -1.2178448095478043 [Eh]
	 Correlation Energy        =      -1.6248553686019058 [Eh]
	 Total Energy              =    -394.3587132685782990 [Eh]
	-----------------------------------------------------------
	 ================> DF-SCS-MP2 Energies <================== 
	-----------------------------------------------------------
	 SCS Same-Spin Scale       =       0.3333333333333333 [-]
	 SCS Opposite-Spin Scale   =       1.2000000000000000 [-]
	 SCS Same-Spin Energy      =      -0.1356701863513672 [Eh]
	 SCS Opposite-Spin Energy  =      -1.4614137714573652 [Eh]
	 SCS Correlation Energy    =      -1.5970839578087324 [Eh]
	 SCS Total Energy          =    -394.3309418577850920 [Eh]
	-----------------------------------------------------------



Properties will be evaluated at   0.000000,  -0.000000,   0.000000 [a0]

Properties computed using the MP2 density matrix

  Nuclear Dipole Moment: [e a0]
     X:     7.0460      Y:     0.4344      Z:     0.0014

  Electronic Dipole Moment: [e a0]
     X:    -3.9337      Y:    -0.9567      Z:    -0.0002

  Dipole Moment: [e a0]
     X:     3.1123      Y:    -0.5223      Z:     0.0012     Total:     3.1559

  Dipole Moment: [D]
     X:     7.9108      Y:    -1.3275      Z:     0.0030     Total:     8.0214


*** tstop() called on node74.bme.utexas.edu at Tue Nov  3 20:30:35 2020
Module time:
	user time   =     303.86 seconds =       5.06 minutes
	system time =      25.64 seconds =       0.43 minutes
	total time  =         53 seconds =       0.88 minutes
Total time:
	user time   =     394.47 seconds =       6.57 minutes
	system time =      34.31 seconds =       0.57 minutes
	total time  =         67 seconds =       1.12 minutes

    Psi4 stopped on: Tuesday, 03 November 2020 08:30PM
    Psi4 wall time for execution: 0:01:07.25

*** Psi4 exiting successfully. Buy a developer a beer!
