
    -----------------------------------------------------------------------
          Psi4: An Open-Source Ab Initio Electronic Structure Package
                               Psi4 1.3.2 release

                         Git: Rev {HEAD} ecbda83 


    R. M. Parrish, L. A. Burns, D. G. A. Smith, A. C. Simmonett,
    A. E. DePrince III, E. G. Hohenstein, U. Bozkaya, A. Yu. Sokolov,
    R. Di Remigio, R. M. Richard, J. F. Gonthier, A. M. James,
    H. R. McAlexander, A. Kumar, M. Saitow, X. Wang, B. P. Pritchard,
    P. Verma, H. F. Schaefer III, K. Patkowski, R. A. King, E. F. Valeev,
    F. A. Evangelista, J. M. Turney, T. D. Crawford, and C. D. Sherrill,
    J. Chem. Theory Comput. 13(7) pp 3185--3197 (2017).
    (doi: 10.1021/acs.jctc.7b00174)


                         Additional Contributions by
    P. Kraus, H. Kruse, M. H. Lechner, M. C. Schieber, R. A. Shaw,
    A. Alenaizan, R. Galvelis, Z. L. Glick, S. Lehtola, and J. P. Misiewicz

    -----------------------------------------------------------------------


    Psi4 started on: Tuesday, 03 November 2020 08:03PM

    Process ID: 9077
    Host:       node74.bme.utexas.edu
    PSIDATADIR: /home/xy3866/psi4conda/share/psi4
    Memory:     500.0 MiB
    Threads:    8
    
  ==> Input File <==

--------------------------------------------------------------------------
#psi4
#
memory 32 gb

molecule  {
0 1
  O       -2.2334690    -1.1675340     0.0001340
  N        0.0265130    -0.9084710    -0.0000270
  N        2.3303426    -0.8884237    -0.0005237
  N       -1.3973450     1.0028810     0.0002180
  C        1.1706060    -0.1768690    -0.0001310
  C        1.0385970     1.1986830    -0.0000890
  C       -1.2978830    -0.3751090     0.0001540
  C       -0.2757380     1.7018570     0.0000510
  H        0.0506260    -1.9247470    -0.0002200
  H        1.9024710     1.8518520    -0.0001620
  H       -0.4079780     2.7850560     0.0002120
  H        3.2235170    -0.3366370     0.0005700
  H        2.4001700    -1.8548790     0.0010060
units angstrom
no_reorient  #important for SAPT in psi4, default
symmetry c1  #important for SAPT in psi4, default
}

set PROPERTIES_ORIGIN ["COM"]
properties('MP2/aug-cc-pvtz', properties = ['dipole'])
--------------------------------------------------------------------------

  Memory set to  29.802 GiB by Python driver.
    SCF Algorithm Type (re)set to DF.

*** tstart() called on node74.bme.utexas.edu
*** at Tue Nov  3 20:03:22 2020

   => Loading Basis Set <=

    Name: AUG-CC-PVTZ
    Role: ORBITAL
    Keyword: BASIS
    atoms 1    entry O          line   327 file /home/xy3866/psi4conda/share/psi4/basis/aug-cc-pvtz.gbs 
    atoms 2-4  entry N          line   281 file /home/xy3866/psi4conda/share/psi4/basis/aug-cc-pvtz.gbs 
    atoms 5-8  entry C          line   235 file /home/xy3866/psi4conda/share/psi4/basis/aug-cc-pvtz.gbs 
    atoms 9-13 entry H          line    36 file /home/xy3866/psi4conda/share/psi4/basis/aug-cc-pvtz.gbs 


         ---------------------------------------------------------
                                   SCF
               by Justin Turney, Rob Parrish, Andy Simmonett
                          and Daniel G. A. Smith
                              RHF Reference
                        8 Threads,  30517 MiB Core
         ---------------------------------------------------------

  ==> Geometry <==

    Molecular point group: c1
    Full point group: C1

    Geometry (in Angstrom), charge = 0, multiplicity = 1:

       Center              X                  Y                   Z               Mass       
    ------------   -----------------  -----------------  -----------------  -----------------
         O           -2.166502650467    -1.157756043502     0.000145513550    15.994914619570
         N            0.093479349533    -0.898693043502    -0.000015486450    14.003074004430
         N            2.397308949533    -0.878645743502    -0.000512186450    14.003074004430
         N           -1.330378650467     1.012658956498     0.000229513550    14.003074004430
         C            1.237572349533    -0.167091043502    -0.000119486450    12.000000000000
         C            1.105563349533     1.208460956498    -0.000077486450    12.000000000000
         C           -1.230916650467    -0.365331043502     0.000165513550    12.000000000000
         C           -0.208771650467     1.711634956498     0.000062513550    12.000000000000
         H            0.117592349533    -1.914969043502    -0.000208486450     1.007825032230
         H            1.969437349533     1.861629956498    -0.000150486450     1.007825032230
         H           -0.341011650467     2.794833956498     0.000223513550     1.007825032230
         H            3.290483349533    -0.326859043502     0.000581513550     1.007825032230
         H            2.467136349533    -1.845101043502     0.001017513550     1.007825032230

  Running in c1 symmetry.

  Rotational constants: A =      0.12858  B =      0.06654  C =      0.04385 [cm^-1]
  Rotational constants: A =   3854.87348  B =   1994.92483  C =   1314.60651 [MHz]
  Nuclear repulsion =  355.290454501911029

  Charge       = 0
  Multiplicity = 1
  Electrons    = 58
  Nalpha       = 29
  Nbeta        = 29

  ==> Algorithm <==

  SCF Algorithm Type is DF.
  DIIS enabled.
  MOM disabled.
  Fractional occupation disabled.
  Guess Type is SAD.
  Energy threshold   = 1.00e-10
  Density threshold  = 1.00e-10
  Integral threshold = 0.00e+00

  ==> Primary Basis <==

  Basis Set: AUG-CC-PVTZ
    Blend: AUG-CC-PVTZ
    Number of shells: 157
    Number of basis function: 483
    Number of Cartesian functions: 565
    Spherical Harmonics?: true
    Max angular momentum: 3

   => Loading Basis Set <=

    Name: (AUG-CC-PVTZ AUX)
    Role: JKFIT
    Keyword: DF_BASIS_SCF
    atoms 1    entry O          line   286 file /home/xy3866/psi4conda/share/psi4/basis/aug-cc-pvtz-jkfit.gbs 
    atoms 2-4  entry N          line   224 file /home/xy3866/psi4conda/share/psi4/basis/aug-cc-pvtz-jkfit.gbs 
    atoms 5-8  entry C          line   162 file /home/xy3866/psi4conda/share/psi4/basis/aug-cc-pvtz-jkfit.gbs 
    atoms 9-13 entry H          line    70 file /home/xy3866/psi4conda/share/psi4/basis/aug-cc-pvtz-jkfit.gbs 

  ==> Pre-Iterations <==

   -------------------------------------------------------
    Irrep   Nso     Nmo     Nalpha   Nbeta   Ndocc  Nsocc
   -------------------------------------------------------
     A        483     483       0       0       0       0
   -------------------------------------------------------
    Total     483     483      29      29      29       0
   -------------------------------------------------------

  ==> Integral Setup <==

  DFHelper Memory: AOs need 1.861 GiB; user supplied 22.352 GiB. Using in-core AOs.

  ==> MemDFJK: Density-Fitted J/K Matrices <==

    J tasked:                   Yes
    K tasked:                   Yes
    wK tasked:                   No
    OpenMP threads:               8
    Memory [MiB]:             22888
    Algorithm:                 Core
    Schwarz Cutoff:           1E-12
    Mask sparsity (%):       2.9251
    Fitting Condition:        1E-10

   => Auxiliary Basis Set <=

  Basis Set: (AUG-CC-PVTZ AUX)
    Blend: AUG-CC-PVTZ-JKFIT
    Number of shells: 310
    Number of basis function: 1062
    Number of Cartesian functions: 1323
    Spherical Harmonics?: true
    Max angular momentum: 4

  Minimum eigenvalue in the overlap matrix is 3.1741896232E-06.
  Using Symmetric Orthogonalization.

  SCF Guess: Superposition of Atomic Densities via on-the-fly atomic UHF.

  ==> Iterations <==

                           Total Energy        Delta E     RMS |[F,P]|

   @DF-RHF iter SAD:  -392.08561752202871   -3.92086e+02   0.00000e+00 
   @DF-RHF iter   1:  -392.49266736881759   -4.07050e-01   1.50530e-03 DIIS
   @DF-RHF iter   2:  -392.68562600571914   -1.92959e-01   8.48804e-04 DIIS
   @DF-RHF iter   3:  -392.74305383380243   -5.74278e-02   1.64309e-04 DIIS
   @DF-RHF iter   4:  -392.74665432292238   -3.60049e-03   7.25030e-05 DIIS
   @DF-RHF iter   5:  -392.74744229118568   -7.87968e-04   1.63154e-05 DIIS
   @DF-RHF iter   6:  -392.74755261740705   -1.10326e-04   8.67147e-06 DIIS
   @DF-RHF iter   7:  -392.74758281081870   -3.01934e-05   3.88772e-06 DIIS
   @DF-RHF iter   8:  -392.74758936000512   -6.54919e-06   1.24777e-06 DIIS
   @DF-RHF iter   9:  -392.74759004959560   -6.89590e-07   5.70687e-07 DIIS
   @DF-RHF iter  10:  -392.74759016197970   -1.12384e-07   1.98885e-07 DIIS
   @DF-RHF iter  11:  -392.74759018420013   -2.22204e-08   7.01899e-08 DIIS
   @DF-RHF iter  12:  -392.74759018619847   -1.99833e-09   2.67380e-08 DIIS
   @DF-RHF iter  13:  -392.74759018646353   -2.65061e-10   1.11162e-08 DIIS
   @DF-RHF iter  14:  -392.74759018651270   -4.91696e-11   4.51345e-09 DIIS
   @DF-RHF iter  15:  -392.74759018652082   -8.12861e-12   1.36335e-09 DIIS
   @DF-RHF iter  16:  -392.74759018652242   -1.59162e-12   4.11076e-10 DIIS
   @DF-RHF iter  17:  -392.74759018652196    4.54747e-13   1.76545e-10 DIIS
   @DF-RHF iter  18:  -392.74759018652088    1.08002e-12   7.16991e-11 DIIS
  Energy and wave function converged.


  ==> Post-Iterations <==

    Orbital Energies [Eh]
    ---------------------

    Doubly Occupied:                                                      

       1A    -20.508895     2A    -15.630224     3A    -15.628618  
       4A    -15.546159     5A    -11.384582     6A    -11.375024  
       7A    -11.309783     8A    -11.234180     9A     -1.388433  
      10A     -1.324029    11A     -1.242431    12A     -1.197695  
      13A     -1.059228    14A     -0.911234    15A     -0.881528  
      16A     -0.792355    17A     -0.749238    18A     -0.716717  
      19A     -0.688937    20A     -0.638782    21A     -0.638384  
      22A     -0.620402    23A     -0.569946    24A     -0.547593  
      25A     -0.460625    26A     -0.447477    27A     -0.440730  
      28A     -0.415356    29A     -0.326586  

    Virtual:                                                              

      30A      0.008319    31A      0.024856    32A      0.035442  
      33A      0.048729    34A      0.061673    35A      0.064966  
      36A      0.084613    37A      0.088692    38A      0.096337  
      39A      0.100689    40A      0.100987    41A      0.102596  
      42A      0.107364    43A      0.115217    44A      0.120649  
      45A      0.130127    46A      0.135358    47A      0.139735  
      48A      0.146337    49A      0.150324    50A      0.155183  
      51A      0.162439    52A      0.171318    53A      0.174899  
      54A      0.185267    55A      0.196732    56A      0.210168  
      57A      0.224095    58A      0.227497    59A      0.236960  
      60A      0.254079    61A      0.254594    62A      0.257576  
      63A      0.262938    64A      0.271338    65A      0.272796  
      66A      0.274048    67A      0.283632    68A      0.283881  
      69A      0.294989    70A      0.301708    71A      0.308003  
      72A      0.315030    73A      0.320418    74A      0.328940  
      75A      0.331586    76A      0.339801    77A      0.344233  
      78A      0.364503    79A      0.368324    80A      0.378722  
      81A      0.383818    82A      0.385677    83A      0.388857  
      84A      0.402099    85A      0.411351    86A      0.412603  
      87A      0.424099    88A      0.424833    89A      0.440862  
      90A      0.441300    91A      0.448568    92A      0.452918  
      93A      0.467545    94A      0.471926    95A      0.479674  
      96A      0.480206    97A      0.488664    98A      0.497357  
      99A      0.506416   100A      0.511181   101A      0.518689  
     102A      0.531225   103A      0.535178   104A      0.538156  
     105A      0.552372   106A      0.555734   107A      0.569835  
     108A      0.583780   109A      0.596048   110A      0.597320  
     111A      0.627305   112A      0.633784   113A      0.634243  
     114A      0.644080   115A      0.645760   116A      0.651650  
     117A      0.666732   118A      0.676579   119A      0.686530  
     120A      0.691438   121A      0.697936   122A      0.709901  
     123A      0.723153   124A      0.724266   125A      0.731987  
     126A      0.735805   127A      0.755538   128A      0.764111  
     129A      0.774331   130A      0.776813   131A      0.784656  
     132A      0.805241   133A      0.813565   134A      0.820269  
     135A      0.832012   136A      0.843093   137A      0.858287  
     138A      0.868593   139A      0.876814   140A      0.879450  
     141A      0.880047   142A      0.897031   143A      0.904868  
     144A      0.921558   145A      0.922312   146A      0.926549  
     147A      0.930402   148A      0.943244   149A      0.961140  
     150A      0.977685   151A      0.982175   152A      0.984994  
     153A      0.990340   154A      0.996482   155A      1.002987  
     156A      1.005400   157A      1.020860   158A      1.027698  
     159A      1.036004   160A      1.046322   161A      1.057650  
     162A      1.060893   163A      1.067799   164A      1.072557  
     165A      1.080457   166A      1.082285   167A      1.096264  
     168A      1.106729   169A      1.117557   170A      1.136853  
     171A      1.139380   172A      1.154652   173A      1.168913  
     174A      1.172813   175A      1.174097   176A      1.176701  
     177A      1.188568   178A      1.193864   179A      1.210529  
     180A      1.215867   181A      1.225851   182A      1.229408  
     183A      1.246378   184A      1.256528   185A      1.265812  
     186A      1.269064   187A      1.283174   188A      1.287377  
     189A      1.305023   190A      1.311404   191A      1.339294  
     192A      1.345397   193A      1.345837   194A      1.356894  
     195A      1.379464   196A      1.393288   197A      1.398014  
     198A      1.420015   199A      1.427761   200A      1.431102  
     201A      1.434693   202A      1.439375   203A      1.447999  
     204A      1.459540   205A      1.467221   206A      1.486805  
     207A      1.487599   208A      1.518095   209A      1.529728  
     210A      1.533359   211A      1.550319   212A      1.564388  
     213A      1.583425   214A      1.593504   215A      1.619831  
     216A      1.625355   217A      1.643967   218A      1.656437  
     219A      1.659691   220A      1.693989   221A      1.715759  
     222A      1.724523   223A      1.731883   224A      1.745431  
     225A      1.747760   226A      1.753434   227A      1.762536  
     228A      1.764871   229A      1.792439   230A      1.801241  
     231A      1.830973   232A      1.851504   233A      1.866657  
     234A      1.878183   235A      1.890798   236A      1.904914  
     237A      1.950549   238A      1.959353   239A      1.968004  
     240A      1.995786   241A      2.002301   242A      2.020098  
     243A      2.034847   244A      2.042485   245A      2.048319  
     246A      2.050372   247A      2.082143   248A      2.096580  
     249A      2.113307   250A      2.124464   251A      2.145409  
     252A      2.158559   253A      2.177211   254A      2.187226  
     255A      2.191363   256A      2.194755   257A      2.223203  
     258A      2.248959   259A      2.255918   260A      2.293920  
     261A      2.307210   262A      2.316707   263A      2.323247  
     264A      2.344750   265A      2.352121   266A      2.352747  
     267A      2.375649   268A      2.425594   269A      2.426794  
     270A      2.456162   271A      2.471215   272A      2.486309  
     273A      2.487343   274A      2.509204   275A      2.517269  
     276A      2.524885   277A      2.533050   278A      2.538685  
     279A      2.563640   280A      2.568868   281A      2.584488  
     282A      2.604994   283A      2.613128   284A      2.657588  
     285A      2.665885   286A      2.689770   287A      2.711998  
     288A      2.727452   289A      2.728791   290A      2.745589  
     291A      2.761954   292A      2.794411   293A      2.804452  
     294A      2.854687   295A      2.864674   296A      2.932151  
     297A      2.968489   298A      2.972399   299A      3.010154  
     300A      3.019302   301A      3.028241   302A      3.040889  
     303A      3.073690   304A      3.124569   305A      3.173562  
     306A      3.177135   307A      3.228056   308A      3.266327  
     309A      3.279357   310A      3.303042   311A      3.308926  
     312A      3.328958   313A      3.368504   314A      3.369234  
     315A      3.407369   316A      3.423859   317A      3.454941  
     318A      3.476699   319A      3.477517   320A      3.506653  
     321A      3.535347   322A      3.558478   323A      3.579299  
     324A      3.629880   325A      3.646437   326A      3.646823  
     327A      3.649917   328A      3.683700   329A      3.704688  
     330A      3.725398   331A      3.736765   332A      3.750403  
     333A      3.753897   334A      3.802681   335A      3.806705  
     336A      3.831870   337A      3.837331   338A      3.875797  
     339A      3.908635   340A      3.928875   341A      3.941082  
     342A      3.945613   343A      3.967000   344A      3.994459  
     345A      4.003041   346A      4.020983   347A      4.045482  
     348A      4.082491   349A      4.086352   350A      4.095107  
     351A      4.120368   352A      4.137569   353A      4.153980  
     354A      4.162051   355A      4.192699   356A      4.205175  
     357A      4.221603   358A      4.237348   359A      4.251288  
     360A      4.263774   361A      4.263891   362A      4.296152  
     363A      4.306148   364A      4.318275   365A      4.336228  
     366A      4.346920   367A      4.355602   368A      4.389954  
     369A      4.391834   370A      4.414673   371A      4.445305  
     372A      4.480342   373A      4.507381   374A      4.527421  
     375A      4.543684   376A      4.550553   377A      4.610323  
     378A      4.630047   379A      4.638015   380A      4.659715  
     381A      4.689367   382A      4.728192   383A      4.733604  
     384A      4.760388   385A      4.766259   386A      4.813176  
     387A      4.829914   388A      4.854061   389A      4.862526  
     390A      4.896662   391A      4.915359   392A      4.935329  
     393A      4.940698   394A      4.966947   395A      4.998126  
     396A      5.004279   397A      5.054146   398A      5.055894  
     399A      5.079916   400A      5.106322   401A      5.121524  
     402A      5.134565   403A      5.151289   404A      5.152158  
     405A      5.220208   406A      5.237920   407A      5.261057  
     408A      5.310233   409A      5.321674   410A      5.370349  
     411A      5.379268   412A      5.425481   413A      5.432371  
     414A      5.460398   415A      5.465653   416A      5.495112  
     417A      5.496024   418A      5.520647   419A      5.537908  
     420A      5.551696   421A      5.592755   422A      5.623719  
     423A      5.644554   424A      5.661506   425A      5.671379  
     426A      5.717542   427A      5.769412   428A      5.777184  
     429A      5.816291   430A      5.850071   431A      5.874250  
     432A      5.881447   433A      5.889132   434A      5.970128  
     435A      5.976548   436A      6.018479   437A      6.054737  
     438A      6.069723   439A      6.100516   440A      6.122689  
     441A      6.141900   442A      6.172379   443A      6.271445  
     444A      6.293536   445A      6.350556   446A      6.452542  
     447A      6.501751   448A      6.529189   449A      6.614887  
     450A      6.629746   451A      6.691293   452A      6.721324  
     453A      6.724931   454A      6.767773   455A      6.787726  
     456A      6.842162   457A      6.882466   458A      6.926443  
     459A      6.995327   460A      7.006900   461A      7.096263  
     462A      7.150150   463A      7.199326   464A      7.323593  
     465A      7.397033   466A      7.403450   467A      7.439446  
     468A      7.506006   469A      7.665889   470A      7.670354  
     471A      7.782391   472A      7.805021   473A      7.913526  
     474A      7.935896   475A      8.028362   476A     15.505185  
     477A     16.003297   478A     16.221033   479A     18.075828  
     480A     18.298915   481A     18.988362   482A     19.832214  
     483A     20.068093  

    Final Occupation by Irrep:
              A 
    DOCC [    29 ]

  @DF-RHF Final Energy:  -392.74759018652088

   => Energetics <=

    Nuclear Repulsion Energy =            355.2904545019110287
    One-Electron Energy =               -1238.7257471349139450
    Two-Electron Energy =                 490.6877024464820920
    Total Energy =                       -392.7475901865208812

Computation Completed

*** tstop() called on node74.bme.utexas.edu at Tue Nov  3 20:03:36 2020
Module time:
	user time   =      90.34 seconds =       1.51 minutes
	system time =       7.76 seconds =       0.13 minutes
	total time  =         14 seconds =       0.23 minutes
Total time:
	user time   =      90.34 seconds =       1.51 minutes
	system time =       7.76 seconds =       0.13 minutes
	total time  =         14 seconds =       0.23 minutes
   => Loading Basis Set <=

    Name: (AUG-CC-PVTZ AUX)
    Role: RIFIT
    Keyword: DF_BASIS_MP2
    atoms 1    entry O          line   264 file /home/xy3866/psi4conda/share/psi4/basis/aug-cc-pvtz-ri.gbs 
    atoms 2-4  entry N          line   206 file /home/xy3866/psi4conda/share/psi4/basis/aug-cc-pvtz-ri.gbs 
    atoms 5-8  entry C          line   148 file /home/xy3866/psi4conda/share/psi4/basis/aug-cc-pvtz-ri.gbs 
    atoms 9-13 entry H          line    30 file /home/xy3866/psi4conda/share/psi4/basis/aug-cc-pvtz-ri.gbs 


*** tstart() called on node74.bme.utexas.edu
*** at Tue Nov  3 20:03:37 2020


  //>>>>>>>>>>>>>>>>>>>>>>>>>>>>>>>>>>>//
  //               DFMP2               //
  //<<<<<<<<<<<<<<<<<<<<<<<<<<<<<<<<<<<//

	 --------------------------------------------------------
	                          DF-MP2                         
	      2nd-Order Density-Fitted Moller-Plesset Theory     
	              RMP2 Wavefunction,   8 Threads             
	                                                         
	        Rob Parrish, Justin Turney, Andy Simmonett,      
	           Ed Hohenstein, and C. David Sherrill          
	 --------------------------------------------------------

   => Auxiliary Basis Set <=

  Basis Set: (AUG-CC-PVTZ AUX)
    Blend: AUG-CC-PVTZ-RI
    Number of shells: 294
    Number of basis function: 1078
    Number of Cartesian functions: 1363
    Spherical Harmonics?: true
    Max angular momentum: 4

	 --------------------------------------------------------
	                 NBF =   483, NAUX =  1078
	 --------------------------------------------------------
	   CLASS    FOCC     OCC    AOCC    AVIR     VIR    FVIR
	   PAIRS       0      29      29     454     454       0
	 --------------------------------------------------------

  DFHelper Memory: AOs need 1.861 GiB; user supplied 22.352 GiB. Using in-core AOs.


         ------------------------------------------------------------
                                     CPHF                           
                                  Rob Parrish                       
         ------------------------------------------------------------

  ==> Geometry <==

    Molecular point group: c1
    Full point group: C1

    Geometry (in Angstrom), charge = 0, multiplicity = 1:

       Center              X                  Y                   Z               Mass       
    ------------   -----------------  -----------------  -----------------  -----------------
         O           -2.166502650467    -1.157756043502     0.000145513550    15.994914619570
         N            0.093479349533    -0.898693043502    -0.000015486450    14.003074004430
         N            2.397308949533    -0.878645743502    -0.000512186450    14.003074004430
         N           -1.330378650467     1.012658956498     0.000229513550    14.003074004430
         C            1.237572349533    -0.167091043502    -0.000119486450    12.000000000000
         C            1.105563349533     1.208460956498    -0.000077486450    12.000000000000
         C           -1.230916650467    -0.365331043502     0.000165513550    12.000000000000
         C           -0.208771650467     1.711634956498     0.000062513550    12.000000000000
         H            0.117592349533    -1.914969043502    -0.000208486450     1.007825032230
         H            1.969437349533     1.861629956498    -0.000150486450     1.007825032230
         H           -0.341011650467     2.794833956498     0.000223513550     1.007825032230
         H            3.290483349533    -0.326859043502     0.000581513550     1.007825032230
         H            2.467136349533    -1.845101043502     0.001017513550     1.007825032230

  Nuclear repulsion =  355.290454501911029
  Reference energy  = -392.747590186520881

  ==> Basis Set <==

  Basis Set: AUG-CC-PVTZ
    Blend: AUG-CC-PVTZ
    Number of shells: 157
    Number of basis function: 483
    Number of Cartesian functions: 565
    Spherical Harmonics?: true
    Max angular momentum: 3

  ==> CGRSolver (by Rob Parrish) <==

   Number of roots    =         1
   Preconditioning    =    JACOBI
   Convergence cutoff =     1E-06
   Maximum iterations =       100

  ==> CPHFRHamiltonian (by Rob Parrish) <== 

  ==> MemDFJK: Density-Fitted J/K Matrices <==

    J tasked:                   Yes
    K tasked:                   Yes
    wK tasked:                   No
    OpenMP threads:               8
    Memory [MiB]:             22888
    Algorithm:                 Core
    Schwarz Cutoff:           1E-12
    Mask sparsity (%):       2.9251
    Fitting Condition:        1E-10

   => Auxiliary Basis Set <=

  Basis Set: (AUG-CC-PVTZ AUX)
    Blend: AUG-CC-PVTZ-JKFIT
    Number of shells: 310
    Number of basis function: 1062
    Number of Cartesian functions: 1323
    Spherical Harmonics?: true
    Max angular momentum: 4

  ==> CPHF Iterations <==

  => Iterations <=

             Iter  Converged  Remaining    Residual
  CGR           1          0          1   1.511E-01
  CGR           2          0          1   5.045E-02
  CGR           3          0          1   2.365E-02
  CGR           4          0          1   6.464E-03
  CGR           5          0          1   2.909E-03
  CGR           6          0          1   1.205E-03
  CGR           7          0          1   4.222E-04
  CGR           8          0          1   1.819E-04
  CGR           9          0          1   7.137E-05
  CGR          10          0          1   2.302E-05
  CGR          11          0          1   7.390E-06
  CGR          12          0          1   3.253E-06
  CGR          13          1          0   9.747E-07

    CGRSolver converged.

	-----------------------------------------------------------
	 ==================> DF-MP2 Energies <==================== 
	-----------------------------------------------------------
	 Reference Energy          =    -392.7475901865208812 [Eh]
	 Singles Energy            =      -0.0000000000000000 [Eh]
	 Same-Spin Energy          =      -0.4068862277452230 [Eh]
	 Opposite-Spin Energy      =      -1.2142840545148972 [Eh]
	 Correlation Energy        =      -1.6211702822601202 [Eh]
	 Total Energy              =    -394.3687604687809767 [Eh]
	-----------------------------------------------------------
	 ================> DF-SCS-MP2 Energies <================== 
	-----------------------------------------------------------
	 SCS Same-Spin Scale       =       0.3333333333333333 [-]
	 SCS Opposite-Spin Scale   =       1.2000000000000000 [-]
	 SCS Same-Spin Energy      =      -0.1356287425817410 [Eh]
	 SCS Opposite-Spin Energy  =      -1.4571408654178766 [Eh]
	 SCS Correlation Energy    =      -1.5927696079996176 [Eh]
	 SCS Total Energy          =    -394.3403597945205092 [Eh]
	-----------------------------------------------------------



Properties will be evaluated at   0.000000,  -0.000000,   0.000000 [a0]

Properties computed using the MP2 density matrix

  Nuclear Dipole Moment: [e a0]
     X:     7.0207      Y:     0.5306      Z:     0.0014

  Electronic Dipole Moment: [e a0]
     X:    -3.8177      Y:    -0.8496      Z:    -0.0002

  Dipole Moment: [e a0]
     X:     3.2030      Y:    -0.3190      Z:     0.0012     Total:     3.2188

  Dipole Moment: [D]
     X:     8.1412      Y:    -0.8109      Z:     0.0030     Total:     8.1815


*** tstop() called on node74.bme.utexas.edu at Tue Nov  3 20:04:33 2020
Module time:
	user time   =     302.60 seconds =       5.04 minutes
	system time =      26.80 seconds =       0.45 minutes
	total time  =         56 seconds =       0.93 minutes
Total time:
	user time   =     393.75 seconds =       6.56 minutes
	system time =      34.60 seconds =       0.58 minutes
	total time  =         71 seconds =       1.18 minutes

    Psi4 stopped on: Tuesday, 03 November 2020 08:04PM
    Psi4 wall time for execution: 0:01:11.05

*** Psi4 exiting successfully. Buy a developer a beer!
