
    -----------------------------------------------------------------------
          Psi4: An Open-Source Ab Initio Electronic Structure Package
                               Psi4 1.3.2 release

                         Git: Rev {HEAD} ecbda83 


    R. M. Parrish, L. A. Burns, D. G. A. Smith, A. C. Simmonett,
    A. E. DePrince III, E. G. Hohenstein, U. Bozkaya, A. Yu. Sokolov,
    R. Di Remigio, R. M. Richard, J. F. Gonthier, A. M. James,
    H. R. McAlexander, A. Kumar, M. Saitow, X. Wang, B. P. Pritchard,
    P. Verma, H. F. Schaefer III, K. Patkowski, R. A. King, E. F. Valeev,
    F. A. Evangelista, J. M. Turney, T. D. Crawford, and C. D. Sherrill,
    J. Chem. Theory Comput. 13(7) pp 3185--3197 (2017).
    (doi: 10.1021/acs.jctc.7b00174)


                         Additional Contributions by
    P. Kraus, H. Kruse, M. H. Lechner, M. C. Schieber, R. A. Shaw,
    A. Alenaizan, R. Galvelis, Z. L. Glick, S. Lehtola, and J. P. Misiewicz

    -----------------------------------------------------------------------


    Psi4 started on: Tuesday, 03 November 2020 07:17PM

    Process ID: 3609
    Host:       node74.bme.utexas.edu
    PSIDATADIR: /home/xy3866/psi4conda/share/psi4
    Memory:     500.0 MiB
    Threads:    8
    
  ==> Input File <==

--------------------------------------------------------------------------
#psi4
#
memory 32 gb

molecule  {
0 1
  O       -2.2334690    -1.1675340     0.0001340
  N        0.1092537    -1.0240535    -0.0000691
  N        2.3544690    -0.8475160    -0.0005320
  N       -1.3973450     1.0028810     0.0002180
  C        1.1706060    -0.1768690    -0.0001310
  C        1.0385970     1.1986830    -0.0000890
  C       -1.2978830    -0.3751090     0.0001540
  C       -0.2757380     1.7018570     0.0000510
  H        0.0506260    -1.9247470    -0.0002200
  H        1.9024710     1.8518520    -0.0001620
  H       -0.4079780     2.7850560     0.0002120
  H        3.2235170    -0.3366370     0.0005700
  H        2.4001700    -1.8548790     0.0010060
units angstrom
no_reorient  #important for SAPT in psi4, default
symmetry c1  #important for SAPT in psi4, default
}

set PROPERTIES_ORIGIN ["COM"]
properties('MP2/aug-cc-pvtz', properties = ['dipole'])
--------------------------------------------------------------------------

  Memory set to  29.802 GiB by Python driver.
    SCF Algorithm Type (re)set to DF.

*** tstart() called on node74.bme.utexas.edu
*** at Tue Nov  3 19:17:34 2020

   => Loading Basis Set <=

    Name: AUG-CC-PVTZ
    Role: ORBITAL
    Keyword: BASIS
    atoms 1    entry O          line   327 file /home/xy3866/psi4conda/share/psi4/basis/aug-cc-pvtz.gbs 
    atoms 2-4  entry N          line   281 file /home/xy3866/psi4conda/share/psi4/basis/aug-cc-pvtz.gbs 
    atoms 5-8  entry C          line   235 file /home/xy3866/psi4conda/share/psi4/basis/aug-cc-pvtz.gbs 
    atoms 9-13 entry H          line    36 file /home/xy3866/psi4conda/share/psi4/basis/aug-cc-pvtz.gbs 


         ---------------------------------------------------------
                                   SCF
               by Justin Turney, Rob Parrish, Andy Simmonett
                          and Daniel G. A. Smith
                              RHF Reference
                        8 Threads,  30517 MiB Core
         ---------------------------------------------------------

  ==> Geometry <==

    Molecular point group: c1
    Full point group: C1

    Geometry (in Angstrom), charge = 0, multiplicity = 1:

       Center              X                  Y                   Z               Mass       
    ------------   -----------------  -----------------  -----------------  -----------------
         O           -2.179979090962    -1.148339202410     0.000151869226    15.994914619570
         N            0.162743609038    -1.004858702410    -0.000051230774    14.003074004430
         N            2.407958909038    -0.828321202410    -0.000514130774    14.003074004430
         N           -1.343855090962     1.022075797590     0.000235869226    14.003074004430
         C            1.224095909038    -0.157674202410    -0.000113130774    12.000000000000
         C            1.092086909038     1.217877797590    -0.000071130774    12.000000000000
         C           -1.244393090962    -0.355914202410     0.000171869226    12.000000000000
         C           -0.222248090962     1.721051797590     0.000068869226    12.000000000000
         H            0.104115909038    -1.905552202410    -0.000202130774     1.007825032230
         H            1.955960909038     1.871046797590    -0.000144130774     1.007825032230
         H           -0.354488090962     2.804250797590     0.000229869226     1.007825032230
         H            3.277006909038    -0.317442202410     0.000587869226     1.007825032230
         H            2.453659909038    -1.835684202410     0.001023869226     1.007825032230

  Running in c1 symmetry.

  Rotational constants: A =      0.12655  B =      0.06604  C =      0.04340 [cm^-1]
  Rotational constants: A =   3793.80811  B =   1979.97188  C =   1300.99060 [MHz]
  Nuclear repulsion =  353.168784299174092

  Charge       = 0
  Multiplicity = 1
  Electrons    = 58
  Nalpha       = 29
  Nbeta        = 29

  ==> Algorithm <==

  SCF Algorithm Type is DF.
  DIIS enabled.
  MOM disabled.
  Fractional occupation disabled.
  Guess Type is SAD.
  Energy threshold   = 1.00e-10
  Density threshold  = 1.00e-10
  Integral threshold = 0.00e+00

  ==> Primary Basis <==

  Basis Set: AUG-CC-PVTZ
    Blend: AUG-CC-PVTZ
    Number of shells: 157
    Number of basis function: 483
    Number of Cartesian functions: 565
    Spherical Harmonics?: true
    Max angular momentum: 3

   => Loading Basis Set <=

    Name: (AUG-CC-PVTZ AUX)
    Role: JKFIT
    Keyword: DF_BASIS_SCF
    atoms 1    entry O          line   286 file /home/xy3866/psi4conda/share/psi4/basis/aug-cc-pvtz-jkfit.gbs 
    atoms 2-4  entry N          line   224 file /home/xy3866/psi4conda/share/psi4/basis/aug-cc-pvtz-jkfit.gbs 
    atoms 5-8  entry C          line   162 file /home/xy3866/psi4conda/share/psi4/basis/aug-cc-pvtz-jkfit.gbs 
    atoms 9-13 entry H          line    70 file /home/xy3866/psi4conda/share/psi4/basis/aug-cc-pvtz-jkfit.gbs 

  ==> Pre-Iterations <==

   -------------------------------------------------------
    Irrep   Nso     Nmo     Nalpha   Nbeta   Ndocc  Nsocc
   -------------------------------------------------------
     A        483     483       0       0       0       0
   -------------------------------------------------------
    Total     483     483      29      29      29       0
   -------------------------------------------------------

  ==> Integral Setup <==

  DFHelper Memory: AOs need 1.861 GiB; user supplied 22.352 GiB. Using in-core AOs.

  ==> MemDFJK: Density-Fitted J/K Matrices <==

    J tasked:                   Yes
    K tasked:                   Yes
    wK tasked:                   No
    OpenMP threads:               8
    Memory [MiB]:             22888
    Algorithm:                 Core
    Schwarz Cutoff:           1E-12
    Mask sparsity (%):       2.9551
    Fitting Condition:        1E-10

   => Auxiliary Basis Set <=

  Basis Set: (AUG-CC-PVTZ AUX)
    Blend: AUG-CC-PVTZ-JKFIT
    Number of shells: 310
    Number of basis function: 1062
    Number of Cartesian functions: 1323
    Spherical Harmonics?: true
    Max angular momentum: 4

  Minimum eigenvalue in the overlap matrix is 3.2362691131E-06.
  Using Symmetric Orthogonalization.

  SCF Guess: Superposition of Atomic Densities via on-the-fly atomic UHF.

  ==> Iterations <==

                           Total Energy        Delta E     RMS |[F,P]|

   @DF-RHF iter SAD:  -391.94204551537081   -3.91942e+02   0.00000e+00 
   @DF-RHF iter   1:  -392.47392084484727   -5.31875e-01   1.51129e-03 DIIS
   @DF-RHF iter   2:  -392.66130894543892   -1.87388e-01   8.60562e-04 DIIS
   @DF-RHF iter   3:  -392.71959605177193   -5.82871e-02   1.70264e-04 DIIS
   @DF-RHF iter   4:  -392.72336638029628   -3.77033e-03   7.25611e-05 DIIS
   @DF-RHF iter   5:  -392.72418848829921   -8.22108e-04   1.71570e-05 DIIS
   @DF-RHF iter   6:  -392.72431036657491   -1.21878e-04   9.46359e-06 DIIS
   @DF-RHF iter   7:  -392.72434877680240   -3.84102e-05   4.03721e-06 DIIS
   @DF-RHF iter   8:  -392.72435746861623   -8.69181e-06   1.40792e-06 DIIS
   @DF-RHF iter   9:  -392.72435842023765   -9.51621e-07   7.23089e-07 DIIS
   @DF-RHF iter  10:  -392.72435861701473   -1.96777e-07   2.40201e-07 DIIS
   @DF-RHF iter  11:  -392.72435865265777   -3.56430e-08   8.88124e-08 DIIS
   @DF-RHF iter  12:  -392.72435865559237   -2.93460e-09   3.24582e-08 DIIS
   @DF-RHF iter  13:  -392.72435865597572   -3.83352e-10   1.21395e-08 DIIS
   @DF-RHF iter  14:  -392.72435865603126   -5.55360e-11   4.69574e-09 DIIS
   @DF-RHF iter  15:  -392.72435865603887   -7.61702e-12   1.60353e-09 DIIS
   @DF-RHF iter  16:  -392.72435865604029   -1.42109e-12   4.53251e-10 DIIS
   @DF-RHF iter  17:  -392.72435865604081   -5.11591e-13   1.95596e-10 DIIS
   @DF-RHF iter  18:  -392.72435865603973    1.08002e-12   7.92480e-11 DIIS
  Energy and wave function converged.


  ==> Post-Iterations <==

    Orbital Energies [Eh]
    ---------------------

    Doubly Occupied:                                                      

       1A    -20.520227     2A    -15.620609     3A    -15.616777  
       4A    -15.551446     5A    -11.386536     6A    -11.384617  
       7A    -11.314166     8A    -11.233760     9A     -1.384208  
      10A     -1.324809    11A     -1.236728    12A     -1.201002  
      13A     -1.057599    14A     -0.921149    15A     -0.864761  
      16A     -0.795943    17A     -0.754426    18A     -0.716080  
      19A     -0.684238    20A     -0.641555    21A     -0.627429  
      22A     -0.620754    23A     -0.577740    24A     -0.547139  
      25A     -0.462599    26A     -0.452452    27A     -0.439560  
      28A     -0.416151    29A     -0.327508  

    Virtual:                                                              

      30A      0.010078    31A      0.025604    32A      0.035800  
      33A      0.048861    34A      0.062001    35A      0.066046  
      36A      0.085604    37A      0.085785    38A      0.097391  
      39A      0.100464    40A      0.101911    41A      0.102419  
      42A      0.108467    43A      0.115411    44A      0.120959  
      45A      0.130917    46A      0.134873    47A      0.139361  
      48A      0.145478    49A      0.151684    50A      0.156186  
      51A      0.162206    52A      0.169141    53A      0.178000  
      54A      0.187015    55A      0.196042    56A      0.211422  
      57A      0.224043    58A      0.226235    59A      0.235980  
      60A      0.253068    61A      0.257326    62A      0.258157  
      63A      0.262318    64A      0.270128    65A      0.271205  
      66A      0.274261    67A      0.279596    68A      0.283980  
      69A      0.295025    70A      0.300725    71A      0.308833  
      72A      0.315017    73A      0.322238    74A      0.326622  
      75A      0.331902    76A      0.342865    77A      0.346723  
      78A      0.359873    79A      0.366057    80A      0.377835  
      81A      0.383191    82A      0.384347    83A      0.390064  
      84A      0.397842    85A      0.405129    86A      0.418123  
      87A      0.423584    88A      0.425413    89A      0.438382  
      90A      0.442253    91A      0.447476    92A      0.455368  
      93A      0.463744    94A      0.474383    95A      0.479004  
      96A      0.482445    97A      0.489933    98A      0.496141  
      99A      0.505785   100A      0.510334   101A      0.515883  
     102A      0.524999   103A      0.536179   104A      0.541945  
     105A      0.551251   106A      0.553072   107A      0.564845  
     108A      0.583051   109A      0.597272   110A      0.598305  
     111A      0.619454   112A      0.632591   113A      0.634647  
     114A      0.644405   115A      0.645107   116A      0.658550  
     117A      0.661047   118A      0.681851   119A      0.684270  
     120A      0.695108   121A      0.699128   122A      0.711807  
     123A      0.724388   124A      0.731506   125A      0.734872  
     126A      0.738845   127A      0.754952   128A      0.766369  
     129A      0.775596   130A      0.778468   131A      0.778961  
     132A      0.808552   133A      0.814043   134A      0.820269  
     135A      0.830245   136A      0.843879   137A      0.853233  
     138A      0.855866   139A      0.877100   140A      0.877874  
     141A      0.884188   142A      0.898743   143A      0.898894  
     144A      0.917490   145A      0.920266   146A      0.925533  
     147A      0.932568   148A      0.947414   149A      0.962048  
     150A      0.976416   151A      0.979548   152A      0.983624  
     153A      0.990032   154A      0.994745   155A      1.000558  
     156A      1.005903   157A      1.016558   158A      1.035450  
     159A      1.037081   160A      1.051516   161A      1.060537  
     162A      1.063269   163A      1.073926   164A      1.076228  
     165A      1.079988   166A      1.101477   167A      1.105288  
     168A      1.105904   169A      1.120404   170A      1.140458  
     171A      1.147257   172A      1.149000   173A      1.166174  
     174A      1.171022   175A      1.172136   176A      1.185285  
     177A      1.192683   178A      1.195761   179A      1.210594  
     180A      1.214281   181A      1.225022   182A      1.229761  
     183A      1.247736   184A      1.264344   185A      1.267273  
     186A      1.272991   187A      1.285258   188A      1.291229  
     189A      1.306013   190A      1.310084   191A      1.340116  
     192A      1.346798   193A      1.351044   194A      1.354873  
     195A      1.380983   196A      1.395375   197A      1.400524  
     198A      1.410501   199A      1.427413   200A      1.428116  
     201A      1.443638   202A      1.448836   203A      1.456843  
     204A      1.458616   205A      1.467487   206A      1.490923  
     207A      1.491601   208A      1.518964   209A      1.532896  
     210A      1.536255   211A      1.542375   212A      1.570113  
     213A      1.571335   214A      1.581524   215A      1.612963  
     216A      1.618291   217A      1.639929   218A      1.650331  
     219A      1.656580   220A      1.685911   221A      1.722303  
     222A      1.723215   223A      1.727815   224A      1.743583  
     225A      1.750250   226A      1.759774   227A      1.764067  
     228A      1.769738   229A      1.782587   230A      1.806939  
     231A      1.834344   232A      1.844809   233A      1.856738  
     234A      1.876283   235A      1.878749   236A      1.896050  
     237A      1.940974   238A      1.957373   239A      1.970819  
     240A      1.980566   241A      1.999577   242A      2.013073  
     243A      2.027823   244A      2.039677   245A      2.047204  
     246A      2.050257   247A      2.077037   248A      2.092485  
     249A      2.092849   250A      2.126516   251A      2.145927  
     252A      2.159386   253A      2.168553   254A      2.183266  
     255A      2.195583   256A      2.217125   257A      2.244640  
     258A      2.247342   259A      2.254952   260A      2.272079  
     261A      2.289332   262A      2.316404   263A      2.326175  
     264A      2.343513   265A      2.344779   266A      2.352744  
     267A      2.376158   268A      2.413063   269A      2.425143  
     270A      2.439753   271A      2.463242   272A      2.487112  
     273A      2.495742   274A      2.504072   275A      2.506053  
     276A      2.529546   277A      2.533926   278A      2.552668  
     279A      2.555008   280A      2.574993   281A      2.586354  
     282A      2.591023   283A      2.617938   284A      2.649249  
     285A      2.680666   286A      2.686334   287A      2.705251  
     288A      2.710666   289A      2.729792   290A      2.734581  
     291A      2.775628   292A      2.800576   293A      2.803125  
     294A      2.853919   295A      2.866118   296A      2.910106  
     297A      2.941796   298A      2.949872   299A      2.995151  
     300A      3.006726   301A      3.025734   302A      3.029722  
     303A      3.052764   304A      3.093072   305A      3.140399  
     306A      3.174487   307A      3.212885   308A      3.219100  
     309A      3.243768   310A      3.299356   311A      3.305874  
     312A      3.355172   313A      3.370535   314A      3.371456  
     315A      3.400818   316A      3.417713   317A      3.447565  
     318A      3.462164   319A      3.469690   320A      3.530925  
     321A      3.540369   322A      3.559261   323A      3.599902  
     324A      3.631070   325A      3.635535   326A      3.643024  
     327A      3.654506   328A      3.675645   329A      3.695639  
     330A      3.701177   331A      3.736735   332A      3.745420  
     333A      3.754876   334A      3.797643   335A      3.801453  
     336A      3.831404   337A      3.848641   338A      3.878298  
     339A      3.909090   340A      3.912167   341A      3.934586  
     342A      3.938763   343A      3.982390   344A      3.996007  
     345A      4.010880   346A      4.038760   347A      4.049152  
     348A      4.051947   349A      4.062034   350A      4.089558  
     351A      4.116075   352A      4.120596   353A      4.136801  
     354A      4.143692   355A      4.180632   356A      4.194669  
     357A      4.202060   358A      4.226991   359A      4.247034  
     360A      4.249163   361A      4.262182   362A      4.283659  
     363A      4.291674   364A      4.319067   365A      4.323126  
     366A      4.347104   367A      4.372596   368A      4.379684  
     369A      4.392003   370A      4.408675   371A      4.452455  
     372A      4.469428   373A      4.518543   374A      4.524145  
     375A      4.556639   376A      4.584761   377A      4.590545  
     378A      4.623991   379A      4.631975   380A      4.640172  
     381A      4.684117   382A      4.714515   383A      4.748531  
     384A      4.760310   385A      4.764845   386A      4.829700  
     387A      4.833140   388A      4.852441   389A      4.867707  
     390A      4.901184   391A      4.924329   392A      4.950563  
     393A      4.964282   394A      5.004920   395A      5.015126  
     396A      5.035123   397A      5.059696   398A      5.074580  
     399A      5.080411   400A      5.089879   401A      5.146404  
     402A      5.149222   403A      5.201662   404A      5.208672  
     405A      5.220981   406A      5.246137   407A      5.293868  
     408A      5.312484   409A      5.343084   410A      5.364614  
     411A      5.381449   412A      5.421699   413A      5.423496  
     414A      5.456786   415A      5.472171   416A      5.477279  
     417A      5.508382   418A      5.530305   419A      5.568548  
     420A      5.579419   421A      5.605706   422A      5.608021  
     423A      5.645003   424A      5.666538   425A      5.674174  
     426A      5.706963   427A      5.748036   428A      5.759248  
     429A      5.807294   430A      5.825425   431A      5.862846  
     432A      5.865760   433A      5.887498   434A      5.975542  
     435A      5.999792   436A      6.010477   437A      6.047155  
     438A      6.061831   439A      6.092696   440A      6.124451  
     441A      6.155032   442A      6.170912   443A      6.290173  
     444A      6.311141   445A      6.470169   446A      6.498943  
     447A      6.540540   448A      6.552738   449A      6.571932  
     450A      6.629112   451A      6.677880   452A      6.682789  
     453A      6.714443   454A      6.758088   455A      6.762584  
     456A      6.860977   457A      6.945584   458A      6.994127  
     459A      7.014770   460A      7.023583   461A      7.152069  
     462A      7.169552   463A      7.219331   464A      7.313884  
     465A      7.378611   466A      7.400935   467A      7.486512  
     468A      7.524670   469A      7.648447   470A      7.737246  
     471A      7.752042   472A      7.816960   473A      7.887323  
     474A      7.968164   475A      8.007635   476A     15.242235  
     477A     15.652488   478A     16.841524   479A     18.222261  
     480A     18.414784   481A     18.798515   482A     19.837389  
     483A     20.523063  

    Final Occupation by Irrep:
              A 
    DOCC [    29 ]

  @DF-RHF Final Energy:  -392.72435865603973

   => Energetics <=

    Nuclear Repulsion Energy =            353.1687842991740922
    One-Electron Energy =               -1234.4223484828612527
    Two-Electron Energy =                 488.5292055276473775
    Total Energy =                       -392.7243586560397262

Computation Completed

*** tstop() called on node74.bme.utexas.edu at Tue Nov  3 19:17:48 2020
Module time:
	user time   =      91.13 seconds =       1.52 minutes
	system time =       8.34 seconds =       0.14 minutes
	total time  =         14 seconds =       0.23 minutes
Total time:
	user time   =      91.13 seconds =       1.52 minutes
	system time =       8.34 seconds =       0.14 minutes
	total time  =         14 seconds =       0.23 minutes
   => Loading Basis Set <=

    Name: (AUG-CC-PVTZ AUX)
    Role: RIFIT
    Keyword: DF_BASIS_MP2
    atoms 1    entry O          line   264 file /home/xy3866/psi4conda/share/psi4/basis/aug-cc-pvtz-ri.gbs 
    atoms 2-4  entry N          line   206 file /home/xy3866/psi4conda/share/psi4/basis/aug-cc-pvtz-ri.gbs 
    atoms 5-8  entry C          line   148 file /home/xy3866/psi4conda/share/psi4/basis/aug-cc-pvtz-ri.gbs 
    atoms 9-13 entry H          line    30 file /home/xy3866/psi4conda/share/psi4/basis/aug-cc-pvtz-ri.gbs 


*** tstart() called on node74.bme.utexas.edu
*** at Tue Nov  3 19:17:48 2020


  //>>>>>>>>>>>>>>>>>>>>>>>>>>>>>>>>>>>//
  //               DFMP2               //
  //<<<<<<<<<<<<<<<<<<<<<<<<<<<<<<<<<<<//

	 --------------------------------------------------------
	                          DF-MP2                         
	      2nd-Order Density-Fitted Moller-Plesset Theory     
	              RMP2 Wavefunction,   8 Threads             
	                                                         
	        Rob Parrish, Justin Turney, Andy Simmonett,      
	           Ed Hohenstein, and C. David Sherrill          
	 --------------------------------------------------------

   => Auxiliary Basis Set <=

  Basis Set: (AUG-CC-PVTZ AUX)
    Blend: AUG-CC-PVTZ-RI
    Number of shells: 294
    Number of basis function: 1078
    Number of Cartesian functions: 1363
    Spherical Harmonics?: true
    Max angular momentum: 4

	 --------------------------------------------------------
	                 NBF =   483, NAUX =  1078
	 --------------------------------------------------------
	   CLASS    FOCC     OCC    AOCC    AVIR     VIR    FVIR
	   PAIRS       0      29      29     454     454       0
	 --------------------------------------------------------

  DFHelper Memory: AOs need 1.861 GiB; user supplied 22.352 GiB. Using in-core AOs.


         ------------------------------------------------------------
                                     CPHF                           
                                  Rob Parrish                       
         ------------------------------------------------------------

  ==> Geometry <==

    Molecular point group: c1
    Full point group: C1

    Geometry (in Angstrom), charge = 0, multiplicity = 1:

       Center              X                  Y                   Z               Mass       
    ------------   -----------------  -----------------  -----------------  -----------------
         O           -2.179979090962    -1.148339202410     0.000151869226    15.994914619570
         N            0.162743609038    -1.004858702410    -0.000051230774    14.003074004430
         N            2.407958909038    -0.828321202410    -0.000514130774    14.003074004430
         N           -1.343855090962     1.022075797590     0.000235869226    14.003074004430
         C            1.224095909038    -0.157674202410    -0.000113130774    12.000000000000
         C            1.092086909038     1.217877797590    -0.000071130774    12.000000000000
         C           -1.244393090962    -0.355914202410     0.000171869226    12.000000000000
         C           -0.222248090962     1.721051797590     0.000068869226    12.000000000000
         H            0.104115909038    -1.905552202410    -0.000202130774     1.007825032230
         H            1.955960909038     1.871046797590    -0.000144130774     1.007825032230
         H           -0.354488090962     2.804250797590     0.000229869226     1.007825032230
         H            3.277006909038    -0.317442202410     0.000587869226     1.007825032230
         H            2.453659909038    -1.835684202410     0.001023869226     1.007825032230

  Nuclear repulsion =  353.168784299174092
  Reference energy  = -392.724358656039726

  ==> Basis Set <==

  Basis Set: AUG-CC-PVTZ
    Blend: AUG-CC-PVTZ
    Number of shells: 157
    Number of basis function: 483
    Number of Cartesian functions: 565
    Spherical Harmonics?: true
    Max angular momentum: 3

  ==> CGRSolver (by Rob Parrish) <==

   Number of roots    =         1
   Preconditioning    =    JACOBI
   Convergence cutoff =     1E-06
   Maximum iterations =       100

  ==> CPHFRHamiltonian (by Rob Parrish) <== 

  ==> MemDFJK: Density-Fitted J/K Matrices <==

    J tasked:                   Yes
    K tasked:                   Yes
    wK tasked:                   No
    OpenMP threads:               8
    Memory [MiB]:             22888
    Algorithm:                 Core
    Schwarz Cutoff:           1E-12
    Mask sparsity (%):       2.9551
    Fitting Condition:        1E-10

   => Auxiliary Basis Set <=

  Basis Set: (AUG-CC-PVTZ AUX)
    Blend: AUG-CC-PVTZ-JKFIT
    Number of shells: 310
    Number of basis function: 1062
    Number of Cartesian functions: 1323
    Spherical Harmonics?: true
    Max angular momentum: 4

  ==> CPHF Iterations <==

  => Iterations <=

             Iter  Converged  Remaining    Residual
  CGR           1          0          1   1.543E-01
  CGR           2          0          1   5.086E-02
  CGR           3          0          1   2.325E-02
  CGR           4          0          1   6.259E-03
  CGR           5          0          1   2.533E-03
  CGR           6          0          1   9.259E-04
  CGR           7          0          1   3.193E-04
  CGR           8          0          1   1.249E-04
  CGR           9          0          1   4.915E-05
  CGR          10          0          1   1.700E-05
  CGR          11          0          1   7.051E-06
  CGR          12          0          1   2.812E-06
  CGR          13          0          1   1.014E-06
  CGR          14          1          0   4.202E-07

    CGRSolver converged.

	-----------------------------------------------------------
	 ==================> DF-MP2 Energies <==================== 
	-----------------------------------------------------------
	 Reference Energy          =    -392.7243586560397262 [Eh]
	 Singles Energy            =      -0.0000000000000000 [Eh]
	 Same-Spin Energy          =      -0.4064365004002127 [Eh]
	 Opposite-Spin Energy      =      -1.2151022534751488 [Eh]
	 Correlation Energy        =      -1.6215387538753614 [Eh]
	 Total Energy              =    -394.3458974099150964 [Eh]
	-----------------------------------------------------------
	 ================> DF-SCS-MP2 Energies <================== 
	-----------------------------------------------------------
	 SCS Same-Spin Scale       =       0.3333333333333333 [-]
	 SCS Opposite-Spin Scale   =       1.2000000000000000 [-]
	 SCS Same-Spin Energy      =      -0.1354788334667376 [Eh]
	 SCS Opposite-Spin Energy  =      -1.4581227041701785 [Eh]
	 SCS Correlation Energy    =      -1.5936015376369161 [Eh]
	 SCS Total Energy          =    -394.3179601936766403 [Eh]
	-----------------------------------------------------------



Properties will be evaluated at   0.000000,   0.000000,  -0.000000 [a0]

Properties computed using the MP2 density matrix

  Nuclear Dipole Moment: [e a0]
     X:     6.9572      Y:     0.5749      Z:     0.0014

  Electronic Dipole Moment: [e a0]
     X:    -3.9533      Y:    -0.8474      Z:    -0.0002

  Dipole Moment: [e a0]
     X:     3.0039      Y:    -0.2725      Z:     0.0012     Total:     3.0162

  Dipole Moment: [D]
     X:     7.6351      Y:    -0.6926      Z:     0.0031     Total:     7.6665


*** tstop() called on node74.bme.utexas.edu at Tue Nov  3 19:18:44 2020
Module time:
	user time   =     305.25 seconds =       5.09 minutes
	system time =      29.78 seconds =       0.50 minutes
	total time  =         56 seconds =       0.93 minutes
Total time:
	user time   =     397.14 seconds =       6.62 minutes
	system time =      38.16 seconds =       0.64 minutes
	total time  =         70 seconds =       1.17 minutes

    Psi4 stopped on: Tuesday, 03 November 2020 07:18PM
    Psi4 wall time for execution: 0:01:09.94

*** Psi4 exiting successfully. Buy a developer a beer!
