opt=Tight                                                               
Freq      RMP2-FC                                                     6-31G(d)            
Number of atoms                            I                7
Info1-9                                    I   N=           9
          16          16        1002           0           0         100
           6           2           1
Charge                                     I               -1
Multiplicity                               I                1
Number of electrons                        I               50
Number of alpha electrons                  I               25
Number of beta electrons                   I               25
Number of basis functions                  I               83
Number of independent functions            I               83
Number of point charges in /Mol/           I                0
Number of translation vectors              I                0
Atomic numbers                             I   N=           7
          15           8           8           8           8           1
           1
Nuclear charges                            R   N=           7
  1.50000000E+01  8.00000000E+00  8.00000000E+00  8.00000000E+00  8.00000000E+00
  1.00000000E+00  1.00000000E+00
Current cartesian coordinates              R   N=          21
  5.10226056E-05  1.75340129E-01  2.50139269E-01 -6.72742503E-04 -1.53944650E+00
  2.53046801E+00  2.44584986E+00 -6.07866315E-01 -1.55713811E+00  1.03556992E-03
  3.01094789E+00  4.09361924E-01 -2.44608985E+00 -6.06210915E-01 -1.55739890E+00
  2.91533342E+00 -2.34581531E+00 -1.17723702E+00 -2.91707763E+00 -2.34368181E+00
 -1.17718978E+00
Force Field                                I                0
Int Atom Types                             I   N=           7
           0           0           0           0           0           0
           0
MM charges                                 R   N=           7
  0.00000000E+00  0.00000000E+00  0.00000000E+00  0.00000000E+00  0.00000000E+00
  0.00000000E+00  0.00000000E+00
Integer atomic weights                     I   N=           7
          31          16          16          16          16           1
           1
Real atomic weights                        R   N=           7
  3.09737634E+01  1.59949146E+01  1.59949146E+01  1.59949146E+01  1.59949146E+01
  1.00782504E+00  1.00782504E+00
Atom fragment info                         I   N=           7
           0           0           0           0           0           0
           0
Atom residue num                           I   N=           7
           0           0           0           0           0           0
           0
Nuclear spins                              I   N=           7
           1           0           0           0           0           1
           1
Nuclear ZEff                               R   N=           7
 -1.29400000E+01 -5.60000000E+00 -5.60000000E+00 -5.60000000E+00 -5.60000000E+00
 -1.00000000E+00 -1.00000000E+00
Nuclear QMom                               R   N=           7
  0.00000000E+00  0.00000000E+00  0.00000000E+00  0.00000000E+00  0.00000000E+00
  0.00000000E+00  0.00000000E+00
Nuclear GFac                               R   N=           7
  1.13160000E+00  0.00000000E+00  0.00000000E+00  0.00000000E+00  0.00000000E+00
  2.79284600E+00  2.79284600E+00
MicOpt                                     I   N=           7
          -1          -1          -1          -1          -1          -1
          -1
Number of contracted shells                I               25
Number of primitive shells                 I               69
Pure/Cartesian d shells                    I                1
Pure/Cartesian f shells                    I                0
Highest angular momentum                   I                2
Largest degree of contraction              I                6
Shell types                                I   N=          25
           0          -1          -1          -1           2           0
          -1          -1           2           0          -1          -1
           2           0          -1          -1           2           0
          -1          -1           2           0           0           0
           0
Number of primitives per shell             I   N=          25
           6           6           3           1           1           6
           3           1           1           6           3           1
           1           6           3           1           1           6
           3           1           1           3           1           3
           1
Shell to atom map                          I   N=          25
           1           1           1           1           1           2
           2           2           2           3           3           3
           3           4           4           4           4           5
           5           5           5           6           6           7
           7
Primitive exponents                        R   N=          69
  1.94133000E+04  2.90942000E+03  6.61364000E+02  1.85759000E+02  5.91943000E+01
  2.00310000E+01  3.39478000E+02  8.10101000E+01  2.58780000E+01  9.45221000E+00
  3.66566000E+00  1.46746000E+00  2.15623000E+00  7.48997000E-01  2.83145000E-01
  9.98317000E-02  5.50000000E-01  5.48467166E+03  8.25234946E+02  1.88046958E+02
  5.29645000E+01  1.68975704E+01  5.79963534E+00  1.55396162E+01  3.59993359E+00
  1.01376175E+00  2.70005823E-01  8.00000000E-01  5.48467166E+03  8.25234946E+02
  1.88046958E+02  5.29645000E+01  1.68975704E+01  5.79963534E+00  1.55396162E+01
  3.59993359E+00  1.01376175E+00  2.70005823E-01  8.00000000E-01  5.48467166E+03
  8.25234946E+02  1.88046958E+02  5.29645000E+01  1.68975704E+01  5.79963534E+00
  1.55396162E+01  3.59993359E+00  1.01376175E+00  2.70005823E-01  8.00000000E-01
  5.48467166E+03  8.25234946E+02  1.88046958E+02  5.29645000E+01  1.68975704E+01
  5.79963534E+00  1.55396162E+01  3.59993359E+00  1.01376175E+00  2.70005823E-01
  8.00000000E-01  1.87311370E+01  2.82539436E+00  6.40121692E-01  1.61277759E-01
  1.87311370E+01  2.82539436E+00  6.40121692E-01  1.61277759E-01
Contraction coefficients                   R   N=          69
  1.85159892E-03  1.42061917E-02  6.99994593E-02  2.40078860E-01  4.84761718E-01
  3.35199805E-01 -2.78217010E-03 -3.60499014E-02 -1.16631004E-01  9.68328036E-02
  6.14418023E-01  4.03798015E-01 -2.52924114E-01  3.28518447E-02  1.08125476E+00
  1.00000000E+00  1.00000000E+00  1.83107443E-03  1.39501722E-02  6.84450781E-02
  2.32714336E-01  4.70192898E-01  3.58520853E-01 -1.10777550E-01 -1.48026263E-01
  1.13076702E+00  1.00000000E+00  1.00000000E+00  1.83107443E-03  1.39501722E-02
  6.84450781E-02  2.32714336E-01  4.70192898E-01  3.58520853E-01 -1.10777550E-01
 -1.48026263E-01  1.13076702E+00  1.00000000E+00  1.00000000E+00  1.83107443E-03
  1.39501722E-02  6.84450781E-02  2.32714336E-01  4.70192898E-01  3.58520853E-01
 -1.10777550E-01 -1.48026263E-01  1.13076702E+00  1.00000000E+00  1.00000000E+00
  1.83107443E-03  1.39501722E-02  6.84450781E-02  2.32714336E-01  4.70192898E-01
  3.58520853E-01 -1.10777550E-01 -1.48026263E-01  1.13076702E+00  1.00000000E+00
  1.00000000E+00  3.34946043E-02  2.34726953E-01  8.13757326E-01  1.00000000E+00
  3.34946043E-02  2.34726953E-01  8.13757326E-01  1.00000000E+00
P(S=P) Contraction coefficients            R   N=          69
  0.00000000E+00  0.00000000E+00  0.00000000E+00  0.00000000E+00  0.00000000E+00
  0.00000000E+00  4.56461619E-03  3.36935719E-02  1.39754883E-01  3.39361717E-01
  4.50920624E-01  2.38585801E-01 -1.77653127E-02  2.74058196E-01  7.85421563E-01
  1.00000000E+00  0.00000000E+00  0.00000000E+00  0.00000000E+00  0.00000000E+00
  0.00000000E+00  0.00000000E+00  0.00000000E+00  7.08742682E-02  3.39752839E-01
  7.27158577E-01  1.00000000E+00  0.00000000E+00  0.00000000E+00  0.00000000E+00
  0.00000000E+00  0.00000000E+00  0.00000000E+00  0.00000000E+00  7.08742682E-02
  3.39752839E-01  7.27158577E-01  1.00000000E+00  0.00000000E+00  0.00000000E+00
  0.00000000E+00  0.00000000E+00  0.00000000E+00  0.00000000E+00  0.00000000E+00
  7.08742682E-02  3.39752839E-01  7.27158577E-01  1.00000000E+00  0.00000000E+00
  0.00000000E+00  0.00000000E+00  0.00000000E+00  0.00000000E+00  0.00000000E+00
  0.00000000E+00  7.08742682E-02  3.39752839E-01  7.27158577E-01  1.00000000E+00
  0.00000000E+00  0.00000000E+00  0.00000000E+00  0.00000000E+00  0.00000000E+00
  0.00000000E+00  0.00000000E+00  0.00000000E+00  0.00000000E+00
Coordinates of each shell                  R   N=          75
  5.11627190E-05  1.75340167E-01  2.50139153E-01  5.11627190E-05  1.75340167E-01
  2.50139153E-01  5.11627190E-05  1.75340167E-01  2.50139153E-01  5.11627190E-05
  1.75340167E-01  2.50139153E-01  5.11627190E-05  1.75340167E-01  2.50139153E-01
 -6.74726997E-04 -1.53944646E+00  2.53046790E+00 -6.74726997E-04 -1.53944646E+00
  2.53046790E+00 -6.74726997E-04 -1.53944646E+00  2.53046790E+00 -6.74726997E-04
 -1.53944646E+00  2.53046790E+00  2.44584903E+00 -6.07869307E-01 -1.55713823E+00
  2.44584903E+00 -6.07869307E-01 -1.55713823E+00  2.44584903E+00 -6.07869307E-01
 -1.55713823E+00  2.44584903E+00 -6.07869307E-01 -1.55713823E+00  1.03922333E-03
  3.01094793E+00  4.09361808E-01  1.03922333E-03  3.01094793E+00  4.09361808E-01
  1.03922333E-03  3.01094793E+00  4.09361808E-01  1.03922333E-03  3.01094793E+00
  4.09361808E-01 -2.44609068E+00 -6.06207846E-01 -1.55739901E+00 -2.44609068E+00
 -6.06207846E-01 -1.55739901E+00 -2.44609068E+00 -6.06207846E-01 -1.55739901E+00
 -2.44609068E+00 -6.06207846E-01 -1.55739901E+00  2.91533043E+00 -2.34581889E+00
 -1.17723714E+00  2.91533043E+00 -2.34581889E+00 -1.17723714E+00 -2.91708062E+00
 -2.34367816E+00 -1.17718989E+00 -2.91708062E+00 -2.34367816E+00 -1.17718989E+00
Constraint Structure                       R   N=          21
  5.11627190E-05  1.75340167E-01  2.50139153E-01 -6.74726997E-04 -1.53944646E+00
  2.53046790E+00  2.44584903E+00 -6.07869307E-01 -1.55713823E+00  1.03922333E-03
  3.01094793E+00  4.09361808E-01 -2.44609068E+00 -6.06207846E-01 -1.55739901E+00
  2.91533043E+00 -2.34581889E+00 -1.17723714E+00 -2.91708062E+00 -2.34367816E+00
 -1.17718989E+00
Num ILSW                                   I              100
ILSW                                       I   N=         100
           0           1           0           1           2           0
           0           0           0           0           0          -1
           0           0           0           0           0           0
           0           0           0           0           1           0
           1           0           0           0           0           0
           0           0      100000           0          -1           0
           0           0           0           0           0           0
           0           0           0           1           1           0
           0           0           1           0           0           0
           0           0           4          40           0           0
           0           0           0           0           0           0
           0           0           0           0           0           0
           0           0           0           0           0           0
           0           0           0           0           0           0
           0           0           0           0           0           0
           0           0           0           0           0           0
           0           0           0           0
Num RLSW                                   I               40
RLSW                                       R   N=          40
  1.00000000E+00  1.00000000E+00  1.00000000E+00  1.00000000E+00  1.00000000E+00
  0.00000000E+00  0.00000000E+00  1.00000000E+00  0.00000000E+00  0.00000000E+00
  0.00000000E+00  0.00000000E+00  1.00000000E+00  0.00000000E+00  0.00000000E+00
  0.00000000E+00  0.00000000E+00  1.00000000E+00  0.00000000E+00  0.00000000E+00
  0.00000000E+00  0.00000000E+00  1.00000000E+00  0.00000000E+00  0.00000000E+00
  0.00000000E+00  0.00000000E+00  1.00000000E+00  0.00000000E+00  0.00000000E+00
  0.00000000E+00  0.00000000E+00  0.00000000E+00  0.00000000E+00  0.00000000E+00
  0.00000000E+00  0.00000000E+00  0.00000000E+00  1.00000000E+00  1.00000000E+00
MxBond                                     I                4
NBond                                      I   N=           7
           4           1           2           1           2           1
           1
IBond                                      I   N=          28
           2           3           4           5           1           0
           0           0           1           6           0           0
           1           0           0           0           1           7
           0           0           3           0           0           0
           5           0           0           0
RBond                                      R   N=          28
  2.00000000E+00  1.00000000E+00  2.00000000E+00  1.00000000E+00  2.00000000E+00
  0.00000000E+00  0.00000000E+00  0.00000000E+00  1.00000000E+00  1.00000000E+00
  0.00000000E+00  0.00000000E+00  2.00000000E+00  0.00000000E+00  0.00000000E+00
  0.00000000E+00  1.00000000E+00  1.00000000E+00  0.00000000E+00  0.00000000E+00
  1.00000000E+00  0.00000000E+00  0.00000000E+00  0.00000000E+00  1.00000000E+00
  0.00000000E+00  0.00000000E+00  0.00000000E+00
Virial Ratio                               R      2.002553538063211E+00
SCF Energy                                 R     -6.415749377863358E+02
MP2 Energy                                 R     -6.424097530701845E+02
Total Energy                               R     -6.424097530701845E+02
Post-SCF wavefunction norm                 R      1.573294832062082E+00
RMS Force                                  R      7.439203381802502E-06
RMS Density                                R      1.176604113625207E-09
External E-field                           R   N=          35
  0.00000000E+00  0.00000000E+00  0.00000000E+00  0.00000000E+00  0.00000000E+00
  0.00000000E+00  0.00000000E+00  0.00000000E+00  0.00000000E+00  0.00000000E+00
  0.00000000E+00  0.00000000E+00  0.00000000E+00  0.00000000E+00  0.00000000E+00
  0.00000000E+00  0.00000000E+00  0.00000000E+00  0.00000000E+00  0.00000000E+00
  0.00000000E+00  0.00000000E+00  0.00000000E+00  0.00000000E+00  0.00000000E+00
  0.00000000E+00  0.00000000E+00  0.00000000E+00  0.00000000E+00  0.00000000E+00
  0.00000000E+00  0.00000000E+00  0.00000000E+00  0.00000000E+00  0.00000000E+00
IOpCl                                      I                0
IROHF                                      I                0
Alpha Orbital Energies                     R   N=          83
 -8.00582450E+01 -2.05660939E+01 -2.05660806E+01 -2.04835858E+01 -2.04797186E+01
 -7.57803851E+00 -5.47683771E+00 -5.47639663E+00 -5.47558735E+00 -1.38043135E+00
 -1.32590802E+00 -1.26100703E+00 -1.23111261E+00 -7.69103320E-01 -6.87924541E-01
 -6.37521313E-01 -5.88708117E-01 -5.83950786E-01 -5.24975573E-01 -5.13437712E-01
 -4.89401919E-01 -4.53764874E-01 -4.29713324E-01 -4.21290072E-01 -4.05365179E-01
  2.21980967E-01  2.74753350E-01  3.14402542E-01  3.55726417E-01  3.56670660E-01
  4.14500796E-01  5.09714741E-01  5.42867150E-01  5.79218152E-01  6.76732265E-01
  8.89478561E-01  9.20086068E-01  1.05908355E+00  1.06118692E+00  1.07543392E+00
  1.11726384E+00  1.18009206E+00  1.19012387E+00  1.25410034E+00  1.26690134E+00
  1.31503164E+00  1.32279481E+00  1.33755402E+00  1.38291368E+00  1.42455947E+00
  1.47048307E+00  1.50886848E+00  1.54949006E+00  1.57713509E+00  1.63018489E+00
  1.63734750E+00  1.66933428E+00  1.84243572E+00  2.03664127E+00  2.04540191E+00
  2.06528620E+00  2.09444727E+00  2.09860412E+00  2.15143636E+00  2.15721463E+00
  2.16243001E+00  2.18804542E+00  2.39018552E+00  2.44192267E+00  2.45213883E+00
  2.54824467E+00  2.60107710E+00  2.72242843E+00  2.75425859E+00  2.86554793E+00
  2.98284118E+00  3.17779665E+00  3.22092415E+00  3.90630226E+00  4.08888169E+00
  4.09777449E+00  4.25526931E+00  4.30846204E+00
Alpha MO coefficients                      R   N=        6889
  9.96429166E-01  1.34979205E-02 -6.52917202E-09 -2.33527842E-05 -3.96060567E-05
 -2.19180826E-02  9.86817939E-09  2.21602786E-05  1.14468873E-05  1.87052822E-03
 -5.34953756E-08 -1.14250556E-04  7.38337730E-05  7.47108712E-03  7.40702098E-03
  7.46754841E-03 -2.91209744E-08  7.78848973E-09  1.51698698E-05 -4.77686464E-06
 -9.43990367E-05 -3.96944131E-08 -9.55509765E-05  1.19312777E-04  6.79418675E-04
  1.29345893E-07  3.09235650E-04 -4.00975841E-04 -1.24309778E-05 -6.05990544E-05
 -9.06392279E-05 -2.36876672E-08  3.22364904E-08  7.63891338E-05 -2.54674482E-05
 -1.11338541E-04  4.39491682E-05  3.82037811E-06 -4.17354068E-05  9.23352221E-04
 -3.01840649E-04 -1.36072120E-05  2.70046233E-04 -1.64250929E-04 -5.08946784E-05
 -1.34501768E-04  1.18973170E-05  7.03928839E-05 -3.45845499E-05 -1.80594062E-05
 -1.44688090E-04  5.51019795E-08  1.58921010E-04  7.75037063E-06  9.39641421E-04
 -1.84215648E-07 -5.35040259E-04 -4.00124973E-05 -5.19361243E-05 -1.81067524E-04
 -4.93164903E-05 -5.21969225E-08 -1.62720535E-09 -5.25122398E-06 -2.54675204E-05
 -1.11338693E-04 -4.39370378E-05  3.84860805E-06 -4.17442446E-05  9.23350382E-04
  3.01777394E-04 -1.38050901E-05  2.70106081E-04 -1.64247863E-04 -5.08874799E-05
 -1.34510981E-04 -1.17945387E-05 -7.04246525E-05 -3.45493425E-05 -6.90426201E-05
 -2.02906028E-04 -6.90473842E-05 -2.02913906E-04  3.71593202E-07 -1.85082883E-06
 -7.86820358E-05  8.97157118E-07  1.51977666E-06  5.48153496E-06  3.94618764E-04
 -5.00258108E-06 -7.38700728E-06 -1.58669705E-05 -2.75173831E-04 -1.20373323E-05
  1.34163828E-05  5.05848516E-06 -1.73834494E-06  1.37619736E-06 -1.27160677E-04
 -2.19880447E-04  2.89889295E-06 -3.59133910E-06  2.15747889E-06 -2.93782309E-05
  9.82217102E-08  1.77715786E-07 -1.03031507E-05  4.23970831E-05  7.82758851E-07
  5.11307902E-07  1.10656342E-06  2.13962293E-06  1.16621872E-06 -2.02024376E-06
  2.92383860E-05 -4.01657227E-07  7.22151723E-01  1.53423840E-02 -2.97694107E-04
 -5.57670145E-04  4.89099149E-04  3.03211082E-03  1.30739818E-04  2.31479191E-04
 -2.20125354E-04 -2.96670137E-03 -3.02809631E-03 -2.94427320E-03  8.09227197E-05
  8.72230992E-05  5.40864845E-06 -3.69717859E-06 -2.60298128E-06  4.11840617E-06
 -4.42377610E-07  2.99950250E-07  1.72557471E-05 -4.43292916E-05 -1.37954812E-06
 -1.63036807E-06 -2.32396656E-06 -1.97395376E-06 -1.75035730E-06  3.79911691E-05
  3.84925364E-05 -3.89911901E-07 -6.83945349E-01 -1.45321579E-02 -2.81903953E-04
  5.27243570E-04 -4.62404365E-04 -2.86064256E-03  1.24922335E-04 -2.11852990E-04
  2.06376246E-04  2.80637591E-03  2.86712354E-03  2.78771843E-03  7.78827505E-05
  8.34016843E-05 -4.37377700E-06  2.65647940E-04 -1.33382318E-04 -2.49613340E-04
  1.24012318E-04  1.36788556E-05 -6.80471189E-05  2.14622819E-06  3.20489123E-05
  5.60549557E-05  2.02064396E-04 -1.07695699E-05 -1.79270735E-04 -2.72472322E-04
 -5.85920572E-04  7.25190268E-06 -4.45008714E-04  4.96079984E-04  1.88310439E-04
 -6.68133417E-05  5.11536030E-05  3.34806538E-06  6.01966189E-06  1.04171817E-04
 -1.32340118E-04  7.92439078E-05  7.98358733E-07  3.33014198E-06  6.72722572E-06
 -3.78483236E-04 -1.13623507E-06  2.89884028E-05  1.81744985E-05  4.07523186E-05
  7.85020740E-05  4.27360536E-05  7.25040790E-08 -7.99888357E-07 -1.44177972E-05
  6.83937382E-01  1.45030390E-02 -2.73097250E-04 -5.47596127E-04  4.81290219E-04
  3.07629247E-03  9.91248677E-05  3.56477177E-04 -2.48470074E-04 -2.87343226E-03
 -2.88000162E-03 -2.80352600E-03  5.50886458E-05  6.77373902E-05  2.02613691E-05
 -1.36054718E-04 -9.57833592E-05 -1.18894594E-07 -1.62167076E-05  1.11566980E-05
  6.34682555E-04  1.19508163E-06 -5.15449342E-05 -6.05604682E-05 -8.61707583E-05
 -7.16598005E-05 -6.44847780E-05 -1.02483498E-06 -1.05038364E-06 -1.37830332E-05
  7.22144174E-01  1.53147996E-02  2.88293525E-04 -5.77198017E-04  5.07312516E-04
  3.23639975E-03 -1.05743194E-04  3.68540810E-04 -2.60141372E-04 -3.03036723E-03
 -3.04009413E-03 -2.95930891E-03 -5.94359986E-05 -7.23538486E-05  2.05973466E-05
  2.88013326E-04 -1.68127757E-04  3.02009532E-04 -1.75150258E-04  1.90871414E-05
 -6.90223395E-05  7.08211567E-09  1.73175809E-05 -1.66605043E-05  7.36220706E-04
 -9.76674144E-08 -2.35169698E-04  2.72319308E-04 -4.47459837E-04  1.30631729E-07
  3.25905098E-04 -2.88570111E-04 -1.83190503E-04 -1.72036935E-04 -1.34204466E-04
  6.43275862E-09 -1.87753721E-08 -4.52390528E-05  9.94671260E-01  2.08914377E-02
  2.75636147E-07  6.56964069E-04 -8.95431525E-04  4.29667264E-03 -1.01548204E-07
 -2.46445839E-04  3.05929819E-04 -3.99650432E-03 -4.03427430E-03 -4.04716069E-03
 -1.78064105E-08  2.05108851E-08  4.88933042E-05  1.08422556E-04  6.45820080E-06
  6.21599487E-06  8.08527550E-06 -1.63660636E-05  4.30990711E-06 -4.20346048E-06
 -2.24174897E-05  1.81934195E-05  2.27340120E-06  4.52784508E-06 -2.37621718E-05
 -5.94932331E-06  1.49970047E-05  1.00123611E-05 -2.00221220E-03 -1.43080512E-05
  1.47274576E-09  1.12819376E-06 -1.80793893E-05 -1.27143069E-04 -8.12294055E-09
 -1.74209906E-05  3.36623469E-05  3.44636007E-05  3.69034546E-05  2.58227228E-05
 -4.22251007E-10  9.08414059E-09  2.43207329E-05  1.08426255E-04  6.45395279E-06
 -6.20989083E-06  8.09108648E-06 -1.63664714E-05  4.33251605E-06  4.18666705E-06
 -2.24290779E-05  1.81916281E-05  2.27822228E-06  4.51816258E-06 -2.37704680E-05
  5.95073738E-06 -1.49877007E-05  1.00221861E-05 -1.29624798E-05  5.28996951E-05
 -1.29665706E-05  5.28892977E-05  1.84447562E-05 -7.55694149E-05 -7.95417963E-09
 -2.12076650E-05  4.41061683E-06  6.96432966E-04  1.25469283E-07  3.52557294E-04
 -9.14860292E-06 -2.46101240E-04 -1.86180645E-07 -5.17660501E-04  7.79330509E-07
 -1.69769624E-04 -1.28441380E-04 -1.83010971E-04  1.70196398E-08  4.59809587E-09
  1.09601054E-05  2.02298804E-03  8.75265760E-05 -3.20385691E-09 -1.26957300E-05
 -1.72013963E-05 -2.02990420E-04  1.01438774E-08  3.60431046E-05  3.54294273E-05
  2.97883702E-05  5.78051451E-06  4.78536899E-05 -9.48201134E-09 -1.41907169E-09
 -1.35395036E-06  7.64971405E-05 -6.06445572E-07 -4.67437021E-06 -1.12198754E-05
 -2.53582925E-06  5.18749346E-05  5.53368113E-05  3.68890287E-06 -2.63607139E-05
 -1.76600603E-05 -3.40820480E-05 -1.51800146E-05  1.57250191E-05  9.22858640E-06
 -1.43740357E-05  9.94667806E-01  2.08977395E-02 -3.92137134E-07 -1.12892432E-03
 -6.43965660E-05  4.31415341E-03  1.40552539E-07  4.00377145E-04  1.51329272E-05
 -4.00351297E-03 -4.08123502E-03 -4.00673263E-03 -3.14124934E-08 -3.62226928E-11
 -9.15699305E-07  7.64994651E-05 -6.00596682E-07  4.66935832E-06 -1.12249260E-05
 -2.53678990E-06  5.18427577E-05 -5.53361163E-05  3.73487449E-06 -2.63603909E-05
 -1.76697929E-05 -3.40558852E-05 -1.51750410E-05 -1.57358830E-05 -9.23806897E-06
 -1.43690423E-05  2.29231802E-05 -1.15530376E-04  2.29193641E-05 -1.15515914E-04
 -2.76171691E-01  1.03102523E+00 -5.02739327E-07 -2.10432360E-03 -4.37301269E-03
  1.55813661E-02 -1.46034881E-07 -5.41209447E-04 -9.23544248E-04 -2.24013189E-03
  1.21904560E-07  3.13703656E-04  7.14288167E-05 -3.89229299E-04 -9.22702186E-04
 -7.01852819E-04 -2.14478306E-07  7.69710232E-08  1.86477573E-04 -2.81405513E-04
  5.20174818E-04  2.29832165E-07  5.45955741E-04 -7.16564859E-04 -6.01043797E-04
 -7.60092787E-08 -1.85451641E-04  2.62610519E-04 -1.85887821E-05  2.86530412E-04
  4.54937055E-04  1.48094494E-07 -1.85420455E-07 -4.38315250E-04 -7.34641515E-05
  5.13110249E-04 -3.36980581E-04  6.89382645E-05  2.70923450E-04 -1.54580396E-03
  5.21188691E-04  4.87421496E-05 -4.76306909E-04  2.81392966E-04  1.36061764E-04
  2.90145410E-04  1.67671500E-05 -7.40943058E-05  4.79965971E-05 -2.71152089E-04
  6.17751495E-04 -3.24760765E-07 -9.34299146E-04 -5.34415674E-05 -1.00690051E-03
  1.10106536E-07  3.33962261E-04  5.56451382E-05  3.73462760E-05  8.47141199E-04
  4.23229233E-05  3.28821546E-07  8.92754575E-09  2.63698658E-05 -7.34636072E-05
  5.13105298E-04  3.36987243E-04  6.87145334E-05  2.70966904E-04 -1.54578355E-03
 -5.21058679E-04  4.90774834E-05 -4.76416673E-04  2.81342110E-04  1.36096403E-04
  2.90147934E-04 -1.69057157E-05  7.41346547E-05  4.79698405E-05  1.40758404E-04
  4.04937892E-04  1.40766734E-04  4.04939019E-04  8.46633485E-09 -3.79237808E-08
  9.94532452E-01 -3.34860602E-04  3.96008993E-05 -7.84582807E-09  1.94778844E-02
 -6.53285794E-06  7.56480084E-07  1.16108217E-07 -3.10219185E-03  1.03907984E-06
 -1.54157542E-07 -3.36799569E-07  4.36636691E-07 -1.15973266E-07 -7.58996956E-04
 -1.40491732E-03  4.52950415E-07  2.03042663E-08 -2.87505260E-08  4.07254148E-04
 -1.70968208E-07  6.23041021E-08  1.89541041E-08 -4.21926584E-04  1.50604070E-07
 -4.04245916E-08  3.65936150E-08 -3.93555468E-08 -1.39739171E-08  4.78187832E-05
  1.08641808E-05  2.26791286E-08 -2.89661435E-04  9.58446236E-04 -6.61447520E-04
  1.92568245E-04  6.68295160E-04 -2.42802043E-03  8.38311722E-04  7.79376625E-05
 -1.04506640E-03  6.16938452E-04  2.47133694E-05  3.02676231E-04 -2.03596107E-05
 -2.42843779E-04  8.11766541E-05 -1.21768780E-08  3.07114561E-08  4.19380038E-04
 -1.84874173E-07  1.43777567E-08 -6.71508586E-08 -3.82518131E-04  1.56135786E-07
 -7.86818234E-09 -3.96707987E-08  6.87889035E-08  2.16686687E-09 -5.95391139E-05
  3.81461365E-05 -1.65415416E-08  2.89644959E-04 -9.58451128E-04 -6.61465706E-04
 -1.92113723E-04 -6.68370856E-04  2.42810711E-03  8.37982548E-04 -7.85917308E-05
  1.04526080E-03 -6.16918217E-04 -2.47322392E-05 -3.02719644E-04 -1.98442946E-05
 -2.42945911E-04 -8.10654924E-05  3.27987290E-04  6.02289061E-04 -3.28029890E-04
 -6.02473249E-04 -1.45848565E-03  5.56241477E-03  1.05861369E-04  4.20966315E-01
  9.01089679E-01 -3.25785897E-03  2.02639553E-06  8.02112898E-03  1.70939017E-02
 -1.16251728E-04 -3.56164381E-07 -1.43278113E-03 -2.54388725E-03  7.71586777E-04
  1.66349386E-03  5.00937343E-04  4.05404292E-07 -3.24135432E-07 -9.24675877E-04
 -4.59744910E-04  6.83561073E-04  3.86366063E-07  9.81348598E-04 -6.72018767E-04
 -6.10290150E-04 -2.12199310E-07 -5.42593262E-04  1.87230189E-04 -1.55675966E-04
  2.43467114E-04  3.34222847E-04  1.88540358E-07 -2.10920455E-07 -5.14658779E-04
  2.34246669E-04 -7.23913190E-04  7.20055592E-04 -9.06378686E-05 -3.52888802E-04
  1.91524874E-03 -8.99087339E-04 -1.55790979E-04  3.86554575E-04 -2.98338500E-04
 -5.44040495E-05 -4.91731073E-04  9.02016044E-05  3.68104069E-04 -2.11505340E-04
 -5.00295053E-04  6.30504612E-04 -4.33604513E-07 -1.19135965E-03  3.32077010E-04
 -1.84673777E-04  1.55072427E-07  4.15514341E-04 -3.20686156E-04 -2.27851225E-04
  7.19657198E-04 -2.37502327E-04  3.87186871E-07 -1.92430116E-08 -5.59988528E-05
  2.34262080E-04 -7.23881631E-04 -7.20075651E-04 -9.01659732E-05 -3.52986915E-04
  1.91506624E-03  8.98938761E-04 -1.56240359E-04  3.86725786E-04 -2.98317969E-04
 -5.43151120E-05 -4.91746171E-04 -8.99696583E-05 -3.68239636E-04 -2.11286553E-04
 -2.49808831E-04 -3.92586885E-04 -2.49750111E-04 -3.92422681E-04 -2.97746163E-05
  5.57994226E-05  3.20141431E-04  9.01087041E-01 -4.20980498E-01 -3.78898489E-04
  5.78713557E-06  1.62463738E-02 -7.64840719E-03  1.23648008E-03 -7.70708620E-07
 -2.26028932E-03  4.27172050E-04  1.05619731E-04 -3.08559451E-04  3.32228339E-04
 -1.47122545E-07 -6.63712523E-08 -2.17291705E-04  8.49286399E-04 -1.29507385E-03
 -5.26849779E-07 -1.18714768E-03  1.92966636E-03  1.12498156E-03  3.27807794E-08
  3.50393045E-05 -4.71621478E-04  3.27016239E-04 -4.79077740E-04 -1.02687273E-03
 -3.93700859E-07  5.14438248E-07  1.21701666E-03 -2.02632745E-05 -2.30269833E-05
 -5.83633642E-05  2.52826165E-04 -9.56811508E-05  1.69909359E-04  4.35732229E-04
 -1.07831539E-03  2.55087983E-04 -1.00749482E-04 -6.25813064E-06  2.57821070E-05
  1.36377894E-04 -6.66059471E-05 -1.40972084E-04 -8.54243274E-04  1.43746769E-03
 -8.10913174E-07 -2.33150942E-03 -3.76240852E-04 -1.59732567E-03  1.60558738E-07
  4.77698911E-04  4.51814926E-04 -2.85077637E-04  1.95094853E-03 -2.91081721E-04
  9.02353316E-07  3.51512524E-08  1.04601276E-04 -2.02677161E-05 -2.30112768E-05
  5.85660885E-05  2.52791591E-04 -9.56680750E-05  1.69882464E-04 -4.36613549E-04
 -1.07799261E-03  2.55144335E-04 -1.00898624E-04 -6.12480406E-06  2.58217108E-05
 -1.36260601E-04  6.64821054E-05 -1.41069579E-04 -3.23303190E-04 -7.84918141E-04
 -3.23302391E-04 -7.84939344E-04  2.96176373E-02 -1.39215639E-01  3.20519367E-06
  1.19551600E-02  1.83160496E-02  2.33511236E-01 -6.72588582E-06 -2.44809137E-02
 -3.66341437E-02 -2.61233254E-02  1.94834956E-06  6.52302934E-03  7.74128901E-03
  4.86810514E-03 -4.30432843E-03 -1.71400411E-03 -3.37627634E-06  1.17852079E-06
  3.09429190E-03 -5.64544977E-02  1.20743999E-01  9.71594661E-06  2.25179046E-02
 -3.72744653E-02  1.23657620E-01  4.74911214E-06  1.12572478E-02 -1.94296556E-02
 -1.28134567E-03  3.63287727E-03  7.13832241E-03  2.41552531E-06 -3.05680711E-06
 -7.28974666E-03 -1.28098637E-01  2.85635725E-01 -3.33590437E-02 -2.64453398E-02
  3.78919167E-02  2.76542640E-01 -2.17996346E-02 -1.28131488E-02  2.23420801E-02
  1.01409435E-02  1.23995388E-02  6.29370892E-03 -5.44352059E-03 -8.14719181E-03
 -1.85192344E-03 -5.19688025E-02  1.12366365E-01 -1.38702645E-05 -4.07027303E-02
 -5.61616820E-03  1.10927750E-01 -7.37763662E-06 -2.13034667E-02 -2.34810707E-03
 -6.91548092E-04  1.23062797E-02 -5.82989366E-04  5.27403099E-06  2.47690482E-07
  7.13731537E-04 -1.28098673E-01  2.85635473E-01  3.33305402E-02 -2.64650351E-02
  3.79033857E-02  2.76543539E-01  2.17850906E-02 -1.28266133E-02  2.23484947E-02
  1.01461900E-02  1.23909079E-02  6.29675577E-03  5.44779414E-03  8.14512968E-03
 -1.85946563E-03  7.23533378E-02  4.28490708E-03  7.23534321E-02  4.28419624E-03
  2.12597207E-08 -1.35236433E-07 -5.84563167E-02  1.93273129E-05 -2.22549589E-06
  2.31643344E-08  1.09548638E-01 -3.61041830E-05  4.12600075E-06  1.38773710E-06
 -7.97209035E-03  2.02732428E-06 -6.59910028E-07 -9.07558127E-06  1.29848945E-05
 -3.79854184E-06 -2.15922105E-02 -4.22848082E-02  1.38396787E-05  1.37983325E-06