159_Urea Gaussian SP Calculation on node35.bme.utexas.edu               
Freq      RMP2-FC                                                     6-31G(d)            
Number of atoms                            I                8
Info1-9                                    I   N=           9
          19          18        1002           0           0         100
           6           2           1
Charge                                     I                0
Multiplicity                               I                1
Number of electrons                        I               32
Number of alpha electrons                  I               16
Number of beta electrons                   I               16
Number of basis functions                  I               68
Number of independent functions            I               68
Number of point charges in /Mol/           I                0
Number of translation vectors              I                0
Atomic numbers                             I   N=           8
           8           7           7           6           1           1
           1           1
Nuclear charges                            R   N=           8
  8.00000000E+00  7.00000000E+00  7.00000000E+00  6.00000000E+00  1.00000000E+00
  1.00000000E+00  1.00000000E+00  1.00000000E+00
Current cartesian coordinates              R   N=          24
  2.68466960E-05  2.59095477E+00  9.41908717E-07 -2.18679768E+00 -1.17630790E+00
  1.53859543E-01  2.18677351E+00 -1.17634622E+00 -1.53859943E-01 -7.69951617E-07
  2.74561525E-01  1.10034982E-06 -2.17173216E+00 -2.82482347E+00 -8.19616374E-01
 -3.75903610E+00 -1.28349733E-01 -1.53035499E-01  3.75902736E+00 -1.28401181E-01
  1.53011404E-01  2.17169994E+00 -2.82485408E+00  8.19629126E-01
Force Field                                I                0
Int Atom Types                             I   N=           8
           0           0           0           0           0           0
           0           0
MM charges                                 R   N=           8
  0.00000000E+00  0.00000000E+00  0.00000000E+00  0.00000000E+00  0.00000000E+00
  0.00000000E+00  0.00000000E+00  0.00000000E+00
Integer atomic weights                     I   N=           8
          16          14          14          12           1           1
           1           1
Real atomic weights                        R   N=           8
  1.59949146E+01  1.40030740E+01  1.40030740E+01  1.20000000E+01  1.00782504E+00
  1.00782504E+00  1.00782504E+00  1.00782504E+00
Atom fragment info                         I   N=           8
           0           0           0           0           0           0
           0           0
Atom residue num                           I   N=           8
           0           0           0           0           0           0
           0           0
Nuclear spins                              I   N=           8
           0           2           2           0           1           1
           1           1
Nuclear ZEff                               R   N=           8
 -5.60000000E+00 -4.55000000E+00 -4.55000000E+00 -3.60000000E+00 -1.00000000E+00
 -1.00000000E+00 -1.00000000E+00 -1.00000000E+00
Nuclear QMom                               R   N=           8
  0.00000000E+00  2.04400000E+00  2.04400000E+00  0.00000000E+00  0.00000000E+00
  0.00000000E+00  0.00000000E+00  0.00000000E+00
Nuclear GFac                               R   N=           8
  0.00000000E+00  4.03761000E-01  4.03761000E-01  0.00000000E+00  2.79284600E+00
  2.79284600E+00  2.79284600E+00  2.79284600E+00
MicOpt                                     I   N=           8
          -1          -1          -1          -1          -1          -1
          -1          -1
Number of contracted shells                I               24
Number of primitive shells                 I               60
Pure/Cartesian d shells                    I                1
Pure/Cartesian f shells                    I                0
Highest angular momentum                   I                2
Largest degree of contraction              I                6
Shell types                                I   N=          24
           0          -1          -1           2           0          -1
          -1           2           0          -1          -1           2
           0          -1          -1           2           0           0
           0           0           0           0           0           0
Number of primitives per shell             I   N=          24
           6           3           1           1           6           3
           1           1           6           3           1           1
           6           3           1           1           3           1
           3           1           3           1           3           1
Shell to atom map                          I   N=          24
           1           1           1           1           2           2
           2           2           3           3           3           3
           4           4           4           4           5           5
           6           6           7           7           8           8
Primitive exponents                        R   N=          60
  5.48467166E+03  8.25234946E+02  1.88046958E+02  5.29645000E+01  1.68975704E+01
  5.79963534E+00  1.55396162E+01  3.59993359E+00  1.01376175E+00  2.70005823E-01
  8.00000000E-01  4.17351146E+03  6.27457911E+02  1.42902093E+02  4.02343293E+01
  1.28202129E+01  4.39043701E+00  1.16263619E+01  2.71627981E+00  7.72218397E-01
  2.12031498E-01  8.00000000E-01  4.17351146E+03  6.27457911E+02  1.42902093E+02
  4.02343293E+01  1.28202129E+01  4.39043701E+00  1.16263619E+01  2.71627981E+00
  7.72218397E-01  2.12031498E-01  8.00000000E-01  3.04752488E+03  4.57369518E+02
  1.03948685E+02  2.92101553E+01  9.28666296E+00  3.16392696E+00  7.86827235E+00
  1.88128854E+00  5.44249258E-01  1.68714478E-01  8.00000000E-01  1.87311370E+01
  2.82539436E+00  6.40121692E-01  1.61277759E-01  1.87311370E+01  2.82539436E+00
  6.40121692E-01  1.61277759E-01  1.87311370E+01  2.82539436E+00  6.40121692E-01
  1.61277759E-01  1.87311370E+01  2.82539436E+00  6.40121692E-01  1.61277759E-01
Contraction coefficients                   R   N=          60
  1.83107443E-03  1.39501722E-02  6.84450781E-02  2.32714336E-01  4.70192898E-01
  3.58520853E-01 -1.10777550E-01 -1.48026263E-01  1.13076702E+00  1.00000000E+00
  1.00000000E+00  1.83477216E-03  1.39946270E-02  6.85865518E-02  2.32240873E-01
  4.69069948E-01  3.60455199E-01 -1.14961182E-01 -1.69117479E-01  1.14585195E+00
  1.00000000E+00  1.00000000E+00  1.83477216E-03  1.39946270E-02  6.85865518E-02
  2.32240873E-01  4.69069948E-01  3.60455199E-01 -1.14961182E-01 -1.69117479E-01
  1.14585195E+00  1.00000000E+00  1.00000000E+00  1.83473713E-03  1.40373228E-02
  6.88426223E-02  2.32184443E-01  4.67941348E-01  3.62311985E-01 -1.19332420E-01
 -1.60854152E-01  1.14345644E+00  1.00000000E+00  1.00000000E+00  3.34946043E-02
  2.34726953E-01  8.13757326E-01  1.00000000E+00  3.34946043E-02  2.34726953E-01
  8.13757326E-01  1.00000000E+00  3.34946043E-02  2.34726953E-01  8.13757326E-01
  1.00000000E+00  3.34946043E-02  2.34726953E-01  8.13757326E-01  1.00000000E+00
P(S=P) Contraction coefficients            R   N=          60
  0.00000000E+00  0.00000000E+00  0.00000000E+00  0.00000000E+00  0.00000000E+00
  0.00000000E+00  7.08742682E-02  3.39752839E-01  7.27158577E-01  1.00000000E+00
  0.00000000E+00  0.00000000E+00  0.00000000E+00  0.00000000E+00  0.00000000E+00
  0.00000000E+00  0.00000000E+00  6.75797439E-02  3.23907296E-01  7.40895140E-01
  1.00000000E+00  0.00000000E+00  0.00000000E+00  0.00000000E+00  0.00000000E+00
  0.00000000E+00  0.00000000E+00  0.00000000E+00  6.75797439E-02  3.23907296E-01
  7.40895140E-01  1.00000000E+00  0.00000000E+00  0.00000000E+00  0.00000000E+00
  0.00000000E+00  0.00000000E+00  0.00000000E+00  0.00000000E+00  6.89990666E-02
  3.16423961E-01  7.44308291E-01  1.00000000E+00  0.00000000E+00  0.00000000E+00
  0.00000000E+00  0.00000000E+00  0.00000000E+00  0.00000000E+00  0.00000000E+00
  0.00000000E+00  0.00000000E+00  0.00000000E+00  0.00000000E+00  0.00000000E+00
  0.00000000E+00  0.00000000E+00  0.00000000E+00  0.00000000E+00  0.00000000E+00
Coordinates of each shell                  R   N=          72
  2.68466960E-05  2.59095477E+00  9.41908717E-07  2.68466960E-05  2.59095477E+00
  9.41908717E-07  2.68466960E-05  2.59095477E+00  9.41908717E-07  2.68466960E-05
  2.59095477E+00  9.41908717E-07 -2.18679768E+00 -1.17630790E+00  1.53859543E-01
 -2.18679768E+00 -1.17630790E+00  1.53859543E-01 -2.18679768E+00 -1.17630790E+00
  1.53859543E-01 -2.18679768E+00 -1.17630790E+00  1.53859543E-01  2.18677351E+00
 -1.17634622E+00 -1.53859943E-01  2.18677351E+00 -1.17634622E+00 -1.53859943E-01
  2.18677351E+00 -1.17634622E+00 -1.53859943E-01  2.18677351E+00 -1.17634622E+00
 -1.53859943E-01 -7.69951617E-07  2.74561525E-01  1.10034982E-06 -7.69951617E-07
  2.74561525E-01  1.10034982E-06 -7.69951617E-07  2.74561525E-01  1.10034982E-06
 -7.69951617E-07  2.74561525E-01  1.10034982E-06 -2.17173216E+00 -2.82482347E+00
 -8.19616374E-01 -2.17173216E+00 -2.82482347E+00 -8.19616374E-01 -3.75903610E+00
 -1.28349733E-01 -1.53035499E-01 -3.75903610E+00 -1.28349733E-01 -1.53035499E-01
  3.75902736E+00 -1.28401181E-01  1.53011404E-01  3.75902736E+00 -1.28401181E-01
  1.53011404E-01  2.17169994E+00 -2.82485408E+00  8.19629126E-01  2.17169994E+00
 -2.82485408E+00  8.19629126E-01
Constraint Structure                       R   N=          24
  2.68466960E-05  2.59095477E+00  9.41908717E-07 -2.18679768E+00 -1.17630790E+00
  1.53859543E-01  2.18677351E+00 -1.17634622E+00 -1.53859943E-01 -7.69951617E-07
  2.74561525E-01  1.10034982E-06 -2.17173216E+00 -2.82482347E+00 -8.19616374E-01
 -3.75903610E+00 -1.28349733E-01 -1.53035499E-01  3.75902736E+00 -1.28401181E-01
  1.53011404E-01  2.17169994E+00 -2.82485408E+00  8.19629126E-01
Num ILSW                                   I              100
ILSW                                       I   N=         100
           0           1           0           0           2           0
           0           0           0           0           0          -1
           0           0           0           0           0           0
           0           0           0           0           1           0
           1           0           0           0           0           0
           0           0      100000           0          -1           0
           0           0           0           0           0           0
           0           0           0           1           1           0
           0           0           1           0           0           0
           0           0           4          40           0           0
           0           0           0           0           0           0
           0           0           0           0           0           0
           0           0           0           0           0           0
           0           0           0           0           0           0
           0           0           0           0           0           0
           0           0           0           0           0           0
           0           0           0           0
Num RLSW                                   I               40
RLSW                                       R   N=          40
  1.00000000E+00  1.00000000E+00  1.00000000E+00  1.00000000E+00  1.00000000E+00
  0.00000000E+00  0.00000000E+00  1.00000000E+00  0.00000000E+00  0.00000000E+00
  0.00000000E+00  0.00000000E+00  1.00000000E+00  0.00000000E+00  0.00000000E+00
  0.00000000E+00  0.00000000E+00  1.00000000E+00  0.00000000E+00  0.00000000E+00
  0.00000000E+00  0.00000000E+00  1.00000000E+00  0.00000000E+00  0.00000000E+00
  0.00000000E+00  0.00000000E+00  1.00000000E+00  0.00000000E+00  0.00000000E+00
  0.00000000E+00  0.00000000E+00  0.00000000E+00  0.00000000E+00  0.00000000E+00
  0.00000000E+00  0.00000000E+00  0.00000000E+00  1.00000000E+00  1.00000000E+00
MxBond                                     I                3
NBond                                      I   N=           8
           1           3           3           3           1           1
           1           1
IBond                                      I   N=          24
           4           0           0           4           5           6
           4           7           8           1           2           3
           2           0           0           2           0           0
           3           0           0           3           0           0
RBond                                      R   N=          24
  2.00000000E+00  0.00000000E+00  0.00000000E+00  1.41000000E+00  1.00000000E+00
  1.00000000E+00  1.41000000E+00  1.00000000E+00  1.00000000E+00  2.00000000E+00
  1.41000000E+00  1.41000000E+00  1.00000000E+00  0.00000000E+00  0.00000000E+00
  1.00000000E+00  0.00000000E+00  0.00000000E+00  1.00000000E+00  0.00000000E+00
  0.00000000E+00  1.00000000E+00  0.00000000E+00  0.00000000E+00
Virial Ratio                               R      2.003394020004844E+00
SCF Energy                                 R     -2.239814942662264E+02
MP2 Energy                                 R     -2.246074571589089E+02
Total Energy                               R     -2.246074571589089E+02
Post-SCF wavefunction norm                 R      1.540648676066814E+00
RMS Force                                  R      4.628823722205691E-07
RMS Density                                R      4.244993208837871E-10
External E-field                           R   N=          35
  0.00000000E+00  0.00000000E+00  0.00000000E+00  0.00000000E+00  0.00000000E+00
  0.00000000E+00  0.00000000E+00  0.00000000E+00  0.00000000E+00  0.00000000E+00
  0.00000000E+00  0.00000000E+00  0.00000000E+00  0.00000000E+00  0.00000000E+00
  0.00000000E+00  0.00000000E+00  0.00000000E+00  0.00000000E+00  0.00000000E+00
  0.00000000E+00  0.00000000E+00  0.00000000E+00  0.00000000E+00  0.00000000E+00
  0.00000000E+00  0.00000000E+00  0.00000000E+00  0.00000000E+00  0.00000000E+00
  0.00000000E+00  0.00000000E+00  0.00000000E+00  0.00000000E+00  0.00000000E+00
IOpCl                                      I                0
IROHF                                      I                0
Alpha Orbital Energies                     R   N=          68
 -2.05229335E+01 -1.55870345E+01 -1.55870090E+01 -1.13837686E+01 -1.38497674E+00
 -1.23009409E+00 -1.17471588E+00 -8.16831473E-01 -7.29186750E-01 -7.18934604E-01
 -6.28454367E-01 -6.02627523E-01 -5.93391843E-01 -4.41380509E-01 -4.37545085E-01
 -4.14651570E-01  2.03000981E-01  2.12668136E-01  2.75126722E-01  2.75603974E-01
  3.00276388E-01  4.43816075E-01  5.03220022E-01  5.93722540E-01  7.84214211E-01
  7.96994064E-01  8.11471988E-01  8.96725685E-01  9.39981267E-01  9.44495975E-01
  9.78804908E-01  1.02832282E+00  1.06483520E+00  1.15987719E+00  1.16485211E+00
  1.18458551E+00  1.18752169E+00  1.24733074E+00  1.30493736E+00  1.32999720E+00
  1.35081340E+00  1.43655367E+00  1.59680640E+00  1.67178012E+00  1.67238207E+00
  1.87399813E+00  2.01881296E+00  2.07785486E+00  2.09052557E+00  2.13680877E+00
  2.16564200E+00  2.28031465E+00  2.33321202E+00  2.51989485E+00  2.52129807E+00
  2.57220516E+00  2.67657012E+00  2.83914612E+00  2.87754310E+00  2.91354105E+00
  3.01253314E+00  3.21984678E+00  3.35541033E+00  3.42930933E+00  4.18833380E+00
  4.23432311E+00  4.45540068E+00  4.73695360E+00
Alpha MO coefficients                      R   N=        4624
  9.94691518E-01  2.10145086E-02 -1.99267620E-08 -1.58414825E-03 -4.54420800E-10
  4.41333062E-03  2.13425593E-09  7.03667266E-05  1.99973649E-10 -3.90533807E-03
 -3.62147217E-03 -4.08233936E-03  3.00660500E-09  5.38419438E-06 -2.63366990E-10
 -5.30985443E-06 -1.99753733E-05  5.04682883E-06 -3.13278091E-05  4.10571528E-06
  3.06786862E-05 -3.77340767E-05  1.62763984E-05 -1.41053536E-05  6.64006206E-05
 -7.99829284E-05 -3.69635014E-05 -3.01728280E-05 -6.41271103E-06 -1.14845538E-06
 -5.31013376E-06 -1.99761708E-05 -5.04616283E-06 -3.13288525E-05 -4.10587382E-06
  3.06851935E-05  3.77362956E-05  1.62790391E-05  1.41048289E-05  6.63983830E-05
 -7.99841010E-05 -3.69642258E-05  3.01709615E-05 -6.41263456E-06  1.14864323E-06
  1.88491592E-06  5.28990371E-04 -2.72180829E-11 -3.99143206E-05 -1.06004794E-10
 -3.88975383E-04 -7.93980420E-09 -4.76091496E-04  1.35390849E-10 -3.00733817E-05
 -8.00574485E-04 -3.01167137E-05 -1.18021530E-08 -7.67380903E-06  1.84636520E-10
  1.90037276E-05 -4.92158941E-05 -1.79468039E-05 -4.23188272E-05 -1.79471245E-05
 -4.23219987E-05  1.90043899E-05 -4.92149266E-05 -2.24456376E-07 -1.52476089E-06
 -2.25864613E-06  3.79631765E-07 -3.06532234E-06  7.47154221E-06  4.52349031E-04
 -2.12213988E-06  6.09902824E-05 -7.83091771E-07 -3.97843221E-07 -1.49881175E-06
 -1.18919300E-04  2.90718473E-08 -1.44933592E-05  7.10739586E-01  1.80378120E-02
  1.65503682E-04  2.17301250E-04 -6.70383922E-04 -2.18273730E-03 -4.04609697E-04
 -6.06039406E-04  5.09988075E-04 -2.45915751E-03 -2.51359295E-03 -2.34346603E-03
 -5.70138936E-06  6.01286770E-06 -1.50477171E-05 -6.96276105E-01 -1.76731299E-02
  1.63402691E-04 -2.13328286E-04 -6.56938681E-04  2.14794126E-03 -3.95631699E-04
  6.02658803E-04  5.01231237E-04  2.40761439E-03  2.46330817E-03  2.29361837E-03
 -5.85138869E-06 -5.93519225E-06 -1.42152022E-05  7.31708566E-08  3.49044669E-06
 -2.47909765E-04 -1.84662781E-06  1.13963025E-05  1.62800045E-05 -1.80094778E-03
 -1.15044939E-05 -1.67801475E-04 -2.48480168E-06 -1.95520764E-06 -1.22338864E-06
 -1.21581727E-04  2.49979760E-07  9.09730550E-07  1.89561637E-04  2.97133904E-04
  2.55525706E-04  2.53584218E-04 -2.51884477E-04 -2.47468305E-04 -1.85471163E-04
 -2.91071669E-04 -2.18141109E-05 -1.48287562E-04  2.34824125E-08  3.69955302E-05
  3.13120748E-08  7.25851639E-04 -4.65068164E-06 -2.05781367E-04 -6.26391805E-07
 -7.58600887E-05 -3.89144100E-05 -1.45798241E-04  1.22169560E-06  2.83836172E-06
  1.48866368E-07  6.96259313E-01  1.75540509E-02  9.99997777E-05  1.91334709E-04
 -6.47076060E-04 -1.66944187E-03 -4.31574279E-04 -1.58711650E-04  4.20652112E-04
 -2.48206655E-03 -2.42020831E-03 -2.40071219E-03  7.40472602E-06  3.80129525E-06
 -4.03547266E-05  7.10723137E-01  1.79211473E-02 -1.03370823E-04  1.95767095E-04
  6.60719186E-04 -1.71394734E-03  4.39790000E-04 -1.71147446E-04 -4.31044795E-04
 -2.53209822E-03 -2.47136849E-03 -2.44838039E-03 -7.28433649E-06  3.92562236E-06
  4.06559923E-05  7.10172766E-06  3.39442057E-04  2.54708506E-06 -1.79900922E-04
 -1.17256597E-07  1.58314365E-03  1.84974588E-05 -1.11959857E-03  1.72406285E-06
 -2.41463909E-04 -1.90226599E-04 -1.19038181E-04  1.24875307E-06  2.43492472E-05
 -9.55753914E-09  1.96910420E-04  2.91870150E-04  1.74527474E-04  2.94912129E-04
  1.79744347E-04  3.00063679E-04  2.00764196E-04  2.97914544E-04 -2.45944613E-04
  6.75603288E-04 -4.51549330E-09 -3.54711611E-04  1.16390948E-12 -3.46434854E-03
  1.62890944E-08  1.64503172E-03  2.62975492E-10  2.01179459E-04  2.09139116E-04
  4.08095545E-04  2.75400155E-09  6.47913915E-06 -1.43521103E-10 -2.71629233E-04
  1.00540439E-04 -1.18569372E-04 -2.52959720E-05 -1.50151441E-05  2.08781087E-03
  9.04909826E-04 -4.04348714E-04  9.51007857E-06 -4.96905582E-04 -3.44906140E-04
  2.40047944E-05 -2.55929168E-04  1.20646543E-05  4.20111242E-05 -2.71627384E-04
  1.00542582E-04  1.18566213E-04 -2.52969735E-05  1.50150138E-05  2.08779105E-03
 -9.04915159E-04 -4.04343978E-04 -9.50357647E-06 -4.96894064E-04 -3.44913892E-04
  2.40058057E-05  2.55931115E-04  1.20654017E-05 -4.20121051E-05  9.95798467E-01
  2.56683702E-02 -3.90161540E-09 -2.67894307E-04 -2.73981413E-10 -5.89277453E-03
  5.18347477E-08  3.82399057E-03 -1.33695344E-09 -1.36822515E-03 -8.12709191E-04
 -2.41215799E-03  1.43785979E-08 -5.19863211E-05  1.97550673E-10 -1.17433357E-04
  1.35877543E-04  1.19296867E-04  3.46808889E-04  1.19297482E-04  3.46810122E-04
 -1.17436962E-04  1.35873955E-04 -1.69251950E-01  3.68659058E-01 -1.39095243E-06
 -1.24219392E-01  6.01067762E-10  3.50512921E-01 -5.88496298E-07 -5.31960631E-02
 -1.67502240E-08 -3.38362414E-03  1.63016645E-02 -2.86317033E-03  2.72049591E-07
  4.95811963E-07  3.98852870E-09 -5.36929089E-02  1.12716835E-01  3.27439235E-02
  3.02266195E-02 -1.19865788E-02  9.24807258E-02  6.55448974E-03  1.45078319E-02
 -6.41422671E-03  6.75625662E-03  6.18439303E-03 -1.33216858E-03  4.68025987E-03
 -4.67743413E-04  3.59695522E-04 -5.36928293E-02  1.12716657E-01 -3.27433086E-02
  3.02273494E-02  1.19865135E-02  9.24806084E-02 -6.55425014E-03  1.45080525E-02
  6.41415239E-03  6.75614510E-03  6.18452005E-03 -1.33216265E-03 -4.68029666E-03
 -4.67792632E-04 -3.59721022E-04 -1.31493891E-01  2.61742663E-01  1.42401791E-06
  1.18036060E-01 -6.43131653E-08  5.69706137E-02 -3.46846984E-07 -2.74539562E-02
  6.55770046E-11 -8.75065185E-03  2.70536826E-02 -2.06350591E-02  5.37603519E-07
 -4.49771519E-04 -3.05214321E-09  2.38724370E-02 -1.84666139E-03  2.64512232E-02
 -2.15095427E-03  2.64512571E-02 -2.15092484E-03  2.38722996E-02 -1.84657905E-03
  1.08016349E-01 -2.35912413E-01  2.92271252E-07  4.41747212E-02 -2.15657805E-08
 -2.41600648E-01  5.53923347E-08  1.86067894E-02 -1.77241875E-08  5.60117482E-04
 -6.14430947E-03  2.38924780E-03 -3.53375665E-08 -5.82575483E-05  5.76628844E-09
 -1.20031556E-01  2.48246396E-01  3.60509960E-02  6.27451460E-03 -3.21307240E-02
  2.63293616E-01  1.79453499E-02 -1.23048758E-03 -1.86291266E-02  9.84440669E-03
  6.28233820E-03 -2.73721670E-03 -1.72176149E-03  1.09169255E-04  5.10638693E-03
 -1.20028507E-01  2.48240069E-01 -3.60504561E-02  6.27486226E-03  3.21297087E-02
  2.63286826E-01 -1.79451184E-02 -1.23025642E-03  1.86285243E-02  9.84425116E-03
  6.28205338E-03 -2.73710954E-03  1.72153095E-03  1.08986233E-04 -5.10640769E-03
 -3.98949731E-02  8.67237004E-02 -4.27112301E-06 -2.17859574E-01 -2.48889608E-08
  1.25417210E-02  2.56410242E-07  5.24782367E-03  3.00393269E-08  2.60511290E-02
 -1.36989804E-02 -3.90571519E-03 -1.81164417E-07 -6.07820645E-04  1.86018925E-08
  7.66379057E-02  4.90053123E-04  6.37073494E-02 -1.81214739E-03  6.37052876E-02
 -1.81222432E-03  7.66359018E-02  4.90147257E-04  1.15852947E-06 -2.61763668E-06
  3.12022856E-02 -3.39643007E-08 -7.53564587E-04 -2.39612639E-06  1.88494028E-02
 -1.23352469E-07  3.78518890E-04 -1.31152768E-07  3.25299300E-08 -1.02029201E-08
 -5.16582150E-03 -4.07004194E-09 -4.76902879E-05  1.43040032E-01 -2.96061553E-01
  5.95697463E-03 -2.25435455E-02  4.09658144E-02 -3.33460545E-01 -7.05203336E-04
 -1.32027403E-02  2.53634164E-02 -7.42734076E-03 -1.12431533E-02  3.16398291E-03
  3.86994618E-03 -2.13542494E-03 -5.03405966E-03 -1.43042632E-01  2.96066951E-01
  5.95700442E-03  2.25438355E-02  4.09662628E-02  3.33466169E-01 -7.04990811E-04
  1.32029897E-02  2.53636947E-02  7.42761712E-03  1.12432157E-02 -3.16399543E-03
  3.86999865E-03  2.13522944E-03 -5.03439144E-03 -3.14167072E-07  6.67244997E-07
  1.81814797E-01 -3.84213824E-06 -3.55897347E-03  1.73957479E-07 -1.62679314E-02
 -1.75276614E-07 -2.27598300E-03 -1.00459878E-07  2.48028718E-07 -2.44352246E-08
 -2.55357379E-02 -2.93170843E-08  3.53761788E-04 -8.99473333E-02 -1.01356687E-03
 -9.68767866E-02 -3.55869271E-03  9.68780853E-02  3.55864630E-03  8.99491698E-02
  1.01372299E-03  5.47823300E-02 -1.24719026E-01 -1.39865073E-06 -9.88793162E-02
  9.60745595E-08 -1.60614438E-01 -9.03411970E-07 -5.52324151E-02  1.03025239E-07
 -3.73393598E-03  6.92772828E-03 -8.14865512E-04  1.87495185E-07  1.90906293E-04
 -2.11377449E-08  4.10093231E-02 -8.54658018E-02  2.63623378E-01  9.68207146E-02
  4.51545785E-02 -1.29893631E-01  1.29323503E-01  4.99119168E-02  2.56099956E-02
  4.16485584E-03 -8.93104215E-03 -2.52767776E-03  1.91944715E-02 -9.75561495E-03
 -7.58623818E-03  4.10092311E-02 -8.54654976E-02 -2.63619679E-01  9.68244877E-02
 -4.51535238E-02 -1.29893648E-01 -1.29321461E-01  4.99136185E-02 -2.56094122E-02
  4.16438488E-03 -8.93051019E-03 -2.52763532E-03 -1.91945291E-02 -9.75528501E-03
  7.58662631E-03 -1.22733423E-01  2.79491808E-01 -2.28179647E-06 -1.48401234E-01
  1.98187547E-07  1.63167177E-01 -2.53454718E-07 -4.87915728E-02 -4.82059350E-08
  6.23055774E-03  1.62457902E-03 -1.17536790E-02  1.06959550E-08 -4.76382416E-03
  1.88930302E-08 -9.03169148E-02 -3.55685085E-02 -1.24320253E-01 -4.39202764E-02
 -1.24318444E-01 -4.39199151E-02 -9.03175017E-02 -3.55686042E-02 -2.22670773E-07
  4.72631694E-07  1.64304565E-01 -1.29366082E-06 -3.70182754E-02  7.21647949E-07
  9.68595020E-02 -8.03489180E-07 -2.51980516E-02 -2.50165393E-07  1.68785969E-07
 -5.92316539E-09 -1.22763370E-02  5.15364249E-08  4.65485304E-03 -9.12195716E-03
  1.72062846E-02 -8.75430448E-02 -2.81771078E-01 -9.99519288E-02  2.88482701E-02
 -4.67774471E-02 -1.65779906E-01 -6.64464945E-02 -8.99353398E-03  5.65825102E-03
  8.52142198E-03 -6.88432638E-03 -4.39277729E-04  1.76845993E-02  9.12220850E-03
 -1.72069803E-02 -8.75415295E-02  2.81768956E-01 -9.99526144E-02 -2.88483288E-02
 -4.67770401E-02  1.65778529E-01 -6.64468797E-02  8.99323231E-03 -5.65786571E-03
 -8.52162623E-03 -6.88433731E-03  4.39269257E-04  1.76844448E-02  2.97690129E-07
 -7.18690142E-07  2.84549604E-01 -3.49422945E-06 -6.85338309E-02 -8.52513524E-07
  4.19538592E-02 -2.12766202E-07 -5.69031027E-03 -1.58904911E-07  2.44382044E-07
  3.14591632E-08 -5.30924967E-03 -2.78700859E-09  4.02460333E-03  1.73456985E-01
  7.07034148E-02 -2.74663784E-02 -1.14273628E-02  2.74652584E-02  1.14270316E-02
 -1.73455842E-01 -7.07029396E-02  5.64536166E-02 -1.26038430E-01 -4.83440067E-07
 -1.64046233E-01 -7.66149477E-07 -1.99989152E-01 -1.69815003E-07 -8.56539983E-02
 -5.05267486E-07 -2.71963195E-03  1.37096225E-02 -1.86514682E-03  1.14572145E-07
  5.73801133E-05  8.60791769E-08 -3.43793783E-03  8.92474954E-03 -1.51639417E-01
  2.65148759E-01  4.93354894E-02  9.09677066E-03 -1.03381524E-01  1.61291597E-01
  2.51858949E-02  1.10768379E-02 -3.50136032E-03 -5.94015195E-03 -7.76262268E-03
  7.39270083E-03 -1.74277257E-02 -3.43790859E-03  8.92476583E-03  1.51638679E-01
  2.65147581E-01 -4.93396398E-02  9.09659041E-03  1.03381564E-01  1.61290667E-01
 -2.51885735E-02  1.10770935E-02 -3.50123717E-03 -5.94052836E-03  7.76248804E-03
  7.39256119E-03  1.74275033E-02 -3.42215194E-02  8.46988673E-02  3.29549511E-06
  1.02648261E-01 -1.26547206E-06  4.97342480E-02  4.69604550E-07 -6.11273988E-03
 -2.57725535E-07  1.66546014E-02 -1.66487204E-02 -2.96338328E-03 -4.85325763E-07
 -2.82490381E-03  5.17360881E-08 -1.46851696E-01 -6.62188856E-02  1.48052427E-01
  4.89400172E-02  1.48050959E-01  4.89392252E-02 -1.46852186E-01 -6.62191345E-02
 -4.74538837E-07  1.02638236E-06 -1.02016343E-01  4.41480746E-06 -5.08301774E-04
  2.05708074E-06 -6.64551530E-02  2.59473783E-06  2.58671474E-03  3.00381075E-07
 -4.85409005E-07  1.46018710E-08  1.14162155E-02 -5.26798085E-09 -5.02755065E-04
 -8.24032417E-03  1.62546483E-02  3.27383234E-01 -1.17278476E-01 -2.93439324E-02
  3.54240094E-02  2.17680233E-01 -7.63491760E-02 -1.72737653E-02 -1.08879240E-02
  2.68313946E-03  2.94602286E-03  2.09175529E-02 -1.27327819E-02  1.01874501E-02
  8.23987269E-03 -1.62537042E-02  3.27387490E-01  1.17277560E-01 -2.93493708E-02
 -3.54218971E-02  2.17682904E-01  7.63485284E-02 -1.72773454E-02  1.08887654E-02
 -2.68350839E-03 -2.94649580E-03  2.09178599E-02  1.27327316E-02  1.01872815E-02
  6.01587323E-07 -1.41270364E-06 -2.37661833E-01  9.03363421E-07  6.70598465E-03
 -1.59880173E-06 -4.47020977E-02  7.81162057E-07 -6.75652640E-03  6.10980137E-07
 -6.14584724E-07  6.27863654E-08  2.54067290E-02 -1.68649914E-07 -8.98340501E-04
  7.87611552E-02  4.26997251E-02 -1.97247704E-01 -9.67102739E-02  1.97250405E-01
  9.67117482E-02 -7.87630370E-02 -4.27007676E-02 -6.98339643E-02  1.62379569E-01
  4.90424498E-06  4.66111805E-01 -6.13328690E-06  2.81603638E-01  2.88572713E-06
  2.84077305E-01 -4.07060521E-06  1.03147547E-02 -3.26955098E-02  8.16754328E-03
 -5.92588892E-07  1.42240524E-04  5.49140849E-07 -1.09501430E-02  2.36103084E-02
  3.85202927E-02  1.52952305E-01  6.70798994E-02  5.23882397E-02  3.89486333E-02
  8.70119924E-02  4.35950955E-02  1.11396464E-02 -9.49344274E-03 -5.38130970E-03
 -2.32176845E-03 -3.48655217E-04 -9.15421923E-03 -1.09513990E-02  2.36133438E-02
 -3.85238137E-02  1.52946292E-01 -6.70907957E-02  5.23920126E-02 -3.89509013E-02
  8.70075495E-02 -4.36028253E-02  1.11396843E-02 -9.49314043E-03 -5.38165974E-03
  2.32123574E-03 -3.48438452E-04  9.15354638E-03  4.04524643E-02 -1.00142471E-01
 -3.32552333E-06 -3.32971166E-01 -6.53480956E-06 -5.96531737E-02  4.67871403E-07
 -6.16333659E-03 -3.01470497E-06  2.66030176E-02 -2.06001947E-02  5.48955612E-03
 -8.84770763E-07 -5.78228726E-03 -2.69766845E-08 -1.01863825E-01 -6.57175662E-02
  3.87811736E-02  3.45199768E-02  3.87772000E-02  3.45181456E-02 -1.01862305E-01
 -6.57168391E-02 -1.34215864E-06  3.12293333E-06  1.03820955E-01  8.44467470E-06
  2.86704368E-01  5.56186942E-06  6.95902591E-02  5.12702030E-06  1.90746990E-01
  8.78705455E-08 -5.53038447E-07  1.58477428E-07 -6.35261242E-03 -3.03974673E-07
 -2.61273327E-02 -2.50490544E-02  5.97035803E-02  6.43898400E-03 -8.72984563E-02
  2.42324352E-01  8.62517881E-02 -1.58253626E-03 -6.92040066E-02  1.76486356E-01
  3.60509250E-03  2.81139199E-03 -7.28909723E-03  1.93984807E-04  9.57199116E-03
  1.06376838E-02  2.50483190E-02 -5.97019106E-02  6.44093211E-03  8.73071983E-02
  2.42319047E-01 -8.62485827E-02 -1.58139786E-03  6.92093799E-02  1.76482797E-01
 -3.60456387E-03 -2.81170653E-03  7.28873246E-03  1.94211232E-04 -9.57167371E-03
  1.06383247E-02  8.76020707E-07 -2.11064180E-06  7.50289645E-02 -7.61934635E-06
  3.03352601E-01 -1.33116795E-06  1.72431919E-02 -4.36502607E-07  1.45855368E-01
  8.34303402E-07 -6.64111986E-07  1.11514232E-07  6.75995600E-03 -1.41683371E-07
  5.07362366E-03 -4.30153151E-04 -3.07799694E-03 -2.76167976E-02 -1.50532987E-02
  2.76189562E-02  1.50550737E-02  4.25149905E-04  3.07465401E-03  6.76863773E-09
  4.97473398E-08  5.09326020E-01 -4.18759303E-06 -2.59569193E-01 -1.62547002E-07