opt=(Tight,CalcAll)                                                     
Freq      RMP2-FC                                                     6-31G(d)            
Number of atoms                            I                6
Info1-9                                    I   N=           9
          15          15        1002           0           0         100
           6           2           1
Charge                                     I                0
Multiplicity                               I                1
Number of electrons                        I               24
Number of alpha electrons                  I               12
Number of beta electrons                   I               12
Number of basis functions                  I               51
Number of independent functions            I               51
Number of point charges in /Mol/           I                0
Number of translation vectors              I                0
Atomic numbers                             I   N=           6
           6           1           8           7           1           1
Nuclear charges                            R   N=           6
  6.00000000E+00  1.00000000E+00  8.00000000E+00  7.00000000E+00  1.00000000E+00
  1.00000000E+00
Current cartesian coordinates              R   N=          18
 -2.98489678E-01  7.41048279E-01  2.57666763E-03 -2.44233444E-01  2.82801145E+00
 -1.00514360E-03 -2.27341572E+00 -4.65388055E-01  8.49964357E-03  2.05677004E+00
 -3.02350432E-01 -5.64854126E-02  3.61596156E+00  7.65072863E-01  1.99638408E-01
  2.20914537E+00 -2.19981653E+00  1.13307469E-01
Force Field                                I                0
Int Atom Types                             I   N=           6
           0           0           0           0           0           0
MM charges                                 R   N=           6
  0.00000000E+00  0.00000000E+00  0.00000000E+00  0.00000000E+00  0.00000000E+00
  0.00000000E+00
Integer atomic weights                     I   N=           6
          12           1          16          14           1           1
Real atomic weights                        R   N=           6
  1.20000000E+01  1.00782504E+00  1.59949146E+01  1.40030740E+01  1.00782504E+00
  1.00782504E+00
Atom fragment info                         I   N=           6
           0           0           0           0           0           0
Atom residue num                           I   N=           6
           0           0           0           0           0           0
Nuclear spins                              I   N=           6
           0           1           0           2           1           1
Nuclear ZEff                               R   N=           6
 -3.60000000E+00 -1.00000000E+00 -5.60000000E+00 -4.55000000E+00 -1.00000000E+00
 -1.00000000E+00
Nuclear QMom                               R   N=           6
  0.00000000E+00  0.00000000E+00  0.00000000E+00  2.04400000E+00  0.00000000E+00
  0.00000000E+00
Nuclear GFac                               R   N=           6
  0.00000000E+00  2.79284600E+00  0.00000000E+00  4.03761000E-01  2.79284600E+00
  2.79284600E+00
MicOpt                                     I   N=           6
          -1          -1          -1          -1          -1          -1
Number of contracted shells                I               18
Number of primitive shells                 I               45
Pure/Cartesian d shells                    I                1
Pure/Cartesian f shells                    I                0
Highest angular momentum                   I                2
Largest degree of contraction              I                6
Shell types                                I   N=          18
           0          -1          -1           2           0           0
           0          -1          -1           2           0          -1
          -1           2           0           0           0           0
Number of primitives per shell             I   N=          18
           6           3           1           1           3           1
           6           3           1           1           6           3
           1           1           3           1           3           1
Shell to atom map                          I   N=          18
           1           1           1           1           2           2
           3           3           3           3           4           4
           4           4           5           5           6           6
Primitive exponents                        R   N=          45
  3.04752488E+03  4.57369518E+02  1.03948685E+02  2.92101553E+01  9.28666296E+00
  3.16392696E+00  7.86827235E+00  1.88128854E+00  5.44249258E-01  1.68714478E-01
  8.00000000E-01  1.87311370E+01  2.82539436E+00  6.40121692E-01  1.61277759E-01
  5.48467166E+03  8.25234946E+02  1.88046958E+02  5.29645000E+01  1.68975704E+01
  5.79963534E+00  1.55396162E+01  3.59993359E+00  1.01376175E+00  2.70005823E-01
  8.00000000E-01  4.17351146E+03  6.27457911E+02  1.42902093E+02  4.02343293E+01
  1.28202129E+01  4.39043701E+00  1.16263619E+01  2.71627981E+00  7.72218397E-01
  2.12031498E-01  8.00000000E-01  1.87311370E+01  2.82539436E+00  6.40121692E-01
  1.61277759E-01  1.87311370E+01  2.82539436E+00  6.40121692E-01  1.61277759E-01
Contraction coefficients                   R   N=          45
  1.83473713E-03  1.40373228E-02  6.88426223E-02  2.32184443E-01  4.67941348E-01
  3.62311985E-01 -1.19332420E-01 -1.60854152E-01  1.14345644E+00  1.00000000E+00
  1.00000000E+00  3.34946043E-02  2.34726953E-01  8.13757326E-01  1.00000000E+00
  1.83107443E-03  1.39501722E-02  6.84450781E-02  2.32714336E-01  4.70192898E-01
  3.58520853E-01 -1.10777550E-01 -1.48026263E-01  1.13076702E+00  1.00000000E+00
  1.00000000E+00  1.83477216E-03  1.39946270E-02  6.85865518E-02  2.32240873E-01
  4.69069948E-01  3.60455199E-01 -1.14961182E-01 -1.69117479E-01  1.14585195E+00
  1.00000000E+00  1.00000000E+00  3.34946043E-02  2.34726953E-01  8.13757326E-01
  1.00000000E+00  3.34946043E-02  2.34726953E-01  8.13757326E-01  1.00000000E+00
P(S=P) Contraction coefficients            R   N=          45
  0.00000000E+00  0.00000000E+00  0.00000000E+00  0.00000000E+00  0.00000000E+00
  0.00000000E+00  6.89990666E-02  3.16423961E-01  7.44308291E-01  1.00000000E+00
  0.00000000E+00  0.00000000E+00  0.00000000E+00  0.00000000E+00  0.00000000E+00
  0.00000000E+00  0.00000000E+00  0.00000000E+00  0.00000000E+00  0.00000000E+00
  0.00000000E+00  7.08742682E-02  3.39752839E-01  7.27158577E-01  1.00000000E+00
  0.00000000E+00  0.00000000E+00  0.00000000E+00  0.00000000E+00  0.00000000E+00
  0.00000000E+00  0.00000000E+00  6.75797439E-02  3.23907296E-01  7.40895140E-01
  1.00000000E+00  0.00000000E+00  0.00000000E+00  0.00000000E+00  0.00000000E+00
  0.00000000E+00  0.00000000E+00  0.00000000E+00  0.00000000E+00  0.00000000E+00
Coordinates of each shell                  R   N=          54
 -2.98489678E-01  7.41048279E-01  2.57666763E-03 -2.98489678E-01  7.41048279E-01
  2.57666763E-03 -2.98489678E-01  7.41048279E-01  2.57666763E-03 -2.98489678E-01
  7.41048279E-01  2.57666763E-03 -2.44233444E-01  2.82801145E+00 -1.00514360E-03
 -2.44233444E-01  2.82801145E+00 -1.00514360E-03 -2.27341572E+00 -4.65388055E-01
  8.49964357E-03 -2.27341572E+00 -4.65388055E-01  8.49964357E-03 -2.27341572E+00
 -4.65388055E-01  8.49964357E-03 -2.27341572E+00 -4.65388055E-01  8.49964357E-03
  2.05677004E+00 -3.02350432E-01 -5.64854126E-02  2.05677004E+00 -3.02350432E-01
 -5.64854126E-02  2.05677004E+00 -3.02350432E-01 -5.64854126E-02  2.05677004E+00
 -3.02350432E-01 -5.64854126E-02  3.61596156E+00  7.65072863E-01  1.99638408E-01
  3.61596156E+00  7.65072863E-01  1.99638408E-01  2.20914537E+00 -2.19981653E+00
  1.13307469E-01  2.20914537E+00 -2.19981653E+00  1.13307469E-01
Constraint Structure                       R   N=          18
 -2.98489678E-01  7.41048279E-01  2.57666763E-03 -2.44233444E-01  2.82801145E+00
 -1.00514360E-03 -2.27341572E+00 -4.65388055E-01  8.49964357E-03  2.05677004E+00
 -3.02350432E-01 -5.64854126E-02  3.61596156E+00  7.65072863E-01  1.99638408E-01
  2.20914537E+00 -2.19981653E+00  1.13307469E-01
Num ILSW                                   I              100
ILSW                                       I   N=         100
           0           1           0           0           2           0
           0           0           0           0           0          -1
           0           0           0           0           0           0
           0           0           0           0           1           0
           1           0           0           0           0           0
           0           0      100000           0          -1           0
           0           0           0           0           0           0
           0           0           0           1           1           0
           0           0           1           0           0           0
           0           0           4          40           0           0
           0           0           0           0           0           0
           0           0           0           0           0           0
           0           0           0           0           0           0
           0           0           0           0           0           0
           0           0           0           0           0           0
           0           0           0           0           0           0
           0           0           0           0
Num RLSW                                   I               40
RLSW                                       R   N=          40
  1.00000000E+00  1.00000000E+00  1.00000000E+00  1.00000000E+00  1.00000000E+00
  0.00000000E+00  0.00000000E+00  1.00000000E+00  0.00000000E+00  0.00000000E+00
  0.00000000E+00  0.00000000E+00  1.00000000E+00  0.00000000E+00  0.00000000E+00
  0.00000000E+00  0.00000000E+00  1.00000000E+00  0.00000000E+00  0.00000000E+00
  0.00000000E+00  0.00000000E+00  1.00000000E+00  0.00000000E+00  0.00000000E+00
  0.00000000E+00  0.00000000E+00  1.00000000E+00  0.00000000E+00  0.00000000E+00
  0.00000000E+00  0.00000000E+00  0.00000000E+00  0.00000000E+00  0.00000000E+00
  0.00000000E+00  0.00000000E+00  0.00000000E+00  1.00000000E+00  1.00000000E+00
MxBond                                     I                3
NBond                                      I   N=           6
           3           1           1           3           1           1
IBond                                      I   N=          18
           2           3           4           1           0           0
           1           0           0           1           5           6
           4           0           0           4           0           0
RBond                                      R   N=          18
  1.00000000E+00  2.00000000E+00  1.41000000E+00  1.00000000E+00  0.00000000E+00
  0.00000000E+00  2.00000000E+00  0.00000000E+00  0.00000000E+00  1.41000000E+00
  1.00000000E+00  1.00000000E+00  1.00000000E+00  0.00000000E+00  0.00000000E+00
  1.00000000E+00  0.00000000E+00  0.00000000E+00
Virial Ratio                               R      2.003537976854386E+00
SCF Energy                                 R     -1.689279559386432E+02
MP2 Energy                                 R     -1.693944733587634E+02
Total Energy                               R     -1.693944733587634E+02
Post-SCF wavefunction norm                 R      1.511314769415841E+00
RMS Force                                  R      2.837893909122011E-08
RMS Density                                R      5.496650298108056E-10
External E-field                           R   N=          35
  0.00000000E+00  0.00000000E+00  0.00000000E+00  0.00000000E+00  0.00000000E+00
  0.00000000E+00  0.00000000E+00  0.00000000E+00  0.00000000E+00  0.00000000E+00
  0.00000000E+00  0.00000000E+00  0.00000000E+00  0.00000000E+00  0.00000000E+00
  0.00000000E+00  0.00000000E+00  0.00000000E+00  0.00000000E+00  0.00000000E+00
  0.00000000E+00  0.00000000E+00  0.00000000E+00  0.00000000E+00  0.00000000E+00
  0.00000000E+00  0.00000000E+00  0.00000000E+00  0.00000000E+00  0.00000000E+00
  0.00000000E+00  0.00000000E+00  0.00000000E+00  0.00000000E+00  0.00000000E+00
IOpCl                                      I                0
IROHF                                      I                0
Alpha Orbital Energies                     R   N=          51
 -2.05334978E+01 -1.55984225E+01 -1.13600378E+01 -1.37361902E+00 -1.21378305E+00
 -8.47609912E-01 -7.44854322E-01 -6.66721833E-01 -5.99842781E-01 -5.62077734E-01
 -4.29652384E-01 -4.13439099E-01  1.96597272E-01  2.16627953E-01  2.53689464E-01
  3.10354951E-01  4.25944891E-01  5.33974625E-01  7.52943817E-01  7.59416770E-01
  8.59001699E-01  9.21724765E-01  9.53753015E-01  9.66398634E-01  1.06556843E+00
  1.11707988E+00  1.15418661E+00  1.18230424E+00  1.30772916E+00  1.33687476E+00
  1.45322547E+00  1.51118269E+00  1.64219033E+00  1.72619359E+00  1.78316052E+00
  1.97616464E+00  2.07583977E+00  2.15169542E+00  2.17669595E+00  2.34100642E+00
  2.44835147E+00  2.57572574E+00  2.64041722E+00  2.81294861E+00  2.96068240E+00
  3.01372580E+00  3.26719794E+00  3.36556245E+00  4.15352944E+00  4.27129577E+00
  4.58539014E+00
Alpha MO coefficients                      R   N=        2601
  2.27076830E-07  5.13746261E-04  4.43515783E-05  2.00164873E-05 -7.41113856E-07
 -3.34465004E-04  4.34184710E-04  3.08181573E-04 -3.67564814E-06 -6.03543975E-04
 -2.35086616E-04 -2.92337407E-05 -3.71640874E-04  1.86373624E-06  2.55676850E-06
 -1.81895141E-05 -1.46304321E-04  9.94698543E-01  2.09744814E-02  1.36245954E-03
  7.92063698E-04 -3.53997804E-06  4.45240224E-03 -5.33327061E-05 -1.42715999E-05
  1.46359251E-06 -3.68981609E-03 -3.80676655E-03 -4.10592976E-03  1.51918938E-04
 -4.82607600E-08 -3.48850885E-07 -3.34772192E-06 -1.50627254E-05  1.73484445E-05
  2.65208592E-05 -1.01870976E-06 -1.05198076E-05 -1.11166702E-05 -6.38158053E-05
  4.29991335E-06 -5.21363023E-05  5.84298599E-05 -3.55655449E-05 -7.79267290E-05
 -3.16986344E-06  1.10803508E-07  3.77805592E-05 -4.06960633E-05 -3.04909642E-05
 -2.95534407E-05  2.24208642E-05  2.11419069E-04  1.89891881E-04 -9.10479461E-05
 -5.73796136E-07  1.17249872E-03  5.67774400E-04 -4.17130310E-04  3.72980154E-05
 -1.32846872E-04 -6.31519442E-05 -6.24326344E-05  1.66093356E-05  2.71405794E-06
 -5.03501204E-06 -4.92030063E-05  2.63416534E-05  1.26069080E-05  2.18541775E-05
 -9.88031105E-06 -1.75169759E-06 -1.47224351E-07 -2.05480586E-04 -1.57862341E-04
  1.23342210E-04 -1.23284362E-05 -1.32055658E-05  6.82261836E-05 -1.27656546E-05
  2.08524278E-05 -2.33374788E-06 -2.46244578E-06  9.94885636E-01  2.51554056E-02
 -4.31407541E-05  6.67556553E-05  3.21028132E-04 -1.69023821E-03  4.08576897E-04
 -1.55107149E-04 -1.97307116E-04 -3.60024835E-03 -3.60004761E-03 -3.51841645E-03
 -1.14343757E-05 -1.91604019E-06 -2.84902012E-06  2.32078977E-04  3.05596466E-04
  2.55188456E-04  2.92101108E-04  9.95740937E-01  2.60414915E-02  2.68415199E-04
 -4.73653560E-04 -3.56028128E-05 -5.97520053E-03 -1.53897091E-03 -2.18890502E-03
  3.46004578E-05 -9.31564095E-04 -1.60863233E-03 -2.56900155E-03  2.50638607E-04
 -1.82253910E-05  6.50904214E-06 -7.06560938E-05  2.66817858E-03 -3.05264803E-04
  4.49911163E-04  2.70914428E-04  1.44441965E-04  2.42525957E-06 -2.06722392E-03
 -1.26550502E-03 -5.51912707E-04 -8.46679970E-06  2.25758972E-06  6.57087108E-05
  2.56367174E-04 -1.31435560E-05 -2.12754481E-07 -1.00974593E-06 -3.00268390E-04
  1.75440251E-04  1.17164112E-04 -1.41526885E-04  2.89959890E-07  1.04711561E-03
  5.75808050E-04  7.57742310E-04 -9.64089228E-06 -6.16592177E-04 -2.61968038E-04
  2.96231503E-05  2.91996356E-04  2.53236124E-05  1.49830151E-05 -1.64727285E-04
 -1.76865012E-04  1.59183011E-04  2.83894406E-04 -1.23076245E-01  2.40727207E-01
 -1.09144421E-01 -9.86891184E-02  8.01005680E-06  6.65623694E-02  7.92365276E-03
  2.61033592E-02  4.11514391E-04  1.97713834E-02 -1.67792561E-03 -1.87994384E-02
  2.04439984E-02 -1.05527835E-04 -3.63956233E-05  3.20153455E-02 -1.25720201E-02
 -1.82521419E-01  4.02102734E-01  1.12688279E-01  6.38703458E-02 -3.10572525E-04
  3.67865576E-01  4.68928965E-02  2.17448379E-02 -5.79662769E-05  1.32573752E-02
  2.21777137E-03 -1.82843878E-03  9.86084307E-03 -3.97233533E-05 -3.99457413E-05
 -5.51288357E-02  1.15369427E-01 -4.21348923E-02  8.83015746E-03  4.36094790E-03
  1.04955572E-01 -2.02709644E-02 -2.47766701E-03  2.32263555E-03  1.05737201E-02
  3.12894682E-03 -2.74270054E-03 -2.06290107E-03 -5.17562105E-05 -8.38532262E-05
  2.29515812E-02  7.11601787E-05  2.63199705E-02 -9.74352829E-04 -3.95129796E-02
  8.31914096E-02  1.99450212E-01 -2.60669560E-03 -1.20365094E-03  1.89894016E-02
  3.70829204E-03  1.20193043E-02 -2.48168321E-04  9.65066839E-03 -6.71427230E-04
 -3.83223000E-03 -2.32061671E-02 -6.46211393E-05  1.11090247E-04  2.18481756E-02
  8.51322697E-04  8.00012388E-02 -1.78207276E-01 -1.57531995E-02 -2.83997003E-02
 -1.67800725E-04 -1.69485875E-01 -2.33769085E-03 -1.13674490E-02 -1.09564605E-04
 -1.48504069E-03 -3.58131122E-03  5.17660662E-04 -3.06286826E-03 -6.44004715E-06
  3.41794948E-05 -1.86518102E-01  3.88459001E-01 -2.24721456E-02  2.02396958E-02
  1.75246713E-02  4.06011540E-01 -6.14480659E-03  9.48224314E-03  1.03889790E-02
  1.40854348E-02  1.80317876E-02 -9.85566083E-03  1.68009834E-03  2.24108843E-03
  1.86205099E-04  1.15406447E-01  2.54742258E-03  1.07505812E-01  1.19647702E-03
 -1.35486744E-01  2.92935218E-01  1.21067582E-01  1.38504059E-01 -5.03018457E-03
  2.14861346E-01  3.82206143E-02  7.77006176E-02  1.98514149E-03  2.36972614E-03
  1.55990618E-02 -1.25720567E-02 -5.29644652E-03 -1.02310510E-03  4.74606473E-04
  1.75693953E-01  6.30714244E-02  6.46336444E-02 -1.48789177E-01  6.82657572E-02
  7.42291977E-02 -1.89425412E-03 -1.80051295E-01  4.04597501E-02  3.53562827E-02
 -2.00806793E-03  1.22578247E-03  5.01833733E-04 -9.89060329E-04  6.09089346E-03
 -2.99310453E-04 -2.42167617E-04  4.87163634E-02 -1.02982859E-01 -2.32818176E-01
  1.95194517E-01 -1.76388978E-02 -1.52608181E-01 -1.21772407E-01  9.11088024E-02
 -1.12738762E-02  4.23529303E-03 -1.73518849E-02  2.80369769E-03 -1.40319419E-02
 -4.01826063E-03  2.75357230E-03 -8.45533352E-02 -2.41573533E-02 -1.48985377E-01
 -4.24833847E-02  1.70933809E-02 -4.60991380E-02 -9.04304682E-02  2.37024706E-01
  7.93260036E-03  1.69761972E-02 -1.66763309E-02  4.04073028E-02  9.34969480E-04
  1.61463435E-03  1.82900373E-03  2.34474520E-03  1.40067856E-02  9.74902994E-04
 -6.19084223E-04  1.00187099E-01  7.43373368E-02 -2.79527946E-02  6.24323367E-02
 -1.38987639E-01  8.17965416E-02  4.55179683E-03  9.27153484E-02 -7.59860186E-02
  4.67124622E-02  2.60232046E-03 -1.30410491E-02  7.30507768E-03  8.95197403E-04
  6.92265161E-04  4.13908776E-04  3.04008255E-04 -3.02634457E-03  5.08756950E-03
  3.39386750E-01  2.46832490E-01  2.03519138E-02  3.36653475E-04  1.97646807E-01
  1.58784028E-01  1.22485026E-02  8.70833252E-03 -2.64083213E-03 -3.95172522E-04
  1.93732734E-02  6.73728101E-03  6.57058227E-03  2.36711337E-01  9.14882647E-02
 -1.10759520E-01 -3.04795923E-02  4.05614658E-02 -8.89739587E-02  2.69358538E-01
 -1.80597608E-01 -1.01709248E-02 -1.27901478E-01  1.88463916E-02 -9.65862029E-02
 -1.46526285E-03  1.48240429E-02 -1.79455063E-02  2.68852930E-03 -7.68258097E-03
 -9.55647000E-04  6.94958950E-04 -1.41907606E-01 -7.98664283E-02 -5.34100163E-02
  1.21544346E-01 -1.05333589E-01 -2.67901261E-01 -5.40745752E-03  1.99571786E-01
 -5.44148708E-02 -1.52762471E-01 -4.03024622E-03  7.42240950E-04 -1.26512773E-02
  2.67502367E-03 -1.72990200E-02 -5.96172308E-04 -3.57146602E-04 -8.14447096E-03
  1.69616740E-02 -1.35619933E-01  3.21822069E-01 -1.24421562E-02  3.83152547E-02
 -8.12726869E-02  2.24123673E-01 -9.14373351E-03  1.24379111E-02 -2.08032627E-02
 -1.24973254E-04  2.35906185E-03 -5.43975435E-04  5.99196097E-03  4.61421780E-02
  1.68929241E-02 -1.88418938E-01 -7.43749956E-02 -2.62119944E-02  7.62379687E-02
 -2.10298058E-01 -2.78151746E-01  1.64899700E-02 -1.80563051E-02 -3.59798574E-02
 -8.81713748E-02  7.01209864E-03  1.05506209E-02 -1.90203919E-02 -4.70455929E-03
  2.17051665E-02  4.10555574E-04 -1.00832557E-03 -1.37418600E-01 -1.13957521E-01
  6.16121677E-02 -1.36136587E-01  4.29899923E-01  1.40377383E-01  1.34051793E-02
 -2.86048643E-01  2.55257293E-01  7.98803348E-02  8.82059535E-03  2.90492925E-02
 -3.43996328E-03 -5.20458639E-03  1.57574367E-02  1.05970610E-03  6.83373177E-04
  3.61046136E-03 -9.23362734E-03  1.11176795E-01  1.60335444E-01  2.56654306E-02
 -4.73176287E-04  6.71927143E-02  1.07260433E-01  1.86784919E-02  1.46475118E-02
 -1.35926635E-02 -4.65227021E-05  1.37086481E-02  2.01979247E-03  4.13834370E-03
  1.19855481E-01  6.93433179E-02 -1.00665510E-01 -6.30846817E-02 -2.12899874E-03
  2.76573949E-03  2.88605935E-02  6.71185578E-03  3.17621720E-01  6.10281241E-03
  6.21305134E-03  2.30980777E-03  1.69351099E-01 -1.14138277E-03  1.99263946E-03
 -6.15870397E-04 -1.78194077E-03 -3.34980555E-03 -1.86487696E-02  7.60777778E-03
  6.27081033E-03 -2.77820153E-03  5.83627441E-03 -1.49370283E-02 -2.80438554E-02
  3.48540758E-01  1.49654789E-02 -8.32781316E-03 -1.81476802E-02  2.37185293E-01
 -7.03179120E-04 -1.00549392E-03  2.81019242E-04 -1.58111900E-03  2.63639425E-02
  1.56211437E-02  8.98190162E-03 -2.22610078E-02 -2.63637240E-02 -6.87661022E-03
  3.37190485E-01 -3.05236741E-02 -2.15731383E-02 -3.93014995E-03  2.53975858E-01
 -2.72229117E-03 -1.40152319E-03  3.87994904E-03 -7.43421762E-04 -1.19072493E-02
  5.47873826E-03  1.21397534E-04 -1.50304243E-03  1.05030433E-02  5.93594755E-03
  1.05383766E-02 -9.34955097E-03  2.47124366E-02 -1.14351650E-01  1.86842032E-02
 -1.10409587E-01 -9.44433474E-02  9.35294504E-03  1.82288466E-02  4.57701318E-02
 -4.96568041E-02  2.77024538E-04 -2.56674972E-02 -8.27471256E-03 -1.25933289E-03
 -1.62469313E-01 -2.13777145E-01 -5.22246743E-04  9.30994670E-03 -2.75097857E-01
  5.01635914E-01  7.40113165E-02 -2.80607576E-02 -2.15918969E-01  3.79688176E-01
  5.76713842E-02 -1.48628114E-02  2.02049005E-02  2.53844156E-03  1.32243012E-02
  4.28506494E-03  2.69180039E-03 -3.56523022E-02  6.90952098E-02 -1.57040850E-01
  6.64022436E-02 -6.20034283E-02  2.70289071E-01 -1.34974523E-01  7.16170453E-02
 -5.34553335E-02 -7.95340940E-04 -9.29592913E-03 -2.40296802E-03 -2.66242108E-03
 -1.75942192E-03  2.75070850E-04 -4.33136464E-02 -5.19241704E-02 -3.39805679E-02
 -6.73711128E-02 -1.08408192E-03  5.54297812E-03  1.68198870E-02 -2.13033127E-02
 -6.97902950E-02 -2.38774774E-02 -1.48822203E-02  9.47138033E-03 -7.02571320E-02
  7.81312078E-03 -7.49949060E-03 -1.16476571E-03 -5.47719627E-03  4.68816559E-02
  6.04658940E-03 -2.46566327E-02 -3.82333600E-02 -2.52039022E-04  9.09141474E-04
 -5.12299110E-02  7.76225522E-02 -3.96620438E-01  2.17374775E-03 -3.78903714E-02
  5.98383881E-02 -3.16934977E-01 -2.66564560E-03  2.67484065E-03  2.34503356E-04
  1.79026703E-03 -2.22773957E-02 -1.40187792E-02  5.57915421E-03 -1.75770210E-02
 -4.92042159E-02  8.66632706E-03  4.53422919E-01  3.48428710E-03 -5.07245816E-02
  5.23494998E-03  4.28076428E-01 -2.17826349E-03 -3.53048012E-03  4.25284734E-03
 -2.68558194E-04 -1.93704048E-03  3.61694251E-03  8.28923319E-03  6.04354772E-03
  7.46508363E-03 -7.72934713E-03 -1.51226519E-03 -5.81248058E-03 -1.31798534E-02
  2.12404078E-02  4.48680587E-01  9.91563244E-02  1.52017214E-02  2.97299399E-02
  7.52626287E-01  2.53817434E-04 -3.26434359E-04 -5.66177748E-04 -7.69676441E-05
  1.49358043E-02  2.38379049E-02  3.76635574E-03 -6.28877235E-02 -1.00620292E-03
  5.63873510E-03  1.00461096E-02 -1.82340996E-02 -3.25219869E-01 -4.13556219E-03
  8.73578000E-03 -2.16551915E-02 -4.76773358E-01  1.37485079E-03  6.38206395E-04
  1.22957086E-03  6.41748423E-04  3.27755512E-04  2.97144045E-03 -3.18887828E-02
  4.11203712E-02  5.77227722E-02 -1.07685162E-02 -2.00580352E-01  4.20810089E-01
  1.53896650E-01 -5.09264726E-02 -3.54116921E-01 -8.03998710E-03 -6.28575038E-03
 -9.07859628E-03 -1.87440839E-05 -2.59367050E-02  1.53573138E-02 -3.24109247E-02
 -3.40680153E-01 -2.77935962E-02 -2.75411893E-01 -2.19865181E-03  5.20148081E-03
 -5.99836632E-02  1.01841074E-01 -1.07977109E-01  2.01890179E-01 -9.90840394E-02
  1.57190598E-01 -2.27436113E-01  3.71657397E-03  4.26309697E-03 -2.78752208E-03
 -1.21062960E-03 -2.29059077E-03 -7.36848965E-03  3.43914582E-02 -2.53578674E-01
 -4.05830261E-03  2.66084896E-02  5.28459637E-02 -7.43627614E-02  7.98975353E-02
 -3.76459862E-02  6.21065916E-02 -1.05555443E-01  1.27294724E-01  7.02069384E-03
  3.82391803E-03  5.43464631E-03  2.42188854E-03  6.07253551E-04 -8.14498758E-04
 -1.06586870E-01  1.18212136E-01  1.70947168E-01 -6.69303153E-03  9.27673071E-02
  1.62683711E+00  5.28174092E-01 -2.84405487E-02  2.33077089E-01 -2.84411137E-02
 -2.34045720E-02 -3.13240451E-02 -3.22952094E-04  9.18977563E-03 -4.01779034E-03
 -4.66063661E-02 -1.46273897E+00 -4.19489801E-02 -8.62367955E-01  6.71359271E-02
 -7.65280191E-02 -4.30368474E-02 -2.03461870E-01 -9.56066959E-03 -1.16340565E+00
 -1.46888097E-01 -5.26713772E-01 -9.55055424E-03 -6.24514792E-03  9.85747959E-03
  2.58551330E-03 -1.46728630E-02 -4.40565418E-05  5.87328300E-04  4.18116854E-02
  1.37999138E+00 -1.35040968E-03  6.80965925E-03 -1.19530597E-02  2.31667866E-02
  1.04399958E-02 -6.06902673E-03 -2.66469800E-02  1.00582932E-01  1.10782911E-02
  7.29039703E-03  1.01238739E-03 -2.23844399E-03  9.13694974E-04 -5.23490005E-04
  2.89553698E-04 -4.36458069E-02  5.58407315E-02 -9.55419251E-02 -2.00307973E-01
  1.03782839E-02  6.68708973E-01 -3.53810052E-01 -6.06041259E-01  2.05547102E-02
 -1.24288400E-03 -1.38272824E-02 -1.10793047E-02  1.12160315E-02 -3.62408384E-04
 -2.13650297E-03  2.40786587E-02  6.84820449E-01 -5.47944649E-02 -1.34623317E+00
  9.03581120E-02 -1.06697945E-01 -2.51892976E-02 -1.86892046E-01  1.28507261E-02
 -1.56135274E+00 -2.53674672E-01 -9.17611934E-01  1.83963723E-02  2.01884463E-02
 -5.39999103E-03 -3.56761878E-03  9.24209116E-03  2.31848894E-04 -1.12610447E-03
 -2.28080502E-03  1.74419620E+00 -8.27865075E-03  4.67912271E-02  6.27953397E-02
  9.33105512E-02 -1.15338814E-02 -9.18657000E-02  8.80767012E-03  1.82683034E-01
 -1.28011718E-02  5.84659228E-03  1.32770459E-02  3.46423254E-03 -2.75885763E-04
  7.28273244E-04 -2.79819800E-04 -1.94425461E-02  3.19672624E-02  2.40289439E-02
  2.30653599E-01  5.36237641E-03  2.79817063E-01  1.74287112E-01  1.06810256E+00
  1.63048833E-02 -5.49951393E-03  3.24153690E-03 -2.94100918E-03  9.87011574E-03
 -7.47852476E-04  3.80916729E-03 -2.51521524E-02 -1.13260869E+00  3.03136221E-02
  1.16744205E+00  3.43129043E-02  4.64296953E-02  8.52871006E-02  6.08500753E-02
 -9.17563731E-04 -1.42449030E+00  2.25106695E+00  1.18077241E+00 -1.88120414E-02
 -5.21311703E-03 -2.77589626E-03 -6.94709386E-03  4.25052934E-03 -2.05953440E-05
 -1.36273766E-04  4.25116692E-02 -3.66807717E-01 -1.15061149E-01  2.89197390E-02
  9.63940564E-02  9.71195944E-02  3.01364239E-03  2.52828428E+00  8.33380650E-01
  5.85226502E-01  1.75996763E-03 -2.08055334E-02 -6.03002152E-02 -8.51457847E-02
  4.56415494E-02 -2.77762575E-04 -1.13635746E-05  4.35065758E-03  3.55572818E-02
 -1.37292000E-02 -4.89520680E-02  3.77163343E-03 -5.78093809E-01 -1.38428182E-02
 -6.01564127E-01 -5.39365049E-03 -1.26784779E-02  4.14428938E-02  6.62408194E-04
 -1.84167112E-02 -3.03955724E-03 -3.78690464E-03 -9.54834645E-02  1.62151098E-01
  1.07146905E-01 -3.10389211E-01 -8.77746550E-02 -4.01639133E-02  2.28158122E-01
 -2.98055890E-01  6.31175270E-03  2.74439086E+00  1.75365912E+00 -1.71949014E+00
 -9.88275175E-02 -9.97420270E-03 -1.69862011E-02  2.39063604E-02  1.59168945E-02
  3.78794327E-03 -4.16989625E-03 -8.21323455E-02  7.68867401E-01  2.77905866E-02
 -2.81760473E-02 -1.42877849E-01  1.06953650E-01  6.96740712E-03 -4.62517955E-01
 -5.80263634E-01  3.05532667E-01  2.60018527E-02 -5.19745459E-03 -5.70549970E-03
  3.13874224E-02 -3.53878334E-03  1.91633601E-03 -6.02610370E-04  8.23008516E-02
 -1.11811622E-01  2.47229364E-01 -1.10800927E-01  2.44833617E-02 -1.99094545E+00
  2.00133772E+00 -5.55232014E-01  2.50030358E-02  1.41778838E-02 -2.89323991E-02
  2.69620067E-02 -9.88323391E-03  1.38440889E-03 -1.32954985E-03 -6.03121054E-02
 -7.52210405E-01 -8.40969403E-02 -3.68197722E-01 -6.26073035E-03 -1.74321478E-01
 -1.44315281E-01  7.17644999E-02 -1.00175875E+00  3.30480724E-01  2.35923092E-01
 -1.90018735E-01  1.17073274E+00 -2.03325533E-02 -2.33212120E-02 -7.26323314E-04
  5.30019240E-03 -1.65350295E-02  3.04339163E-02 -3.59886370E-02  4.05312825E-02
  3.67925568E-03 -2.37079544E-02 -9.55377095E-03  1.61611675E-02 -4.36116806E-02
 -2.30305538E-02 -6.42157516E-02  1.73404672E-02 -1.27624084E-01 -1.20735770E-02
  3.69650532E-04 -6.80318181E-04  5.47464015E-03 -6.60940909E-02 -3.65021260E-02
 -6.21308780E-03  2.81409275E-03  5.83008330E-02 -2.49299618E-02 -1.80874956E-01
 -1.33325791E-01 -2.73684521E-02  4.77558849E-02 -4.55921141E-02 -2.43606520E-02
  3.36907027E-03  1.32471302E-02  1.30965400E-02  5.51632387E-02 -1.97996588E-02
 -1.61769160E-02 -4.80766510E-02  6.39237463E-03 -3.73154637E-02 -1.20225847E-02
 -7.55925335E-01 -6.59852058E-01  4.06914804E-01  2.19664002E-01  1.24128143E+00
  8.55900206E-01 -8.70062398E-01 -2.67342063E-01 -5.03115523E-02 -8.60708871E-02
 -1.89613459E-02  1.54182237E-03  5.06037830E-03 -8.82146153E-03 -1.31415247E-01
  1.76736646E-01  1.48218960E-02 -9.55643576E-02 -2.16350370E-02  6.45517877E-02
  1.29856307E-02 -1.40747081E-01 -2.59510038E-01  4.91417726E-02  3.06467736E-02
 -6.11075886E-02  1.09103967E-02 -6.42355196E-03  2.31294397E-02  1.43852808E-02
  7.29831706E-03 -3.16620436E-02 -3.78715797E-02  9.60874941E-02 -1.03045693E-01
  5.48954420E-02 -4.92925484E-01 -1.78513023E-01  2.84810842E-01  4.23759304E-03
 -1.63996480E-01  5.08568958E-03  5.15520056E-02  8.88502895E-02 -1.15685866E-02
  2.66480386E-03 -4.17216544E-02 -5.34746921E-02  5.21505731E-02 -9.74605267E-02
 -1.67110058E-02 -5.52650223E-01  1.14384668E-01 -2.84463135E-01 -6.98052378E-03
  1.45396037E+00 -4.11741700E-01  9.65496761E-01 -1.45790105E-02  1.98405622E-02