13437347                                                                
Freq      RMP2-FC                                                     6-31G(d)            
Number of atoms                            I               17
Info1-9                                    I   N=           9
          29          27        1002           0           0         100
           6           2           1
Charge                                     I                0
Multiplicity                               I                1
Number of electrons                        I               74
Number of alpha electrons                  I               37
Number of beta electrons                   I               37
Number of basis functions                  I              164
Number of independent functions            I              164
Number of point charges in /Mol/           I                0
Number of translation vectors              I                0
Atomic numbers                             I   N=          17
           9           8           8           6           6           6
           6           6           6           6           1           1
           1           1           1           1           1
Nuclear charges                            R   N=          17
  9.00000000E+00  8.00000000E+00  8.00000000E+00  6.00000000E+00  6.00000000E+00
  6.00000000E+00  6.00000000E+00  6.00000000E+00  6.00000000E+00  6.00000000E+00
  1.00000000E+00  1.00000000E+00  1.00000000E+00  1.00000000E+00  1.00000000E+00
  1.00000000E+00  1.00000000E+00
Current cartesian coordinates              R   N=          51
  1.66328850E+00 -4.07618390E+00 -5.18160068E-01  3.11101479E+00  1.03593045E+00
 -8.22066799E-01 -4.47417457E-01  4.65353098E+00 -2.74324252E-01  6.56978195E-01
  2.76600935E-01 -3.51057084E-01 -1.17073102E+00  2.18368496E+00 -1.21913013E-01
 -1.14398935E-01 -2.24029660E+00 -2.41469728E-01 -3.70290917E+00  1.56319466E+00
  2.76197806E-01 -2.61751208E+00 -2.90303266E+00  1.77788165E-01 -4.40565338E+00
 -9.73508030E-01  4.18759847E-01  4.85740171E+00  3.16879676E-01  1.14409537E+00
 -5.07927381E+00  3.07479184E+00  4.51251654E-01 -3.13262790E+00 -4.88634093E+00
  2.61686231E-01 -6.37520108E+00 -1.46065737E+00  7.33603482E-01  5.07375847E+00
 -1.73168526E+00  1.20521436E+00  4.20339783E+00  1.01655867E+00  2.97743204E+00
  6.64923165E+00  1.20237525E+00  6.47169036E-01  1.36328776E+00  4.61378382E+00
 -6.56195967E-01
Force Field                                I                0
Int Atom Types                             I   N=          17
           0           0           0           0           0           0
           0           0           0           0           0           0
           0           0           0           0           0
MM charges                                 R   N=          17
  0.00000000E+00  0.00000000E+00  0.00000000E+00  0.00000000E+00  0.00000000E+00
  0.00000000E+00  0.00000000E+00  0.00000000E+00  0.00000000E+00  0.00000000E+00
  0.00000000E+00  0.00000000E+00  0.00000000E+00  0.00000000E+00  0.00000000E+00
  0.00000000E+00  0.00000000E+00
Integer atomic weights                     I   N=          17
          19          16          16          12          12          12
          12          12          12          12           1           1
           1           1           1           1           1
Real atomic weights                        R   N=          17
  1.89984032E+01  1.59949146E+01  1.59949146E+01  1.20000000E+01  1.20000000E+01
  1.20000000E+01  1.20000000E+01  1.20000000E+01  1.20000000E+01  1.20000000E+01
  1.00782504E+00  1.00782504E+00  1.00782504E+00  1.00782504E+00  1.00782504E+00
  1.00782504E+00  1.00782504E+00
Atom fragment info                         I   N=          17
           0           0           0           0           0           0
           0           0           0           0           0           0
           0           0           0           0           0
Atom residue num                           I   N=          17
           0           0           0           0           0           0
           0           0           0           0           0           0
           0           0           0           0           0
Nuclear spins                              I   N=          17
           1           0           0           0           0           0
           0           0           0           0           1           1
           1           1           1           1           1
Nuclear ZEff                               R   N=          17
 -6.75000000E+00 -5.60000000E+00 -5.60000000E+00 -3.60000000E+00 -3.60000000E+00
 -3.60000000E+00 -3.60000000E+00 -3.60000000E+00 -3.60000000E+00 -3.60000000E+00
 -1.00000000E+00 -1.00000000E+00 -1.00000000E+00 -1.00000000E+00 -1.00000000E+00
 -1.00000000E+00 -1.00000000E+00
Nuclear QMom                               R   N=          17
  0.00000000E+00  0.00000000E+00  0.00000000E+00  0.00000000E+00  0.00000000E+00
  0.00000000E+00  0.00000000E+00  0.00000000E+00  0.00000000E+00  0.00000000E+00
  0.00000000E+00  0.00000000E+00  0.00000000E+00  0.00000000E+00  0.00000000E+00
  0.00000000E+00  0.00000000E+00
Nuclear GFac                               R   N=          17
  2.62886700E+00  0.00000000E+00  0.00000000E+00  0.00000000E+00  0.00000000E+00
  0.00000000E+00  0.00000000E+00  0.00000000E+00  0.00000000E+00  0.00000000E+00
  2.79284600E+00  2.79284600E+00  2.79284600E+00  2.79284600E+00  2.79284600E+00
  2.79284600E+00  2.79284600E+00
MicOpt                                     I   N=          17
          -1          -1          -1          -1          -1          -1
          -1          -1          -1          -1          -1          -1
          -1          -1          -1          -1          -1
Number of contracted shells                I               54
Number of primitive shells                 I              138
Pure/Cartesian d shells                    I                1
Pure/Cartesian f shells                    I                0
Highest angular momentum                   I                2
Largest degree of contraction              I                6
Shell types                                I   N=          54
           0          -1          -1           2           0          -1
          -1           2           0          -1          -1           2
           0          -1          -1           2           0          -1
          -1           2           0          -1          -1           2
           0          -1          -1           2           0          -1
          -1           2           0          -1          -1           2
           0          -1          -1           2           0           0
           0           0           0           0           0           0
           0           0           0           0           0           0
Number of primitives per shell             I   N=          54
           6           3           1           1           6           3
           1           1           6           3           1           1
           6           3           1           1           6           3
           1           1           6           3           1           1
           6           3           1           1           6           3
           1           1           6           3           1           1
           6           3           1           1           3           1
           3           1           3           1           3           1
           3           1           3           1           3           1
Shell to atom map                          I   N=          54
           1           1           1           1           2           2
           2           2           3           3           3           3
           4           4           4           4           5           5
           5           5           6           6           6           6
           7           7           7           7           8           8
           8           8           9           9           9           9
          10          10          10          10          11          11
          12          12          13          13          14          14
          15          15          16          16          17          17
Primitive exponents                        R   N=         138
  7.00171309E+03  1.05136609E+03  2.39285690E+02  6.73974453E+01  2.15199573E+01
  7.40310130E+00  2.08479528E+01  4.80830834E+00  1.34406986E+00  3.58151393E-01
  8.00000000E-01  5.48467166E+03  8.25234946E+02  1.88046958E+02  5.29645000E+01
  1.68975704E+01  5.79963534E+00  1.55396162E+01  3.59993359E+00  1.01376175E+00
  2.70005823E-01  8.00000000E-01  5.48467166E+03  8.25234946E+02  1.88046958E+02
  5.29645000E+01  1.68975704E+01  5.79963534E+00  1.55396162E+01  3.59993359E+00
  1.01376175E+00  2.70005823E-01  8.00000000E-01  3.04752488E+03  4.57369518E+02
  1.03948685E+02  2.92101553E+01  9.28666296E+00  3.16392696E+00  7.86827235E+00
  1.88128854E+00  5.44249258E-01  1.68714478E-01  8.00000000E-01  3.04752488E+03
  4.57369518E+02  1.03948685E+02  2.92101553E+01  9.28666296E+00  3.16392696E+00
  7.86827235E+00  1.88128854E+00  5.44249258E-01  1.68714478E-01  8.00000000E-01
  3.04752488E+03  4.57369518E+02  1.03948685E+02  2.92101553E+01  9.28666296E+00
  3.16392696E+00  7.86827235E+00  1.88128854E+00  5.44249258E-01  1.68714478E-01
  8.00000000E-01  3.04752488E+03  4.57369518E+02  1.03948685E+02  2.92101553E+01
  9.28666296E+00  3.16392696E+00  7.86827235E+00  1.88128854E+00  5.44249258E-01
  1.68714478E-01  8.00000000E-01  3.04752488E+03  4.57369518E+02  1.03948685E+02
  2.92101553E+01  9.28666296E+00  3.16392696E+00  7.86827235E+00  1.88128854E+00
  5.44249258E-01  1.68714478E-01  8.00000000E-01  3.04752488E+03  4.57369518E+02
  1.03948685E+02  2.92101553E+01  9.28666296E+00  3.16392696E+00  7.86827235E+00
  1.88128854E+00  5.44249258E-01  1.68714478E-01  8.00000000E-01  3.04752488E+03
  4.57369518E+02  1.03948685E+02  2.92101553E+01  9.28666296E+00  3.16392696E+00
  7.86827235E+00  1.88128854E+00  5.44249258E-01  1.68714478E-01  8.00000000E-01
  1.87311370E+01  2.82539436E+00  6.40121692E-01  1.61277759E-01  1.87311370E+01
  2.82539436E+00  6.40121692E-01  1.61277759E-01  1.87311370E+01  2.82539436E+00
  6.40121692E-01  1.61277759E-01  1.87311370E+01  2.82539436E+00  6.40121692E-01
  1.61277759E-01  1.87311370E+01  2.82539436E+00  6.40121692E-01  1.61277759E-01
  1.87311370E+01  2.82539436E+00  6.40121692E-01  1.61277759E-01  1.87311370E+01
  2.82539436E+00  6.40121692E-01  1.61277759E-01
Contraction coefficients                   R   N=         138
  1.81961690E-03  1.39160796E-02  6.84053245E-02  2.33185760E-01  4.71267439E-01
  3.56618546E-01 -1.08506975E-01 -1.46451658E-01  1.12868858E+00  1.00000000E+00
  1.00000000E+00  1.83107443E-03  1.39501722E-02  6.84450781E-02  2.32714336E-01
  4.70192898E-01  3.58520853E-01 -1.10777550E-01 -1.48026263E-01  1.13076702E+00
  1.00000000E+00  1.00000000E+00  1.83107443E-03  1.39501722E-02  6.84450781E-02
  2.32714336E-01  4.70192898E-01  3.58520853E-01 -1.10777550E-01 -1.48026263E-01
  1.13076702E+00  1.00000000E+00  1.00000000E+00  1.83473713E-03  1.40373228E-02
  6.88426223E-02  2.32184443E-01  4.67941348E-01  3.62311985E-01 -1.19332420E-01
 -1.60854152E-01  1.14345644E+00  1.00000000E+00  1.00000000E+00  1.83473713E-03
  1.40373228E-02  6.88426223E-02  2.32184443E-01  4.67941348E-01  3.62311985E-01
 -1.19332420E-01 -1.60854152E-01  1.14345644E+00  1.00000000E+00  1.00000000E+00
  1.83473713E-03  1.40373228E-02  6.88426223E-02  2.32184443E-01  4.67941348E-01
  3.62311985E-01 -1.19332420E-01 -1.60854152E-01  1.14345644E+00  1.00000000E+00
  1.00000000E+00  1.83473713E-03  1.40373228E-02  6.88426223E-02  2.32184443E-01
  4.67941348E-01  3.62311985E-01 -1.19332420E-01 -1.60854152E-01  1.14345644E+00
  1.00000000E+00  1.00000000E+00  1.83473713E-03  1.40373228E-02  6.88426223E-02
  2.32184443E-01  4.67941348E-01  3.62311985E-01 -1.19332420E-01 -1.60854152E-01
  1.14345644E+00  1.00000000E+00  1.00000000E+00  1.83473713E-03  1.40373228E-02
  6.88426223E-02  2.32184443E-01  4.67941348E-01  3.62311985E-01 -1.19332420E-01
 -1.60854152E-01  1.14345644E+00  1.00000000E+00  1.00000000E+00  1.83473713E-03
  1.40373228E-02  6.88426223E-02  2.32184443E-01  4.67941348E-01  3.62311985E-01
 -1.19332420E-01 -1.60854152E-01  1.14345644E+00  1.00000000E+00  1.00000000E+00
  3.34946043E-02  2.34726953E-01  8.13757326E-01  1.00000000E+00  3.34946043E-02
  2.34726953E-01  8.13757326E-01  1.00000000E+00  3.34946043E-02  2.34726953E-01
  8.13757326E-01  1.00000000E+00  3.34946043E-02  2.34726953E-01  8.13757326E-01
  1.00000000E+00  3.34946043E-02  2.34726953E-01  8.13757326E-01  1.00000000E+00
  3.34946043E-02  2.34726953E-01  8.13757326E-01  1.00000000E+00  3.34946043E-02
  2.34726953E-01  8.13757326E-01  1.00000000E+00
P(S=P) Contraction coefficients            R   N=         138
  0.00000000E+00  0.00000000E+00  0.00000000E+00  0.00000000E+00  0.00000000E+00
  0.00000000E+00  7.16287242E-02  3.45912103E-01  7.22469956E-01  1.00000000E+00
  0.00000000E+00  0.00000000E+00  0.00000000E+00  0.00000000E+00  0.00000000E+00
  0.00000000E+00  0.00000000E+00  7.08742682E-02  3.39752839E-01  7.27158577E-01
  1.00000000E+00  0.00000000E+00  0.00000000E+00  0.00000000E+00  0.00000000E+00
  0.00000000E+00  0.00000000E+00  0.00000000E+00  7.08742682E-02  3.39752839E-01
  7.27158577E-01  1.00000000E+00  0.00000000E+00  0.00000000E+00  0.00000000E+00
  0.00000000E+00  0.00000000E+00  0.00000000E+00  0.00000000E+00  6.89990666E-02
  3.16423961E-01  7.44308291E-01  1.00000000E+00  0.00000000E+00  0.00000000E+00
  0.00000000E+00  0.00000000E+00  0.00000000E+00  0.00000000E+00  0.00000000E+00
  6.89990666E-02  3.16423961E-01  7.44308291E-01  1.00000000E+00  0.00000000E+00
  0.00000000E+00  0.00000000E+00  0.00000000E+00  0.00000000E+00  0.00000000E+00
  0.00000000E+00  6.89990666E-02  3.16423961E-01  7.44308291E-01  1.00000000E+00
  0.00000000E+00  0.00000000E+00  0.00000000E+00  0.00000000E+00  0.00000000E+00
  0.00000000E+00  0.00000000E+00  6.89990666E-02  3.16423961E-01  7.44308291E-01
  1.00000000E+00  0.00000000E+00  0.00000000E+00  0.00000000E+00  0.00000000E+00
  0.00000000E+00  0.00000000E+00  0.00000000E+00  6.89990666E-02  3.16423961E-01
  7.44308291E-01  1.00000000E+00  0.00000000E+00  0.00000000E+00  0.00000000E+00
  0.00000000E+00  0.00000000E+00  0.00000000E+00  0.00000000E+00  6.89990666E-02
  3.16423961E-01  7.44308291E-01  1.00000000E+00  0.00000000E+00  0.00000000E+00
  0.00000000E+00  0.00000000E+00  0.00000000E+00  0.00000000E+00  0.00000000E+00
  6.89990666E-02  3.16423961E-01  7.44308291E-01  1.00000000E+00  0.00000000E+00
  0.00000000E+00  0.00000000E+00  0.00000000E+00  0.00000000E+00  0.00000000E+00
  0.00000000E+00  0.00000000E+00  0.00000000E+00  0.00000000E+00  0.00000000E+00
  0.00000000E+00  0.00000000E+00  0.00000000E+00  0.00000000E+00  0.00000000E+00
  0.00000000E+00  0.00000000E+00  0.00000000E+00  0.00000000E+00  0.00000000E+00
  0.00000000E+00  0.00000000E+00  0.00000000E+00  0.00000000E+00  0.00000000E+00
  0.00000000E+00  0.00000000E+00  0.00000000E+00
Coordinates of each shell                  R   N=         162
  1.66328850E+00 -4.07618390E+00 -5.18160068E-01  1.66328850E+00 -4.07618390E+00
 -5.18160068E-01  1.66328850E+00 -4.07618390E+00 -5.18160068E-01  1.66328850E+00
 -4.07618390E+00 -5.18160068E-01  3.11101479E+00  1.03593045E+00 -8.22066799E-01
  3.11101479E+00  1.03593045E+00 -8.22066799E-01  3.11101479E+00  1.03593045E+00
 -8.22066799E-01  3.11101479E+00  1.03593045E+00 -8.22066799E-01 -4.47417457E-01
  4.65353098E+00 -2.74324252E-01 -4.47417457E-01  4.65353098E+00 -2.74324252E-01
 -4.47417457E-01  4.65353098E+00 -2.74324252E-01 -4.47417457E-01  4.65353098E+00
 -2.74324252E-01  6.56978195E-01  2.76600935E-01 -3.51057084E-01  6.56978195E-01
  2.76600935E-01 -3.51057084E-01  6.56978195E-01  2.76600935E-01 -3.51057084E-01
  6.56978195E-01  2.76600935E-01 -3.51057084E-01 -1.17073102E+00  2.18368496E+00
 -1.21913013E-01 -1.17073102E+00  2.18368496E+00 -1.21913013E-01 -1.17073102E+00
  2.18368496E+00 -1.21913013E-01 -1.17073102E+00  2.18368496E+00 -1.21913013E-01
 -1.14398935E-01 -2.24029660E+00 -2.41469728E-01 -1.14398935E-01 -2.24029660E+00
 -2.41469728E-01 -1.14398935E-01 -2.24029660E+00 -2.41469728E-01 -1.14398935E-01
 -2.24029660E+00 -2.41469728E-01 -3.70290917E+00  1.56319466E+00  2.76197806E-01
 -3.70290917E+00  1.56319466E+00  2.76197806E-01 -3.70290917E+00  1.56319466E+00
  2.76197806E-01 -3.70290917E+00  1.56319466E+00  2.76197806E-01 -2.61751208E+00
 -2.90303266E+00  1.77788165E-01 -2.61751208E+00 -2.90303266E+00  1.77788165E-01
 -2.61751208E+00 -2.90303266E+00  1.77788165E-01 -2.61751208E+00 -2.90303266E+00
  1.77788165E-01 -4.40565338E+00 -9.73508030E-01  4.18759847E-01 -4.40565338E+00
 -9.73508030E-01  4.18759847E-01 -4.40565338E+00 -9.73508030E-01  4.18759847E-01
 -4.40565338E+00 -9.73508030E-01  4.18759847E-01  4.85740171E+00  3.16879676E-01
  1.14409537E+00  4.85740171E+00  3.16879676E-01  1.14409537E+00  4.85740171E+00
  3.16879676E-01  1.14409537E+00  4.85740171E+00  3.16879676E-01  1.14409537E+00
 -5.07927381E+00  3.07479184E+00  4.51251654E-01 -5.07927381E+00  3.07479184E+00
  4.51251654E-01 -3.13262790E+00 -4.88634093E+00  2.61686231E-01 -3.13262790E+00
 -4.88634093E+00  2.61686231E-01 -6.37520108E+00 -1.46065737E+00  7.33603482E-01
 -6.37520108E+00 -1.46065737E+00  7.33603482E-01  5.07375847E+00 -1.73168526E+00
  1.20521436E+00  5.07375847E+00 -1.73168526E+00  1.20521436E+00  4.20339783E+00
  1.01655867E+00  2.97743204E+00  4.20339783E+00  1.01655867E+00  2.97743204E+00
  6.64923165E+00  1.20237525E+00  6.47169036E-01  6.64923165E+00  1.20237525E+00
  6.47169036E-01  1.36328776E+00  4.61378382E+00 -6.56195967E-01  1.36328776E+00
  4.61378382E+00 -6.56195967E-01
Constraint Structure                       R   N=          51
  1.66328850E+00 -4.07618390E+00 -5.18160068E-01  3.11101479E+00  1.03593045E+00
 -8.22066799E-01 -4.47417457E-01  4.65353098E+00 -2.74324252E-01  6.56978195E-01
  2.76600935E-01 -3.51057084E-01 -1.17073102E+00  2.18368496E+00 -1.21913013E-01
 -1.14398935E-01 -2.24029660E+00 -2.41469728E-01 -3.70290917E+00  1.56319466E+00
  2.76197806E-01 -2.61751208E+00 -2.90303266E+00  1.77788165E-01 -4.40565338E+00
 -9.73508030E-01  4.18759847E-01  4.85740171E+00  3.16879676E-01  1.14409537E+00
 -5.07927381E+00  3.07479184E+00  4.51251654E-01 -3.13262790E+00 -4.88634093E+00
  2.61686231E-01 -6.37520108E+00 -1.46065737E+00  7.33603482E-01  5.07375847E+00
 -1.73168526E+00  1.20521436E+00  4.20339783E+00  1.01655867E+00  2.97743204E+00
  6.64923165E+00  1.20237525E+00  6.47169036E-01  1.36328776E+00  4.61378382E+00
 -6.56195967E-01
Num ILSW                                   I              100
ILSW                                       I   N=         100
           0           1           0           0           2           0
           0           0           0           0           0          -1
           0           0           0           0           0           0
           0           0           0           0           1           0
           1           0           0           0           0           0
           0           0      100000           0          -1           0
           0           0           0           0           0           0
           0           0           0           1           1           0
           0           0           1           0           0           0
           0           0           4          40           0           0
           0           0           0           0           0           0
           0           0           0           0           0           0
           0           0           0           0           0           0
           0           0           0           0           0           0
           0           0           0           0           0           0
           0           0           0           0           0           0
           0           0           0           0
Num RLSW                                   I               40
RLSW                                       R   N=          40
  1.00000000E+00  1.00000000E+00  1.00000000E+00  1.00000000E+00  1.00000000E+00
  0.00000000E+00  0.00000000E+00  1.00000000E+00  0.00000000E+00  0.00000000E+00
  0.00000000E+00  0.00000000E+00  1.00000000E+00  0.00000000E+00  0.00000000E+00
  0.00000000E+00  0.00000000E+00  1.00000000E+00  0.00000000E+00  0.00000000E+00
  0.00000000E+00  0.00000000E+00  1.00000000E+00  0.00000000E+00  0.00000000E+00
  0.00000000E+00  0.00000000E+00  1.00000000E+00  0.00000000E+00  0.00000000E+00
  0.00000000E+00  0.00000000E+00  0.00000000E+00  0.00000000E+00  0.00000000E+00
  0.00000000E+00  0.00000000E+00  0.00000000E+00  1.00000000E+00  1.00000000E+00
MxBond                                     I                4
NBond                                      I   N=          17
           1           2           2           3           3           3
           3           3           3           4           1           1
           1           1           1           1           1
IBond                                      I   N=          68
           6           0           0           0           4          10
           0           0           5          17           0           0
           2           5           6           0           3           4
           7           0           1           4           8           0
           5           9          11           0           6           9
          12           0           7           8          13           0
           2          14          15          16           7           0
           0           0           8           0           0           0
           9           0           0           0          10           0
           0           0          10           0           0           0
          10           0           0           0           3           0
           0           0
RBond                                      R   N=          68
  1.00000000E+00  0.00000000E+00  0.00000000E+00  0.00000000E+00  1.50000000E+00
  1.00000000E+00  0.00000000E+00  0.00000000E+00  1.50000000E+00  1.00000000E+00
  0.00000000E+00  0.00000000E+00  1.50000000E+00  1.50000000E+00  1.50000000E+00
  0.00000000E+00  1.50000000E+00  1.50000000E+00  1.50000000E+00  0.00000000E+00
  1.00000000E+00  1.50000000E+00  1.50000000E+00  0.00000000E+00  1.50000000E+00
  1.50000000E+00  1.00000000E+00  0.00000000E+00  1.50000000E+00  1.50000000E+00
  1.00000000E+00  0.00000000E+00  1.50000000E+00  1.50000000E+00  1.00000000E+00
  0.00000000E+00  1.00000000E+00  1.00000000E+00  1.00000000E+00  1.00000000E+00
  1.00000000E+00  0.00000000E+00  0.00000000E+00  0.00000000E+00  1.00000000E+00
  0.00000000E+00  0.00000000E+00  0.00000000E+00  1.00000000E+00  0.00000000E+00
  0.00000000E+00  0.00000000E+00  1.00000000E+00  0.00000000E+00  0.00000000E+00
  0.00000000E+00  1.00000000E+00  0.00000000E+00  0.00000000E+00  0.00000000E+00
  1.00000000E+00  0.00000000E+00  0.00000000E+00  0.00000000E+00  1.00000000E+00
  0.00000000E+00  0.00000000E+00  0.00000000E+00
Virial Ratio                               R      2.002503244611070E+00
SCF Energy                                 R     -5.182815290492204E+02
MP2 Energy                                 R     -5.196958255130941E+02
Total Energy                               R     -5.196958255130941E+02
Post-SCF wavefunction norm                 R      1.703633334064445E+00
RMS Force                                  R      1.960320796473950E-06
RMS Density                                R      1.364162328906898E-09
External E-field                           R   N=          35
  0.00000000E+00  0.00000000E+00  0.00000000E+00  0.00000000E+00  0.00000000E+00
  0.00000000E+00  0.00000000E+00  0.00000000E+00  0.00000000E+00  0.00000000E+00
  0.00000000E+00  0.00000000E+00  0.00000000E+00  0.00000000E+00  0.00000000E+00
  0.00000000E+00  0.00000000E+00  0.00000000E+00  0.00000000E+00  0.00000000E+00
  0.00000000E+00  0.00000000E+00  0.00000000E+00  0.00000000E+00  0.00000000E+00
  0.00000000E+00  0.00000000E+00  0.00000000E+00  0.00000000E+00  0.00000000E+00
  0.00000000E+00  0.00000000E+00  0.00000000E+00  0.00000000E+00  0.00000000E+00
IOpCl                                      I                0
IROHF                                      I                0
Alpha Orbital Energies                     R   N=         164
 -2.63168531E+01 -2.06023512E+01 -2.05960899E+01 -1.13380462E+01 -1.13137155E+01
 -1.13010269E+01 -1.12908222E+01 -1.12550069E+01 -1.12432455E+01 -1.12390775E+01
 -1.62177490E+00 -1.42158403E+00 -1.38882348E+00 -1.15591226E+00 -1.02695219E+00
 -1.01829109E+00 -9.45051394E-01 -8.48674883E-01 -8.44765371E-01 -7.53500311E-01
 -7.40350515E-01 -7.06080545E-01 -6.91532282E-01 -6.70146867E-01 -6.49458777E-01
 -6.42178469E-01 -6.29442325E-01 -6.16650513E-01 -5.83082289E-01 -5.67097967E-01
 -5.50663549E-01 -5.36176284E-01 -5.15788401E-01 -4.84159917E-01 -4.67271167E-01
 -3.38166344E-01 -3.19522960E-01  1.37502517E-01  1.49457098E-01  2.15123671E-01
  2.48402659E-01  2.73632169E-01  3.00650775E-01  3.07076037E-01  3.08055119E-01
  3.17080243E-01  3.25851084E-01  3.58511427E-01  3.84754911E-01  4.35946342E-01
  4.52390134E-01  4.77381382E-01  5.33892382E-01  5.71976612E-01  5.87201631E-01
  6.61785260E-01  7.17143882E-01  7.20932175E-01  7.21377841E-01  7.37919934E-01
  7.60875086E-01  7.74394337E-01  7.95005335E-01  8.12209125E-01  8.25224880E-01
  8.31508213E-01  8.52532160E-01  8.75812217E-01  8.90592439E-01  9.08285241E-01
  9.11574233E-01  9.63593768E-01  9.84965613E-01  1.02763787E+00  1.03356478E+00
  1.10421336E+00  1.11066158E+00  1.11716550E+00  1.13008112E+00  1.14258251E+00
  1.15575248E+00  1.16924480E+00  1.18769393E+00  1.20987832E+00  1.22431627E+00
  1.24804907E+00  1.26339805E+00  1.29103803E+00  1.34187846E+00  1.35422392E+00
  1.36330950E+00  1.41459606E+00  1.45355208E+00  1.46983201E+00  1.50235109E+00
  1.53044411E+00  1.55960381E+00  1.58327679E+00  1.63008453E+00  1.63202371E+00
  1.65573927E+00  1.70206132E+00  1.71067081E+00  1.74151538E+00  1.75312992E+00
  1.76652195E+00  1.82048816E+00  1.87504668E+00  1.95967092E+00  1.99131045E+00
  2.02858129E+00  2.03890852E+00  2.08305504E+00  2.11905587E+00  2.12841125E+00
  2.14722786E+00  2.17422395E+00  2.22674506E+00  2.24400025E+00  2.25451558E+00
  2.26378375E+00  2.27163700E+00  2.29002261E+00  2.33420957E+00  2.36424925E+00
  2.40734843E+00  2.44547715E+00  2.48017572E+00  2.50037525E+00  2.53982583E+00
  2.57475054E+00  2.60860541E+00  2.62518893E+00  2.63560126E+00  2.65710723E+00
  2.70464763E+00  2.73635794E+00  2.77029901E+00  2.78663699E+00  2.85436978E+00
  2.90038826E+00  2.92652342E+00  2.99179669E+00  3.00634420E+00  3.04806882E+00
  3.07992062E+00  3.12574182E+00  3.18064907E+00  3.24489317E+00  3.29782415E+00
  3.41472727E+00  3.48002356E+00  3.62454906E+00  3.80313719E+00  4.31073642E+00
  4.47915804E+00  4.50371929E+00  4.59994442E+00  4.62713235E+00  4.68719534E+00
  4.77594143E+00  4.92965451E+00  5.19910635E+00  5.99556877E+00
Alpha MO coefficients                      R   N=       26896
  9.94430951E-01  1.77834325E-02 -6.36482004E-04  6.63956173E-04  1.05675906E-04
  8.00508143E-03  4.91333521E-04 -5.12618818E-04 -6.17497035E-05 -4.76816092E-03
 -4.80535036E-03 -4.55246861E-03  3.18733448E-04  4.63539165E-05 -4.61332147E-05
  9.22665830E-06  3.07386924E-05 -6.98288533E-06 -1.42192692E-05 -8.68830746E-07
 -1.76592575E-04  9.16959711E-05 -1.17495845E-05  6.96250257E-06  1.75579672E-05
  3.64608580E-05  3.88824843E-05  6.08704854E-06  7.97010540E-06  8.04839949E-08
 -5.01728427E-06 -2.34288811E-05  3.54091311E-07 -1.33830338E-06 -6.87832743E-07
  2.03290448E-04  4.91115257E-06 -5.59369421E-05  3.13288542E-06 -1.86887224E-05
 -9.86276011E-06 -7.68535027E-06  8.93335674E-07  1.25308761E-06 -5.46324703E-07
  6.09295184E-06  1.03352616E-04  1.21778524E-05  9.70069892E-06 -7.47697744E-06
 -3.30763926E-04  1.37925958E-04  6.69833217E-04 -1.24310758E-05 -7.94325677E-06
 -1.04177065E-04  2.87710240E-06  1.24902765E-05  2.16636915E-06 -2.93518764E-06
 -2.88578846E-06 -1.42128720E-05  1.38393558E-05  7.12463606E-07 -8.16181534E-07
 -1.01004690E-05 -4.09623335E-04 -2.14649772E-04  5.47250781E-05  9.32249997E-06
 -2.65258690E-06 -5.28214737E-06 -7.65576389E-06 -3.16170611E-06  1.30481522E-06
 -1.63086521E-05  2.09189112E-04  3.68766020E-04 -3.98568516E-04 -6.44087194E-05
  7.27849823E-04  1.75814892E-04  2.86656742E-04 -6.60013961E-06  1.76309297E-04
  2.04627658E-04 -6.86574666E-05 -1.89973703E-04 -4.68961037E-05  3.06463103E-05
  2.67740243E-06  2.26316067E-05 -8.53564627E-06  3.47082913E-06  1.35707716E-06
 -4.69419788E-04 -1.75286987E-04  9.04307104E-05  2.78785407E-05 -7.74459649E-06
 -8.17471278E-06  4.17971079E-06 -4.22180455E-06  2.92730838E-06  1.16393529E-06
  2.75648676E-06  8.78294471E-05 -7.07079308E-06 -1.78590135E-06  3.41824279E-06
 -7.82432745E-05 -1.69431556E-04 -7.90447336E-05  1.55304813E-05 -9.42246956E-05
 -2.52211088E-05 -2.70227778E-06  1.30806242E-05  1.62249654E-05 -2.60378666E-06
 -2.07079597E-06 -1.76455406E-05 -1.44051942E-06 -7.28716260E-06  3.78319956E-07
  1.18811106E-04  1.56891246E-04  1.17383052E-04 -2.30232364E-05  3.56981666E-06
  2.00282167E-05 -5.48471884E-06 -7.59227439E-06 -8.80986620E-07 -5.30053710E-08
 -4.21044816E-06 -2.51180132E-05 -2.60977441E-05  1.54774246E-06 -7.83961175E-06
  2.27160083E-04  1.07619833E-04 -1.21849552E-04  4.59985063E-05 -6.59625253E-07
  8.16961150E-07 -1.08109593E-05  8.43630057E-06 -1.33679631E-05  3.59053648E-06
  1.24925104E-06 -3.62542973E-05  1.86673028E-05 -7.79984003E-05  1.42233344E-05
  6.01629060E-05  5.17550074E-05 -3.48608435E-04 -9.05080469E-06 -3.01935478E-06