opt=Tight                                                               
Freq      RMP2-FC                                                     6-31G(d)            
Number of atoms                            I               12
Info1-9                                    I   N=           9
          21          21        1002           0           0         100
           6           2           1
Charge                                     I               -1
Multiplicity                               I                1
Number of electrons                        I               50
Number of alpha electrons                  I               25
Number of beta electrons                   I               25
Number of basis functions                  I              115
Number of independent functions            I              115
Number of point charges in /Mol/           I                0
Number of translation vectors              I                0
Atomic numbers                             I   N=          12
           6           6           6           6           6           6
           8           1           1           1           1           1
Nuclear charges                            R   N=          12
  6.00000000E+00  6.00000000E+00  6.00000000E+00  6.00000000E+00  6.00000000E+00
  6.00000000E+00  8.00000000E+00  1.00000000E+00  1.00000000E+00  1.00000000E+00
  1.00000000E+00  1.00000000E+00
Current cartesian coordinates              R   N=          36
  2.41003684E-06  5.44038011E-01  2.27730875E+00  2.41003684E-06 -2.08923041E+00
  2.26932476E+00  7.37734881E-06 -3.45338593E+00  0.00000000E+00  2.41003684E-06
 -2.08923041E+00 -2.26932476E+00  2.41003684E-06  5.44038011E-01 -2.27730875E+00
  6.52556534E-06  2.02615714E+00  0.00000000E+00 -1.73799943E-05  4.46016572E+00
  0.00000000E+00 -5.42063779E-06  1.56650448E+00  4.06693234E+00  1.34602934E-06
 -3.09987311E+00  4.06675484E+00  5.93080214E-06 -5.50890709E+00  0.00000000E+00
  1.34602934E-06 -3.09987311E+00 -4.06675484E+00 -5.42063779E-06  1.56650448E+00
 -4.06693234E+00
Force Field                                I                0
Int Atom Types                             I   N=          12
           0           0           0           0           0           0
           0           0           0           0           0           0
MM charges                                 R   N=          12
  0.00000000E+00  0.00000000E+00  0.00000000E+00  0.00000000E+00  0.00000000E+00
  0.00000000E+00  0.00000000E+00  0.00000000E+00  0.00000000E+00  0.00000000E+00
  0.00000000E+00  0.00000000E+00
Integer atomic weights                     I   N=          12
          12          12          12          12          12          12
          16           1           1           1           1           1
Real atomic weights                        R   N=          12
  1.20000000E+01  1.20000000E+01  1.20000000E+01  1.20000000E+01  1.20000000E+01
  1.20000000E+01  1.59949146E+01  1.00782504E+00  1.00782504E+00  1.00782504E+00
  1.00782504E+00  1.00782504E+00
Atom fragment info                         I   N=          12
           0           0           0           0           0           0
           0           0           0           0           0           0
Atom residue num                           I   N=          12
           0           0           0           0           0           0
           0           0           0           0           0           0
Nuclear spins                              I   N=          12
           0           0           0           0           0           0
           0           1           1           1           1           1
Nuclear ZEff                               R   N=          12
 -3.60000000E+00 -3.60000000E+00 -3.60000000E+00 -3.60000000E+00 -3.60000000E+00
 -3.60000000E+00 -5.60000000E+00 -1.00000000E+00 -1.00000000E+00 -1.00000000E+00
 -1.00000000E+00 -1.00000000E+00
Nuclear QMom                               R   N=          12
  0.00000000E+00  0.00000000E+00  0.00000000E+00  0.00000000E+00  0.00000000E+00
  0.00000000E+00  0.00000000E+00  0.00000000E+00  0.00000000E+00  0.00000000E+00
  0.00000000E+00  0.00000000E+00
Nuclear GFac                               R   N=          12
  0.00000000E+00  0.00000000E+00  0.00000000E+00  0.00000000E+00  0.00000000E+00
  0.00000000E+00  0.00000000E+00  2.79284600E+00  2.79284600E+00  2.79284600E+00
  2.79284600E+00  2.79284600E+00
MicOpt                                     I   N=          12
          -1          -1          -1          -1          -1          -1
          -1          -1          -1          -1          -1          -1
Number of contracted shells                I               38
Number of primitive shells                 I               97
Pure/Cartesian d shells                    I                1
Pure/Cartesian f shells                    I                0
Highest angular momentum                   I                2
Largest degree of contraction              I                6
Shell types                                I   N=          38
           0          -1          -1           2           0          -1
          -1           2           0          -1          -1           2
           0          -1          -1           2           0          -1
          -1           2           0          -1          -1           2
           0          -1          -1           2           0           0
           0           0           0           0           0           0
           0           0
Number of primitives per shell             I   N=          38
           6           3           1           1           6           3
           1           1           6           3           1           1
           6           3           1           1           6           3
           1           1           6           3           1           1
           6           3           1           1           3           1
           3           1           3           1           3           1
           3           1
Shell to atom map                          I   N=          38
           1           1           1           1           2           2
           2           2           3           3           3           3
           4           4           4           4           5           5
           5           5           6           6           6           6
           7           7           7           7           8           8
           9           9          10          10          11          11
          12          12
Primitive exponents                        R   N=          97
  3.04752488E+03  4.57369518E+02  1.03948685E+02  2.92101553E+01  9.28666296E+00
  3.16392696E+00  7.86827235E+00  1.88128854E+00  5.44249258E-01  1.68714478E-01
  8.00000000E-01  3.04752488E+03  4.57369518E+02  1.03948685E+02  2.92101553E+01
  9.28666296E+00  3.16392696E+00  7.86827235E+00  1.88128854E+00  5.44249258E-01
  1.68714478E-01  8.00000000E-01  3.04752488E+03  4.57369518E+02  1.03948685E+02
  2.92101553E+01  9.28666296E+00  3.16392696E+00  7.86827235E+00  1.88128854E+00
  5.44249258E-01  1.68714478E-01  8.00000000E-01  3.04752488E+03  4.57369518E+02
  1.03948685E+02  2.92101553E+01  9.28666296E+00  3.16392696E+00  7.86827235E+00
  1.88128854E+00  5.44249258E-01  1.68714478E-01  8.00000000E-01  3.04752488E+03
  4.57369518E+02  1.03948685E+02  2.92101553E+01  9.28666296E+00  3.16392696E+00
  7.86827235E+00  1.88128854E+00  5.44249258E-01  1.68714478E-01  8.00000000E-01
  3.04752488E+03  4.57369518E+02  1.03948685E+02  2.92101553E+01  9.28666296E+00
  3.16392696E+00  7.86827235E+00  1.88128854E+00  5.44249258E-01  1.68714478E-01
  8.00000000E-01  5.48467166E+03  8.25234946E+02  1.88046958E+02  5.29645000E+01
  1.68975704E+01  5.79963534E+00  1.55396162E+01  3.59993359E+00  1.01376175E+00
  2.70005823E-01  8.00000000E-01  1.87311370E+01  2.82539436E+00  6.40121692E-01
  1.61277759E-01  1.87311370E+01  2.82539436E+00  6.40121692E-01  1.61277759E-01
  1.87311370E+01  2.82539436E+00  6.40121692E-01  1.61277759E-01  1.87311370E+01
  2.82539436E+00  6.40121692E-01  1.61277759E-01  1.87311370E+01  2.82539436E+00
  6.40121692E-01  1.61277759E-01
Contraction coefficients                   R   N=          97
  1.83473713E-03  1.40373228E-02  6.88426223E-02  2.32184443E-01  4.67941348E-01
  3.62311985E-01 -1.19332420E-01 -1.60854152E-01  1.14345644E+00  1.00000000E+00
  1.00000000E+00  1.83473713E-03  1.40373228E-02  6.88426223E-02  2.32184443E-01
  4.67941348E-01  3.62311985E-01 -1.19332420E-01 -1.60854152E-01  1.14345644E+00
  1.00000000E+00  1.00000000E+00  1.83473713E-03  1.40373228E-02  6.88426223E-02
  2.32184443E-01  4.67941348E-01  3.62311985E-01 -1.19332420E-01 -1.60854152E-01
  1.14345644E+00  1.00000000E+00  1.00000000E+00  1.83473713E-03  1.40373228E-02
  6.88426223E-02  2.32184443E-01  4.67941348E-01  3.62311985E-01 -1.19332420E-01
 -1.60854152E-01  1.14345644E+00  1.00000000E+00  1.00000000E+00  1.83473713E-03
  1.40373228E-02  6.88426223E-02  2.32184443E-01  4.67941348E-01  3.62311985E-01
 -1.19332420E-01 -1.60854152E-01  1.14345644E+00  1.00000000E+00  1.00000000E+00
  1.83473713E-03  1.40373228E-02  6.88426223E-02  2.32184443E-01  4.67941348E-01
  3.62311985E-01 -1.19332420E-01 -1.60854152E-01  1.14345644E+00  1.00000000E+00
  1.00000000E+00  1.83107443E-03  1.39501722E-02  6.84450781E-02  2.32714336E-01
  4.70192898E-01  3.58520853E-01 -1.10777550E-01 -1.48026263E-01  1.13076702E+00
  1.00000000E+00  1.00000000E+00  3.34946043E-02  2.34726953E-01  8.13757326E-01
  1.00000000E+00  3.34946043E-02  2.34726953E-01  8.13757326E-01  1.00000000E+00
  3.34946043E-02  2.34726953E-01  8.13757326E-01  1.00000000E+00  3.34946043E-02
  2.34726953E-01  8.13757326E-01  1.00000000E+00  3.34946043E-02  2.34726953E-01
  8.13757326E-01  1.00000000E+00
P(S=P) Contraction coefficients            R   N=          97
  0.00000000E+00  0.00000000E+00  0.00000000E+00  0.00000000E+00  0.00000000E+00
  0.00000000E+00  6.89990666E-02  3.16423961E-01  7.44308291E-01  1.00000000E+00
  0.00000000E+00  0.00000000E+00  0.00000000E+00  0.00000000E+00  0.00000000E+00
  0.00000000E+00  0.00000000E+00  6.89990666E-02  3.16423961E-01  7.44308291E-01
  1.00000000E+00  0.00000000E+00  0.00000000E+00  0.00000000E+00  0.00000000E+00
  0.00000000E+00  0.00000000E+00  0.00000000E+00  6.89990666E-02  3.16423961E-01
  7.44308291E-01  1.00000000E+00  0.00000000E+00  0.00000000E+00  0.00000000E+00
  0.00000000E+00  0.00000000E+00  0.00000000E+00  0.00000000E+00  6.89990666E-02
  3.16423961E-01  7.44308291E-01  1.00000000E+00  0.00000000E+00  0.00000000E+00
  0.00000000E+00  0.00000000E+00  0.00000000E+00  0.00000000E+00  0.00000000E+00
  6.89990666E-02  3.16423961E-01  7.44308291E-01  1.00000000E+00  0.00000000E+00
  0.00000000E+00  0.00000000E+00  0.00000000E+00  0.00000000E+00  0.00000000E+00
  0.00000000E+00  6.89990666E-02  3.16423961E-01  7.44308291E-01  1.00000000E+00
  0.00000000E+00  0.00000000E+00  0.00000000E+00  0.00000000E+00  0.00000000E+00
  0.00000000E+00  0.00000000E+00  7.08742682E-02  3.39752839E-01  7.27158577E-01
  1.00000000E+00  0.00000000E+00  0.00000000E+00  0.00000000E+00  0.00000000E+00
  0.00000000E+00  0.00000000E+00  0.00000000E+00  0.00000000E+00  0.00000000E+00
  0.00000000E+00  0.00000000E+00  0.00000000E+00  0.00000000E+00  0.00000000E+00
  0.00000000E+00  0.00000000E+00  0.00000000E+00  0.00000000E+00  0.00000000E+00
  0.00000000E+00  0.00000000E+00
Coordinates of each shell                  R   N=         114
  2.41003684E-06  5.44038011E-01  2.27730875E+00  2.41003684E-06  5.44038011E-01
  2.27730875E+00  2.41003684E-06  5.44038011E-01  2.27730875E+00  2.41003684E-06
  5.44038011E-01  2.27730875E+00  2.41003684E-06 -2.08923041E+00  2.26932476E+00
  2.41003684E-06 -2.08923041E+00  2.26932476E+00  2.41003684E-06 -2.08923041E+00
  2.26932476E+00  2.41003684E-06 -2.08923041E+00  2.26932476E+00  7.37734881E-06
 -3.45338593E+00  0.00000000E+00  7.37734881E-06 -3.45338593E+00  0.00000000E+00
  7.37734881E-06 -3.45338593E+00  0.00000000E+00  7.37734881E-06 -3.45338593E+00
  0.00000000E+00  2.41003684E-06 -2.08923041E+00 -2.26932476E+00  2.41003684E-06
 -2.08923041E+00 -2.26932476E+00  2.41003684E-06 -2.08923041E+00 -2.26932476E+00
  2.41003684E-06 -2.08923041E+00 -2.26932476E+00  2.41003684E-06  5.44038011E-01
 -2.27730875E+00  2.41003684E-06  5.44038011E-01 -2.27730875E+00  2.41003684E-06
  5.44038011E-01 -2.27730875E+00  2.41003684E-06  5.44038011E-01 -2.27730875E+00
  6.52556534E-06  2.02615714E+00  0.00000000E+00  6.52556534E-06  2.02615714E+00
  0.00000000E+00  6.52556534E-06  2.02615714E+00  0.00000000E+00  6.52556534E-06
  2.02615714E+00  0.00000000E+00 -1.73799943E-05  4.46016572E+00  0.00000000E+00
 -1.73799943E-05  4.46016572E+00  0.00000000E+00 -1.73799943E-05  4.46016572E+00
  0.00000000E+00 -1.73799943E-05  4.46016572E+00  0.00000000E+00 -5.42063779E-06
  1.56650448E+00  4.06693234E+00 -5.42063779E-06  1.56650448E+00  4.06693234E+00
  1.34602934E-06 -3.09987311E+00  4.06675484E+00  1.34602934E-06 -3.09987311E+00
  4.06675484E+00  5.93080214E-06 -5.50890709E+00  0.00000000E+00  5.93080214E-06
 -5.50890709E+00  0.00000000E+00  1.34602934E-06 -3.09987311E+00 -4.06675484E+00
  1.34602934E-06 -3.09987311E+00 -4.06675484E+00 -5.42063779E-06  1.56650448E+00
 -4.06693234E+00 -5.42063779E-06  1.56650448E+00 -4.06693234E+00
Constraint Structure                       R   N=          36
  2.41003684E-06  5.44038011E-01  2.27730875E+00  2.41003684E-06 -2.08923041E+00
  2.26932476E+00  7.37734881E-06 -3.45338593E+00  0.00000000E+00  2.41003684E-06
 -2.08923041E+00 -2.26932476E+00  2.41003684E-06  5.44038011E-01 -2.27730875E+00
  6.52556534E-06  2.02615714E+00  0.00000000E+00 -1.73799943E-05  4.46016572E+00
  0.00000000E+00 -5.42063779E-06  1.56650448E+00  4.06693234E+00  1.34602934E-06
 -3.09987311E+00  4.06675484E+00  5.93080214E-06 -5.50890709E+00  0.00000000E+00
  1.34602934E-06 -3.09987311E+00 -4.06675484E+00 -5.42063779E-06  1.56650448E+00
 -4.06693234E+00
Num ILSW                                   I              100
ILSW                                       I   N=         100
           0           1           0           0           2           0
           0           0           0           0           0          -1
           0           0           0           0           0           0
           0           0           0           0           1           0
           1           0           0           0           0           0
           0           0      100000           0          -1           0
           0           0           0           0           0           0
           0           0           0           1           1           0
           0           0           1           0           0           0
           0           0           4          40           0           0
           0           0           0           0           0           0
           0           0           0           0           0           0
           0           0           0           0           0           0
           0           0           0           0           0           0
           0           0           0           0           0           0
           0           0           0           0           0           0
           0           0           0           0
Num RLSW                                   I               40
RLSW                                       R   N=          40
  1.00000000E+00  1.00000000E+00  1.00000000E+00  1.00000000E+00  1.00000000E+00
  0.00000000E+00  0.00000000E+00  1.00000000E+00  0.00000000E+00  0.00000000E+00
  0.00000000E+00  0.00000000E+00  1.00000000E+00  0.00000000E+00  0.00000000E+00
  0.00000000E+00  0.00000000E+00  1.00000000E+00  0.00000000E+00  0.00000000E+00
  0.00000000E+00  0.00000000E+00  1.00000000E+00  0.00000000E+00  0.00000000E+00
  0.00000000E+00  0.00000000E+00  1.00000000E+00  0.00000000E+00  0.00000000E+00
  0.00000000E+00  0.00000000E+00  0.00000000E+00  0.00000000E+00  0.00000000E+00
  0.00000000E+00  0.00000000E+00  0.00000000E+00  1.00000000E+00  1.00000000E+00
MxBond                                     I                3
NBond                                      I   N=          12
           3           3           3           3           3           3
           1           1           1           1           1           1
IBond                                      I   N=          36
           2           6           8           1           3           9
           2           4          10           3           5          11
           4           6          12           1           5           7
           6           0           0           1           0           0
           2           0           0           3           0           0
           4           0           0           5           0           0
RBond                                      R   N=          36
  1.50000000E+00  1.00000000E+00  1.00000000E+00  1.50000000E+00  1.50000000E+00
  1.00000000E+00  1.50000000E+00  1.50000000E+00  1.00000000E+00  1.50000000E+00
  1.50000000E+00  1.00000000E+00  1.50000000E+00  1.00000000E+00  1.00000000E+00
  1.00000000E+00  1.00000000E+00  2.00000000E+00  2.00000000E+00  0.00000000E+00
  0.00000000E+00  1.00000000E+00  0.00000000E+00  0.00000000E+00  1.00000000E+00
  0.00000000E+00  0.00000000E+00  1.00000000E+00  0.00000000E+00  0.00000000E+00
  1.00000000E+00  0.00000000E+00  0.00000000E+00  1.00000000E+00  0.00000000E+00
  0.00000000E+00
Virial Ratio                               R      2.002185395862747E+00
SCF Energy                                 R     -3.050623351956448E+02
MP2 Energy                                 R     -3.060036786424299E+02
Total Energy                               R     -3.060036786424299E+02
Post-SCF wavefunction norm                 R      1.631312190927486E+00
RMS Force                                  R      1.910965325904951E-06
RMS Density                                R      9.766242986253311E-10
External E-field                           R   N=          35
  0.00000000E+00  0.00000000E+00  0.00000000E+00  0.00000000E+00  0.00000000E+00
  0.00000000E+00  0.00000000E+00  0.00000000E+00  0.00000000E+00  0.00000000E+00
  0.00000000E+00  0.00000000E+00  0.00000000E+00  0.00000000E+00  0.00000000E+00
  0.00000000E+00  0.00000000E+00  0.00000000E+00  0.00000000E+00  0.00000000E+00
  0.00000000E+00  0.00000000E+00  0.00000000E+00  0.00000000E+00  0.00000000E+00
  0.00000000E+00  0.00000000E+00  0.00000000E+00  0.00000000E+00  0.00000000E+00
  0.00000000E+00  0.00000000E+00  0.00000000E+00  0.00000000E+00  0.00000000E+00
IOpCl                                      I                0
IROHF                                      I                0
Alpha Orbital Energies                     R   N=         115
 -2.04383116E+01 -1.12530081E+01 -1.12159437E+01 -1.12159281E+01 -1.11898976E+01
 -1.11827987E+01 -1.11827890E+01 -1.25515987E+00 -1.09337911E+00 -9.75083715E-01
 -9.38302970E-01 -7.85890647E-01 -7.59944239E-01 -6.51469151E-01 -5.96737268E-01
 -5.92516421E-01 -5.45724191E-01 -5.31891169E-01 -4.95849301E-01 -4.73403992E-01
 -4.63693920E-01 -4.13056615E-01 -3.45539156E-01 -3.13225925E-01 -2.35960829E-01
  1.69635471E-01  2.04823264E-01  2.59674662E-01  3.10157528E-01  3.29821532E-01
  3.45404441E-01  3.58582559E-01  4.06869848E-01  4.69944797E-01  4.72621587E-01
  5.03658587E-01  5.69605946E-01  5.73084798E-01  7.24172144E-01  7.42964805E-01
  7.74887369E-01  7.83116572E-01  8.09549500E-01  8.39855886E-01  8.50080853E-01
  8.61008530E-01  8.62593575E-01  8.65356457E-01  9.29813279E-01  9.34504054E-01
  9.40282200E-01  9.60773357E-01  1.02838469E+00  1.05667709E+00  1.13022784E+00
  1.14055764E+00  1.15589046E+00  1.15774750E+00  1.19281262E+00  1.22230820E+00
  1.22313299E+00  1.27757548E+00  1.29930468E+00  1.31820178E+00  1.36833347E+00
  1.37294105E+00  1.45559262E+00  1.45772660E+00  1.50772189E+00  1.54325128E+00
  1.63498088E+00  1.69565395E+00  1.73285974E+00  1.75579079E+00  1.79046025E+00
  1.80622961E+00  1.83117378E+00  1.94627063E+00  2.10042433E+00  2.11233981E+00
  2.18549308E+00  2.18668949E+00  2.22596949E+00  2.25461404E+00  2.29769802E+00
  2.34332083E+00  2.34627569E+00  2.36643344E+00  2.40747179E+00  2.48413784E+00
  2.49165060E+00  2.50064675E+00  2.60739616E+00  2.65322745E+00  2.67907204E+00
  2.68097727E+00  2.89933203E+00  2.92656473E+00  2.98581563E+00  3.01702881E+00
  3.06668322E+00  3.10309235E+00  3.12228650E+00  3.14381673E+00  3.23558946E+00
  3.40517981E+00  3.55417262E+00  3.78079662E+00  4.45110188E+00  4.54010114E+00
  4.57190852E+00  4.68829564E+00  4.78704914E+00  4.90533734E+00  5.22418649E+00
Alpha MO coefficients                      R   N=       13225
  2.82986279E-06  3.80347331E-05  2.56381413E-10 -2.51429759E-05  7.08650947E-07
 -4.22230083E-04 -1.00664513E-09  1.14123116E-04  2.58962985E-04 -1.23194987E-05
 -7.02711015E-05  2.89919107E-05  2.35861915E-10 -5.87726981E-10  3.39159839E-05
 -2.83906254E-07 -4.09781547E-06  1.04121435E-10  1.91642120E-05  1.52261737E-06
  2.59131104E-04  1.11482478E-10  7.80658457E-05 -1.16250658E-04  1.40470518E-06
  2.43408801E-05 -2.27915383E-06 -2.21631358E-13  7.54785077E-11  1.66349112E-05
  3.69050654E-06  2.08948310E-05  8.51554892E-11  5.76553869E-06  0.00000000E+00
 -2.19783799E-04  1.24113348E-10 -1.60116905E-04  0.00000000E+00  1.01458092E-05
  5.09620111E-06 -1.27813632E-05  4.56342182E-11  0.00000000E+00  0.00000000E+00
 -2.83906254E-07 -4.09781547E-06  1.04121435E-10  1.91642120E-05 -1.52261737E-06
  2.59131104E-04  1.11482478E-10  7.80658457E-05  1.16250658E-04  1.40470518E-06
  2.43408801E-05 -2.27915383E-06 -2.21631358E-13 -7.54785077E-11 -1.66349112E-05
  2.82986279E-06  3.80347331E-05  2.56381413E-10 -2.51429759E-05 -7.08650947E-07
 -4.22230083E-04 -1.00664513E-09  1.14123116E-04 -2.58962985E-04 -1.23194987E-05
 -7.02711015E-05  2.89919107E-05  2.35861915E-10  5.87726981E-10 -3.39159839E-05
 -1.20186315E-05  4.91026879E-04 -1.32401154E-09  1.87518967E-04  0.00000000E+00
  1.69427251E-04  4.04845800E-09 -7.80144898E-04  0.00000000E+00 -8.39086723E-05
 -5.00069433E-04 -4.48881090E-05  5.19413161E-09  0.00000000E+00  0.00000000E+00
  9.94687284E-01  2.09361929E-02  1.54329202E-08 -1.25607640E-03  0.00000000E+00
  4.42200926E-03 -1.84098129E-09  1.64947712E-04  0.00000000E+00 -3.99501446E-03
 -3.88262353E-03 -3.89114837E-03 -3.62331045E-10  0.00000000E+00  0.00000000E+00
 -8.78869617E-06 -9.11545524E-05  6.30341291E-06  2.48669004E-05 -7.71590805E-06
 -4.49843243E-05  6.30341291E-06  2.48669004E-05 -8.78869617E-06 -9.11545524E-05
  6.37670462E-03 -1.55680199E-04 -1.44303791E-09  5.27947253E-05  1.38410997E-04
  1.03744059E-02  2.01984353E-08 -2.56589224E-03 -5.43812684E-03 -2.44453311E-04
 -4.07488320E-04 -4.50404914E-04 -8.09274208E-10  3.66996496E-11  2.21401791E-04
  5.39571280E-05  1.57646756E-04 -8.30082227E-10 -1.24108979E-04  4.15792254E-05
 -6.26636210E-03 -5.92019178E-09 -1.91341505E-03  2.55642621E-03  2.53725560E-05
  4.49052995E-05  3.27302391E-05 -6.12271653E-10 -7.60845698E-11 -9.00271581E-06
 -1.99863573E-04 -2.93851379E-04 -1.03344023E-09 -6.67913470E-05  0.00000000E+00
  4.63115939E-03 -2.23595832E-09  3.03092550E-03  0.00000000E+00 -1.22011095E-04
 -5.10360455E-05  1.10398637E-05 -7.68885971E-10  0.00000000E+00  0.00000000E+00
  5.39571280E-05  1.57646756E-04 -8.30082227E-10 -1.24108979E-04 -4.15792254E-05
 -6.26636210E-03 -5.92019178E-09 -1.91341505E-03 -2.55642621E-03  2.53725560E-05
  4.49052995E-05  3.27302391E-05 -6.12271653E-10  7.60845698E-11  9.00271581E-06
  6.37670462E-03 -1.55680199E-04 -1.44303791E-09  5.27947253E-05 -1.38410997E-04
  1.03744059E-02  2.01984353E-08 -2.56589224E-03  5.43812684E-03 -2.44453311E-04
 -4.07488320E-04 -4.50404914E-04 -8.09274208E-10 -3.66996496E-11 -2.21401791E-04
  9.95932028E-01  2.70307184E-02 -4.87058733E-09  2.96122924E-04  0.00000000E+00
 -1.45962917E-02 -2.39518872E-08  1.10413357E-02  0.00000000E+00 -1.99654026E-03
 -4.99133932E-04 -1.27217651E-03 -1.57202896E-08  0.00000000E+00  0.00000000E+00
  1.95097790E-05  1.36101593E-03  5.86995349E-09 -2.01219776E-04  0.00000000E+00
 -7.65938726E-03 -5.45323702E-08  2.88418251E-03  0.00000000E+00  9.15128843E-04
  9.19653487E-07  7.54707853E-04  1.61894561E-08  0.00000000E+00  0.00000000E+00
  1.52055542E-04  1.43268749E-03 -5.23315291E-05 -5.42832681E-04  1.05763873E-04
  7.65464450E-04 -5.23315291E-05 -5.42832681E-04  1.52055542E-04  1.43268749E-03
  1.21196462E-02  1.87483862E-05  1.77955180E-10  1.48325229E-04  4.35661109E-05
  5.98120759E-03  4.71197114E-09 -2.12471457E-03 -1.94899666E-03 -1.75825131E-04
 -3.59460374E-04 -2.22177251E-04 -3.60971752E-10  3.48298540E-10  3.71436834E-05
  7.03650211E-01  1.94612772E-02  1.38152498E-09  3.65925621E-05 -5.62709887E-05
 -1.25597947E-02 -7.96684191E-09 -1.51813267E-03  2.60736918E-03 -1.59939425E-03
 -1.03768302E-03 -1.09064156E-03 -9.66487963E-10 -1.53036731E-10  1.23643587E-04
  3.01040960E-02  4.70692662E-04  5.36295971E-10 -1.84816902E-04  0.00000000E+00
  8.60182754E-03 -5.41692651E-09  3.72952597E-03  0.00000000E+00 -2.79513220E-04
 -4.61746408E-04 -7.58958177E-04  1.12748350E-11  0.00000000E+00  0.00000000E+00
  7.03650211E-01  1.94612772E-02  1.38152498E-09  3.65925621E-05  5.62709887E-05
 -1.25597947E-02 -7.96684191E-09 -1.51813267E-03 -2.60736918E-03 -1.59939425E-03
 -1.03768302E-03 -1.09064156E-03 -9.66487963E-10  1.53036731E-10 -1.23643587E-04
  1.21196462E-02  1.87483862E-05  1.77955180E-10  1.48325229E-04 -4.35661109E-05
  5.98120759E-03  4.71197114E-09 -2.12471457E-03  1.94899666E-03 -1.75825131E-04
 -3.59460374E-04 -2.22177251E-04 -3.60971752E-10 -3.48298540E-10 -3.71436834E-05
 -1.46936955E-04  6.02729212E-05  6.00523836E-10  2.08236232E-05  0.00000000E+00
 -3.52145488E-03  2.79383870E-09  1.95757731E-03  0.00000000E+00  4.12677927E-05
  6.02131062E-05  8.81057194E-05  4.37084548E-10  0.00000000E+00  0.00000000E+00
 -4.60802212E-06 -1.36283072E-05  2.90004790E-10  1.24762245E-05  0.00000000E+00
 -1.94856429E-04 -3.88659384E-09 -9.73068551E-05  0.00000000E+00 -2.91225067E-05
  1.19635819E-05 -2.10155244E-05  7.16668156E-10  0.00000000E+00  0.00000000E+00
  2.15215671E-05  5.05892601E-04 -1.86758710E-04  8.23625746E-04 -1.50371515E-05
  6.53536184E-04 -1.86758710E-04  8.23625746E-04  2.15215671E-05  5.05892601E-04
  1.25577684E-02  2.34579758E-04 -1.89645760E-10  1.18332045E-04  1.77924102E-06
  3.13180943E-03  2.04854551E-09 -9.47453492E-04 -4.97739308E-04 -9.13789944E-05
 -3.60879669E-04 -2.07198948E-04 -1.60262447E-10  2.13206573E-10  4.20968995E-05
  7.03946441E-01  1.94698187E-02  8.21976699E-10  2.33553882E-05 -8.32898388E-05
 -8.92067088E-03 -2.83478547E-09 -4.43927043E-04  1.01246058E-03 -1.63346231E-03
 -1.08553736E-03 -1.26339476E-03 -1.92602565E-10 -7.86727638E-10  1.00159842E-04
  0.00000000E+00  0.00000000E+00  0.00000000E+00  0.00000000E+00 -1.76587661E-04
  0.00000000E+00  0.00000000E+00  0.00000000E+00  1.77979022E-03  0.00000000E+00
  0.00000000E+00  0.00000000E+00  0.00000000E+00  1.48942186E-09 -1.25213840E-04
 -7.03946441E-01 -1.94698187E-02 -8.21976699E-10 -2.33553882E-05 -8.32898388E-05
  8.92067088E-03  2.83478547E-09  4.43927043E-04  1.01246058E-03  1.63346231E-03
  1.08553736E-03  1.26339476E-03  1.92602565E-10 -7.86727638E-10  1.00159842E-04
 -1.25577684E-02 -2.34579758E-04  1.89645760E-10 -1.18332045E-04  1.77924102E-06
 -3.13180943E-03 -2.04854551E-09  9.47453492E-04 -4.97739308E-04  9.13789944E-05
  3.60879669E-04  2.07198948E-04  1.60262447E-10  2.13206573E-10  4.20968995E-05
  0.00000000E+00  0.00000000E+00  0.00000000E+00  0.00000000E+00 -6.73548383E-06
  0.00000000E+00  0.00000000E+00  0.00000000E+00 -5.80914895E-04  0.00000000E+00
  0.00000000E+00  0.00000000E+00  0.00000000E+00  1.76883606E-10 -5.98821108E-05
  0.00000000E+00  0.00000000E+00  0.00000000E+00  0.00000000E+00 -1.62849119E-05
  0.00000000E+00  0.00000000E+00  0.00000000E+00  1.84488401E-04  0.00000000E+00
  0.00000000E+00  0.00000000E+00  0.00000000E+00  8.30207524E-10 -4.82413310E-05
 -4.50637956E-05  5.67035602E-05 -1.39836038E-04  1.11126111E-03  0.00000000E+00
  0.00000000E+00  1.39836038E-04 -1.11126111E-03  4.50637956E-05 -5.67035602E-05
 -2.73035780E-03 -5.45496577E-05 -3.38252644E-10  5.23847995E-06  5.25830457E-06
 -2.86325527E-03 -1.87515852E-09  8.61329471E-04  1.33079057E-03  2.97986993E-05
  1.31885588E-04  6.37091428E-05 -2.01030745E-10 -1.58166818E-10  2.53153275E-05
 -2.17915968E-02 -8.52763952E-04 -4.81494050E-10  4.53199794E-05  1.77681597E-04
  6.95118545E-03  3.16310387E-09  2.97818107E-04 -2.98730973E-03 -1.00669454E-04
 -3.44316918E-04 -3.87023383E-04  1.10308987E-09  8.25867165E-10 -1.49313764E-04
  9.95194375E-01  2.78745960E-02 -3.44520112E-09  2.52903164E-04  0.00000000E+00
 -1.55181631E-02  1.38919887E-08 -3.29159077E-03  0.00000000E+00 -2.27157388E-03
 -1.81197867E-03 -1.55682624E-03  3.58759871E-10  0.00000000E+00  0.00000000E+00
 -2.17915968E-02 -8.52763952E-04 -4.81494050E-10  4.53199794E-05 -1.77681597E-04
  6.95118545E-03  3.16310387E-09  2.97818107E-04  2.98730973E-03 -1.00669454E-04
 -3.44316918E-04 -3.87023383E-04  1.10308987E-09 -8.25867165E-10  1.49313764E-04
 -2.73035780E-03 -5.45496577E-05 -3.38252644E-10  5.23847995E-06 -5.25830457E-06
 -2.86325527E-03 -1.87515852E-09  8.61329471E-04 -1.33079057E-03  2.97986993E-05
  1.31885588E-04  6.37091428E-05 -2.01030745E-10  1.58166818E-10 -2.53153275E-05
  1.43126577E-04 -1.75745712E-04 -4.31013047E-10  1.94891015E-05  0.00000000E+00
  2.19825531E-03  1.18796529E-09 -1.78465498E-03  0.00000000E+00 -7.69482521E-05
 -5.02531187E-05 -2.57127241E-05  4.84956526E-10  0.00000000E+00  0.00000000E+00
 -2.72288454E-05 -1.21996234E-04 -5.88332795E-10  1.40497068E-06  0.00000000E+00
  8.73051338E-04  5.56258080E-09 -1.65137781E-04  0.00000000E+00 -7.12506104E-05
 -6.47607571E-05 -7.45892936E-05 -7.64214138E-10  0.00000000E+00  0.00000000E+00