
    -----------------------------------------------------------------------
          Psi4: An Open-Source Ab Initio Electronic Structure Package
                               Psi4 1.3.2 release

                         Git: Rev {HEAD} ecbda83 


    R. M. Parrish, L. A. Burns, D. G. A. Smith, A. C. Simmonett,
    A. E. DePrince III, E. G. Hohenstein, U. Bozkaya, A. Yu. Sokolov,
    R. Di Remigio, R. M. Richard, J. F. Gonthier, A. M. James,
    H. R. McAlexander, A. Kumar, M. Saitow, X. Wang, B. P. Pritchard,
    P. Verma, H. F. Schaefer III, K. Patkowski, R. A. King, E. F. Valeev,
    F. A. Evangelista, J. M. Turney, T. D. Crawford, and C. D. Sherrill,
    J. Chem. Theory Comput. 13(7) pp 3185--3197 (2017).
    (doi: 10.1021/acs.jctc.7b00174)


                         Additional Contributions by
    P. Kraus, H. Kruse, M. H. Lechner, M. C. Schieber, R. A. Shaw,
    A. Alenaizan, R. Galvelis, Z. L. Glick, S. Lehtola, and J. P. Misiewicz

    -----------------------------------------------------------------------


    Psi4 started on: Wednesday, 03 February 2021 02:01AM

    Process ID: 61033
    Host:       node35.bme.utexas.edu
    PSIDATADIR: /home/xy3866/psi4conda/share/psi4
    Memory:     500.0 MiB
    Threads:    8
    
  ==> Input File <==

--------------------------------------------------------------------------
#psi4
#
memory 32 gb

molecule  {
0 1
  N        0.9996340     1.7721850     0.3204360
  N       -1.4856460     0.8456190    -0.6184330
  C        0.4210120    -0.5622280    -0.0768460
  C        1.3776751     0.4773513     0.0950733
  C       -1.0315900    -0.2881510    -0.0320430
  C        0.8423560    -1.8835050    -0.2823050
  C        2.7530010     0.0889630     0.1086070
  C        2.1912380    -2.2332610    -0.2798300
  C        3.1442100    -1.2359490    -0.0781950
  C       -1.9074690    -1.1902190     0.5957330
  C       -3.2772020    -0.9437210     0.5761060
  C        1.9752090     2.8430570     0.2492220
  C       -2.8095250     1.0776250    -0.6159580
  C       -3.7438200     0.2120800    -0.0497060
  H        0.0898220    -2.6479260    -0.4670950
  H        3.5165330     0.8472870     0.2502520
  H        0.1131400     1.9772450    -0.1334260
  H        2.4918570    -3.2637390    -0.4496120
  H        4.2036760    -1.4834020    -0.0698800
  H       -1.5082140    -2.0621420     1.1053590
  H       -3.9675240    -1.6332930     1.0562410
  H        2.5505250     2.8512150    -0.6889090
  H        2.6804910     2.7762290     1.0829750
  H        1.4421210     3.7916170     0.3400310
  H       -3.1269050     2.0013970    -1.0972120
  H       -4.8034740     0.4484120    -0.0854480
units angstrom
no_reorient  #important for SAPT in psi4, default
symmetry c1  #important for SAPT in psi4, default
}

set PROPERTIES_ORIGIN ["COM"]
properties('MP2/aug-cc-pvtz', properties = ['dipole'])
--------------------------------------------------------------------------

  Memory set to  29.802 GiB by Python driver.
    SCF Algorithm Type (re)set to DF.

*** tstart() called on node35.bme.utexas.edu
*** at Wed Feb  3 02:01:14 2021

   => Loading Basis Set <=

    Name: AUG-CC-PVTZ
    Role: ORBITAL
    Keyword: BASIS
    atoms 1-2   entry N          line   281 file /home/xy3866/psi4conda/share/psi4/basis/aug-cc-pvtz.gbs 
    atoms 3-14  entry C          line   235 file /home/xy3866/psi4conda/share/psi4/basis/aug-cc-pvtz.gbs 
    atoms 15-26 entry H          line    36 file /home/xy3866/psi4conda/share/psi4/basis/aug-cc-pvtz.gbs 


         ---------------------------------------------------------
                                   SCF
               by Justin Turney, Rob Parrish, Andy Simmonett
                          and Daniel G. A. Smith
                              RHF Reference
                        8 Threads,  30517 MiB Core
         ---------------------------------------------------------

  ==> Geometry <==

    Molecular point group: c1
    Full point group: C1

    Geometry (in Angstrom), charge = 0, multiplicity = 1:

       Center              X                  Y                   Z               Mass       
    ------------   -----------------  -----------------  -----------------  -----------------
         N            1.020675062686     1.790474492478     0.324806991693    14.003074004430
         N           -1.464604937314     0.863908492478    -0.614062008307    14.003074004430
         C            0.442053062686    -0.543938507522    -0.072475008307    12.000000000000
         C            1.398716162686     0.495640792478     0.099444291693    12.000000000000
         C           -1.010548937314    -0.269861507522    -0.027672008307    12.000000000000
         C            0.863397062686    -1.865215507522    -0.277934008307    12.000000000000
         C            2.774042062686     0.107252492478     0.112977991693    12.000000000000
         C            2.212279062686    -2.214971507522    -0.275459008307    12.000000000000
         C            3.165251062686    -1.217659507522    -0.073824008307    12.000000000000
         C           -1.886427937314    -1.171929507522     0.600103991693    12.000000000000
         C           -3.256160937314    -0.925431507522     0.580476991693    12.000000000000
         C            1.996250062686     2.861346492478     0.253592991693    12.000000000000
         C           -2.788483937314     1.095914492478    -0.611587008307    12.000000000000
         C           -3.722778937314     0.230369492478    -0.045335008307    12.000000000000
         H            0.110863062686    -2.629636507522    -0.462724008307     1.007825032230
         H            3.537574062686     0.865576492478     0.254622991693     1.007825032230
         H            0.134181062686     1.995534492478    -0.129055008307     1.007825032230
         H            2.512898062686    -3.245449507522    -0.445241008307     1.007825032230
         H            4.224717062686    -1.465112507522    -0.065509008307     1.007825032230
         H           -1.487172937314    -2.043852507522     1.109729991693     1.007825032230
         H           -3.946482937314    -1.615003507522     1.060611991693     1.007825032230
         H            2.571566062686     2.869504492478    -0.684538008307     1.007825032230
         H            2.701532062686     2.794518492478     1.087345991693     1.007825032230
         H            1.463162062686     3.809906492478     0.344401991693     1.007825032230
         H           -3.105863937314     2.019686492478    -1.092841008307     1.007825032230
         H           -4.782432937314     0.466701492478    -0.081077008307     1.007825032230

  Running in c1 symmetry.

  Rotational constants: A =      0.04051  B =      0.01733  C =      0.01266 [cm^-1]
  Rotational constants: A =   1214.39624  B =    519.46620  C =    379.41417 [MHz]
  Nuclear repulsion =  818.645852459432945

  Charge       = 0
  Multiplicity = 1
  Electrons    = 98
  Nalpha       = 49
  Nbeta        = 49

  ==> Algorithm <==

  SCF Algorithm Type is DF.
  DIIS enabled.
  MOM disabled.
  Fractional occupation disabled.
  Guess Type is SAD.
  Energy threshold   = 1.00e-10
  Density threshold  = 1.00e-10
  Integral threshold = 0.00e+00

  ==> Primary Basis <==

  Basis Set: AUG-CC-PVTZ
    Blend: AUG-CC-PVTZ
    Number of shells: 304
    Number of basis function: 920
    Number of Cartesian functions: 1070
    Spherical Harmonics?: true
    Max angular momentum: 3

   => Loading Basis Set <=

    Name: (AUG-CC-PVTZ AUX)
    Role: JKFIT
    Keyword: DF_BASIS_SCF
    atoms 1-2   entry N          line   224 file /home/xy3866/psi4conda/share/psi4/basis/aug-cc-pvtz-jkfit.gbs 
    atoms 3-14  entry C          line   162 file /home/xy3866/psi4conda/share/psi4/basis/aug-cc-pvtz-jkfit.gbs 
    atoms 15-26 entry H          line    70 file /home/xy3866/psi4conda/share/psi4/basis/aug-cc-pvtz-jkfit.gbs 

  ==> Pre-Iterations <==

   -------------------------------------------------------
    Irrep   Nso     Nmo     Nalpha   Nbeta   Ndocc  Nsocc
   -------------------------------------------------------
     A        920     920       0       0       0       0
   -------------------------------------------------------
    Total     920     920      49      49      49       0
   -------------------------------------------------------

  ==> Integral Setup <==

  DFHelper Memory: AOs need 11.613 GiB; user supplied 22.352 GiB. Using in-core AOs.

  ==> MemDFJK: Density-Fitted J/K Matrices <==

    J tasked:                   Yes
    K tasked:                   Yes
    wK tasked:                   No
    OpenMP threads:               8
    Memory [MiB]:             22888
    Algorithm:                 Disk
    Schwarz Cutoff:           1E-12
    Mask sparsity (%):      10.2668
    Fitting Condition:        1E-10

   => Auxiliary Basis Set <=

  Basis Set: (AUG-CC-PVTZ AUX)
    Blend: AUG-CC-PVTZ-JKFIT
    Number of shells: 588
    Number of basis function: 2008
    Number of Cartesian functions: 2494
    Spherical Harmonics?: true
    Max angular momentum: 4

  Minimum eigenvalue in the overlap matrix is 4.4741185283E-07.
  Using Symmetric Orthogonalization.

  SCF Guess: Superposition of Atomic Densities via on-the-fly atomic UHF.

  ==> Iterations <==

                           Total Energy        Delta E     RMS |[F,P]|

   @DF-RHF iter SAD:  -570.05612976746499   -5.70056e+02   0.00000e+00 
   @DF-RHF iter   1:  -570.12911303023475   -7.29833e-02   8.24822e-04 DIIS
   @DF-RHF iter   2:  -570.43269922547245   -3.03586e-01   3.48709e-04 DIIS
   @DF-RHF iter   3:  -570.48464335077642   -5.19441e-02   7.39319e-05 DIIS
   @DF-RHF iter   4:  -570.48851817032732   -3.87482e-03   1.77783e-05 DIIS
   @DF-RHF iter   5:  -570.48870700425300   -1.88834e-04   6.91216e-06 DIIS
   @DF-RHF iter   6:  -570.48873914138483   -3.21371e-05   2.54963e-06 DIIS
   @DF-RHF iter   7:  -570.48874531442164   -6.17304e-06   1.08486e-06 DIIS
   @DF-RHF iter   8:  -570.48874650797222   -1.19355e-06   3.74862e-07 DIIS
   @DF-RHF iter   9:  -570.48874674206922   -2.34097e-07   1.42166e-07 DIIS
   @DF-RHF iter  10:  -570.48874677964113   -3.75719e-08   8.11475e-08 DIIS
   @DF-RHF iter  11:  -570.48874679311336   -1.34722e-08   3.48521e-08 DIIS
   @DF-RHF iter  12:  -570.48874679648384   -3.37047e-09   1.70781e-08 DIIS
   @DF-RHF iter  13:  -570.48874679690448   -4.20641e-10   5.34665e-09 DIIS
   @DF-RHF iter  14:  -570.48874679694995   -4.54747e-11   1.97525e-09 DIIS
   @DF-RHF iter  15:  -570.48874679695496   -5.00222e-12   8.30646e-10 DIIS
   @DF-RHF iter  16:  -570.48874679695916   -4.20641e-12   3.38905e-10 DIIS
   @DF-RHF iter  17:  -570.48874679695939   -2.27374e-13   1.60588e-10 DIIS
   @DF-RHF iter  18:  -570.48874679695746    1.93268e-12   7.80975e-11 DIIS
  Energy and wave function converged.


  ==> Post-Iterations <==

    Orbital Energies [Eh]
    ---------------------

    Doubly Occupied:                                                      

       1A    -15.568310     2A    -15.553356     3A    -11.289059  
       4A    -11.281212     5A    -11.280958     6A    -11.262906  
       7A    -11.251110     8A    -11.241967     9A    -11.240834  
      10A    -11.237010    11A    -11.235220    12A    -11.231713  
      13A    -11.221083    14A    -11.216947    15A     -1.263974  
      16A     -1.235362    17A     -1.131049    18A     -1.088541  
      19A     -1.059729    20A     -0.996285    21A     -0.992877  
      22A     -0.918909    23A     -0.869911    24A     -0.859993  
      25A     -0.804370    26A     -0.796290    27A     -0.720441  
      28A     -0.699340    29A     -0.670548    30A     -0.658534  
      31A     -0.651001    32A     -0.623043    33A     -0.610593  
      34A     -0.601583    35A     -0.589139    36A     -0.575761  
      37A     -0.568781    38A     -0.548449    39A     -0.534110  
      40A     -0.530310    41A     -0.503435    42A     -0.498314  
      43A     -0.486643    44A     -0.424904    45A     -0.417438  
      46A     -0.387910    47A     -0.366815    48A     -0.316538  
      49A     -0.276912  

    Virtual:                                                              

      50A      0.025598    51A      0.030398    52A      0.030907  
      53A      0.039230    54A      0.040208    55A      0.047083  
      56A      0.050002    57A      0.053829    58A      0.057528  
      59A      0.066142    60A      0.069099    61A      0.076452  
      62A      0.079344    63A      0.089737    64A      0.091399  
      65A      0.095183    66A      0.098259    67A      0.106381  
      68A      0.106851    69A      0.111824    70A      0.114513  
      71A      0.117855    72A      0.118720    73A      0.121825  
      74A      0.123061    75A      0.126217    76A      0.127281  
      77A      0.130062    78A      0.131035    79A      0.136705  
      80A      0.141892    81A      0.144324    82A      0.147177  
      83A      0.151330    84A      0.153112    85A      0.156057  
      86A      0.156711    87A      0.158319    88A      0.162032  
      89A      0.165118    90A      0.169875    91A      0.172013  
      92A      0.181664    93A      0.182275    94A      0.188087  
      95A      0.190136    96A      0.195575    97A      0.197148  
      98A      0.202580    99A      0.212077   100A      0.218837  
     101A      0.220761   102A      0.224944   103A      0.232238  
     104A      0.236152   105A      0.242647   106A      0.247716  
     107A      0.248735   108A      0.254999   109A      0.256123  
     110A      0.260039   111A      0.263106   112A      0.272795  
     113A      0.274222   114A      0.277745   115A      0.281171  
     116A      0.282945   117A      0.291180   118A      0.294258  
     119A      0.297041   120A      0.297279   121A      0.302719  
     122A      0.307167   123A      0.311669   124A      0.315871  
     125A      0.316294   126A      0.317803   127A      0.321080  
     128A      0.325577   129A      0.330416   130A      0.332701  
     131A      0.336112   132A      0.338334   133A      0.343334  
     134A      0.347131   135A      0.347955   136A      0.354454  
     137A      0.358321   138A      0.361753   139A      0.365653  
     140A      0.366315   141A      0.370959   142A      0.372965  
     143A      0.379914   144A      0.385402   145A      0.390095  
     146A      0.395106   147A      0.400949   148A      0.408691  
     149A      0.410830   150A      0.414001   151A      0.418210  
     152A      0.421414   153A      0.426441   154A      0.430546  
     155A      0.434123   156A      0.436287   157A      0.437948  
     158A      0.443519   159A      0.448286   160A      0.451775  
     161A      0.453106   162A      0.459398   163A      0.462064  
     164A      0.463789   165A      0.469281   166A      0.473202  
     167A      0.476100   168A      0.479907   169A      0.481447  
     170A      0.485230   171A      0.488052   172A      0.489980  
     173A      0.492215   174A      0.493455   175A      0.495554  
     176A      0.499443   177A      0.504663   178A      0.507597  
     179A      0.510733   180A      0.514502   181A      0.515043  
     182A      0.517657   183A      0.521238   184A      0.523173  
     185A      0.527742   186A      0.528246   187A      0.531916  
     188A      0.538171   189A      0.539813   190A      0.543391  
     191A      0.544362   192A      0.548332   193A      0.550598  
     194A      0.554726   195A      0.557804   196A      0.561095  
     197A      0.562091   198A      0.564287   199A      0.571733  
     200A      0.575310   201A      0.579245   202A      0.584986  
     203A      0.588209   204A      0.595302   205A      0.596662  
     206A      0.601135   207A      0.607872   208A      0.609449  
     209A      0.613480   210A      0.617897   211A      0.620383  
     212A      0.627046   213A      0.638826   214A      0.640656  
     215A      0.648456   216A      0.654414   217A      0.656399  
     218A      0.666407   219A      0.682004   220A      0.682848  
     221A      0.688639   222A      0.694697   223A      0.700868  
     224A      0.706522   225A      0.708696   226A      0.717018  
     227A      0.719629   228A      0.722451   229A      0.729809  
     230A      0.733136   231A      0.733773   232A      0.739912  
     233A      0.749379   234A      0.750366   235A      0.751686  
     236A      0.760282   237A      0.768764   238A      0.770616  
     239A      0.775361   240A      0.780315   241A      0.790084  
     242A      0.795186   243A      0.802175   244A      0.807215  
     245A      0.809019   246A      0.809612   247A      0.816431  
     248A      0.818147   249A      0.826329   250A      0.831746  
     251A      0.832682   252A      0.839203   253A      0.843734  
     254A      0.850306   255A      0.856984   256A      0.861381  
     257A      0.867955   258A      0.870106   259A      0.874321  
     260A      0.879433   261A      0.881789   262A      0.883077  
     263A      0.887722   264A      0.896485   265A      0.898702  
     266A      0.903338   267A      0.904299   268A      0.905710  
     269A      0.910851   270A      0.912723   271A      0.917454  
     272A      0.924230   273A      0.925902   274A      0.932196  
     275A      0.938008   276A      0.938966   277A      0.946781  
     278A      0.950124   279A      0.952472   280A      0.960713  
     281A      0.971968   282A      0.974515   283A      0.978798  
     284A      0.981893   285A      0.986849   286A      0.989593  
     287A      0.994198   288A      0.998556   289A      1.001486  
     290A      1.008756   291A      1.011738   292A      1.019252  
     293A      1.020417   294A      1.026379   295A      1.031044  
     296A      1.032975   297A      1.037583   298A      1.043541  
     299A      1.046082   300A      1.053145   301A      1.056005  
     302A      1.059769   303A      1.066979   304A      1.071237  
     305A      1.071602   306A      1.076108   307A      1.083819  
     308A      1.086002   309A      1.087885   310A      1.092350  
     311A      1.096680   312A      1.104835   313A      1.109384  
     314A      1.110615   315A      1.112113   316A      1.116255  
     317A      1.121911   318A      1.124615   319A      1.126126  
     320A      1.128957   321A      1.133628   322A      1.134010  
     323A      1.140285   324A      1.145583   325A      1.150200  
     326A      1.153665   327A      1.156058   328A      1.163445  
     329A      1.165257   330A      1.167503   331A      1.173753  
     332A      1.180236   333A      1.184942   334A      1.186475  
     335A      1.192637   336A      1.197434   337A      1.199971  
     338A      1.207253   339A      1.213201   340A      1.215128  
     341A      1.218737   342A      1.225529   343A      1.229917  
     344A      1.233808   345A      1.234229   346A      1.237919  
     347A      1.242737   348A      1.248009   349A      1.248993  
     350A      1.257717   351A      1.262965   352A      1.266054  
     353A      1.268447   354A      1.276103   355A      1.278341  
     356A      1.285195   357A      1.290302   358A      1.296653  
     359A      1.306186   360A      1.307622   361A      1.313495  
     362A      1.315544   363A      1.319991   364A      1.331523  
     365A      1.337010   366A      1.341615   367A      1.353475  
     368A      1.361834   369A      1.367634   370A      1.376908  
     371A      1.378100   372A      1.382469   373A      1.395182  
     374A      1.399647   375A      1.406858   376A      1.411678  
     377A      1.415562   378A      1.422372   379A      1.430505  
     380A      1.431801   381A      1.435413   382A      1.443644  
     383A      1.451019   384A      1.453352   385A      1.463722  
     386A      1.467368   387A      1.473438   388A      1.480528  
     389A      1.486987   390A      1.500087   391A      1.502498  
     392A      1.506486   393A      1.512262   394A      1.519076  
     395A      1.527460   396A      1.531852   397A      1.535735  
     398A      1.547055   399A      1.548810   400A      1.554873  
     401A      1.561228   402A      1.567634   403A      1.570257  
     404A      1.581571   405A      1.583973   406A      1.588559  
     407A      1.595253   408A      1.601354   409A      1.605893  
     410A      1.616231   411A      1.621299   412A      1.631094  
     413A      1.637716   414A      1.644119   415A      1.650535  
     416A      1.656087   417A      1.658297   418A      1.664838  
     419A      1.676687   420A      1.678684   421A      1.687596  
     422A      1.696621   423A      1.708669   424A      1.709451  
     425A      1.716190   426A      1.724104   427A      1.725052  
     428A      1.729798   429A      1.740504   430A      1.749854  
     431A      1.753759   432A      1.762123   433A      1.763445  
     434A      1.765509   435A      1.780191   436A      1.790002  
     437A      1.793973   438A      1.800076   439A      1.807977  
     440A      1.812411   441A      1.818745   442A      1.825619  
     443A      1.828195   444A      1.836296   445A      1.838234  
     446A      1.843268   447A      1.859897   448A      1.862840  
     449A      1.864565   450A      1.872641   451A      1.880217  
     452A      1.883037   453A      1.889933   454A      1.903526  
     455A      1.909620   456A      1.914003   457A      1.916538  
     458A      1.922045   459A      1.928914   460A      1.935844  
     461A      1.945306   462A      1.949491   463A      1.955008  
     464A      1.975241   465A      1.976555   466A      1.983588  
     467A      1.992467   468A      1.996132   469A      2.003984  
     470A      2.004546   471A      2.015915   472A      2.020975  
     473A      2.029550   474A      2.030715   475A      2.039607  
     476A      2.050415   477A      2.053445   478A      2.061175  
     479A      2.062560   480A      2.069484   481A      2.076215  
     482A      2.087012   483A      2.087861   484A      2.100788  
     485A      2.109301   486A      2.112836   487A      2.125963  
     488A      2.127987   489A      2.134037   490A      2.138664  
     491A      2.148757   492A      2.153067   493A      2.157720  
     494A      2.163967   495A      2.179468   496A      2.183054  
     497A      2.188305   498A      2.189859   499A      2.209709  
     500A      2.217136   501A      2.218622   502A      2.225620  
     503A      2.229783   504A      2.240096   505A      2.251296  
     506A      2.255061   507A      2.259666   508A      2.265913  
     509A      2.271001   510A      2.276713   511A      2.284316  
     512A      2.295611   513A      2.301571   514A      2.305279  
     515A      2.318804   516A      2.324299   517A      2.338031  
     518A      2.346880   519A      2.363762   520A      2.370034  
     521A      2.374687   522A      2.383409   523A      2.390241  
     524A      2.403822   525A      2.408441   526A      2.423441  
     527A      2.429980   528A      2.431243   529A      2.440838  
     530A      2.446805   531A      2.457016   532A      2.469690  
     533A      2.475887   534A      2.496747   535A      2.500352  
     536A      2.516927   537A      2.528453   538A      2.540153  
     539A      2.542783   540A      2.549056   541A      2.556307  
     542A      2.564666   543A      2.578279   544A      2.590342  
     545A      2.594672   546A      2.615927   547A      2.628010  
     548A      2.638485   549A      2.648804   550A      2.650310  
     551A      2.670249   552A      2.676111   553A      2.692402  
     554A      2.705348   555A      2.716611   556A      2.741540  
     557A      2.744749   558A      2.750112   559A      2.760990  
     560A      2.768156   561A      2.784804   562A      2.802977  
     563A      2.815658   564A      2.819235   565A      2.840552  
     566A      2.867725   567A      2.884103   568A      2.900064  
     569A      2.906412   570A      2.909552   571A      2.935911  
     572A      2.941244   573A      2.987287   574A      2.994684  
     575A      3.024023   576A      3.042301   577A      3.065602  
     578A      3.082149   579A      3.117538   580A      3.127064  
     581A      3.132156   582A      3.148189   583A      3.170312  
     584A      3.175870   585A      3.207255   586A      3.232399  
     587A      3.246552   588A      3.264888   589A      3.273085  
     590A      3.289202   591A      3.300294   592A      3.313185  
     593A      3.313927   594A      3.345513   595A      3.350264  
     596A      3.355381   597A      3.367346   598A      3.387593  
     599A      3.404379   600A      3.408442   601A      3.422823  
     602A      3.431045   603A      3.440730   604A      3.442293  
     605A      3.448020   606A      3.457888   607A      3.471375  
     608A      3.481965   609A      3.486898   610A      3.496951  
     611A      3.505206   612A      3.508276   613A      3.525393  
     614A      3.530149   615A      3.533450   616A      3.542152  
     617A      3.546341   618A      3.557171   619A      3.561146  
     620A      3.574709   621A      3.575173   622A      3.577941  
     623A      3.589993   624A      3.597482   625A      3.604678  
     626A      3.608037   627A      3.620822   628A      3.626263  
     629A      3.635317   630A      3.644988   631A      3.657432  
     632A      3.662324   633A      3.670371   634A      3.678064  
     635A      3.688856   636A      3.696218   637A      3.709895  
     638A      3.714434   639A      3.727120   640A      3.728847  
     641A      3.733108   642A      3.739395   643A      3.748269  
     644A      3.751658   645A      3.769693   646A      3.777714  
     647A      3.782626   648A      3.793786   649A      3.797295  
     650A      3.803257   651A      3.815235   652A      3.827548  
     653A      3.839208   654A      3.845995   655A      3.847294  
     656A      3.858954   657A      3.868362   658A      3.870262  
     659A      3.881197   660A      3.888190   661A      3.891160  
     662A      3.902800   663A      3.912797   664A      3.921138  
     665A      3.926381   666A      3.940994   667A      3.944754  
     668A      3.948891   669A      3.949615   670A      3.959560  
     671A      3.967869   672A      3.969557   673A      3.981180  
     674A      3.987142   675A      3.997625   676A      3.999759  
     677A      4.014602   678A      4.022404   679A      4.028617  
     680A      4.036735   681A      4.041112   682A      4.050890  
     683A      4.057327   684A      4.060615   685A      4.071521  
     686A      4.076498   687A      4.081833   688A      4.090583  
     689A      4.106573   690A      4.115537   691A      4.118309  
     692A      4.127080   693A      4.135263   694A      4.143427  
     695A      4.147042   696A      4.155555   697A      4.170534  
     698A      4.176694   699A      4.188271   700A      4.191734  
     701A      4.195921   702A      4.200515   703A      4.217139  
     704A      4.227931   705A      4.245172   706A      4.245793  
     707A      4.251123   708A      4.256489   709A      4.258056  
     710A      4.264374   711A      4.273034   712A      4.290120  
     713A      4.298934   714A      4.312216   715A      4.320687  
     716A      4.323742   717A      4.331389   718A      4.336187  
     719A      4.341844   720A      4.355619   721A      4.359271  
     722A      4.362977   723A      4.377346   724A      4.385920  
     725A      4.394663   726A      4.395800   727A      4.405385  
     728A      4.410855   729A      4.419171   730A      4.431248  
     731A      4.437927   732A      4.448424   733A      4.456329  
     734A      4.461426   735A      4.469306   736A      4.476940  
     737A      4.484185   738A      4.488398   739A      4.504486  
     740A      4.508313   741A      4.519117   742A      4.532067  
     743A      4.545977   744A      4.551020   745A      4.568709  
     746A      4.576605   747A      4.587225   748A      4.594698  
     749A      4.601330   750A      4.603678   751A      4.616355  
     752A      4.639306   753A      4.651091   754A      4.657967  
     755A      4.668845   756A      4.678410   757A      4.700780  
     758A      4.720628   759A      4.725412   760A      4.736583  
     761A      4.743162   762A      4.752529   763A      4.757926  
     764A      4.764463   765A      4.771733   766A      4.783410  
     767A      4.791038   768A      4.809796   769A      4.814050  
     770A      4.825229   771A      4.832538   772A      4.841585  
     773A      4.857269   774A      4.865204   775A      4.880508  
     776A      4.891943   777A      4.909148   778A      4.916405  
     779A      4.924983   780A      4.943293   781A      4.957281  
     782A      4.963081   783A      4.964553   784A      4.976763  
     785A      4.989986   786A      5.001264   787A      5.010212  
     788A      5.013658   789A      5.020172   790A      5.041054  
     791A      5.047105   792A      5.051107   793A      5.075104  
     794A      5.082698   795A      5.088662   796A      5.096189  
     797A      5.105073   798A      5.110376   799A      5.116238  
     800A      5.131391   801A      5.143042   802A      5.153554  
     803A      5.158845   804A      5.173026   805A      5.180884  
     806A      5.185973   807A      5.191709   808A      5.212981  
     809A      5.220542   810A      5.229393   811A      5.241291  
     812A      5.247410   813A      5.252444   814A      5.261232  
     815A      5.271998   816A      5.275619   817A      5.309358  
     818A      5.314388   819A      5.321127   820A      5.331834  
     821A      5.345613   822A      5.368831   823A      5.391311  
     824A      5.405183   825A      5.410879   826A      5.437279  
     827A      5.453900   828A      5.469067   829A      5.494346  
     830A      5.514055   831A      5.524277   832A      5.528933  
     833A      5.545883   834A      5.556105   835A      5.557188  
     836A      5.562982   837A      5.570241   838A      5.605364  
     839A      5.630391   840A      5.635936   841A      5.649890  
     842A      5.660561   843A      5.685525   844A      5.689744  
     845A      5.694409   846A      5.710141   847A      5.738444  
     848A      5.746336   849A      5.753562   850A      5.795645  
     851A      5.804130   852A      5.844720   853A      5.861582  
     854A      5.869223   855A      5.905624   856A      5.918313  
     857A      5.928215   858A      5.958733   859A      5.968767  
     860A      5.978481   861A      6.003880   862A      6.037603  
     863A      6.083955   864A      6.125537   865A      6.142803  
     866A      6.159681   867A      6.187128   868A      6.188230  
     869A      6.194246   870A      6.217099   871A      6.231840  
     872A      6.239356   873A      6.268033   874A      6.279069  
     875A      6.307741   876A      6.341599   877A      6.361498  
     878A      6.387684   879A      6.405393   880A      6.448338  
     881A      6.495672   882A      6.510139   883A      6.549527  
     884A      6.563454   885A      6.623912   886A      6.646579  
     887A      6.668293   888A      6.728148   889A      6.747702  
     890A      6.784436   891A      6.807599   892A      6.815340  
     893A      6.858261   894A      6.898559   895A      6.915809  
     896A      6.959789   897A      6.999618   898A      7.038387  
     899A      7.083296   900A      7.096608   901A      7.132274  
     902A      7.172030   903A      7.290342   904A      7.370863  
     905A      7.456393   906A      7.748927   907A     15.851787  
     908A     16.253476   909A     16.352886   910A     16.818215  
     911A     17.869809   912A     18.474498   913A     19.014920  
     914A     19.359228   915A     19.505319   916A     19.538083  
     917A     20.005155   918A     20.239998   919A     21.035584  
     920A     21.935983  

    Final Occupation by Irrep:
              A 
    DOCC [    49 ]

  @DF-RHF Final Energy:  -570.48874679695746

   => Energetics <=

    Nuclear Repulsion Energy =            818.6458524594329447
    One-Electron Energy =               -2397.4901686682992477
    Two-Electron Energy =                1008.3555694119088457
    Total Energy =                       -570.4887467969574573

Computation Completed

*** tstop() called on node35.bme.utexas.edu at Wed Feb  3 02:08:53 2021
Module time:
	user time   =    1628.69 seconds =      27.14 minutes
	system time =     313.18 seconds =       5.22 minutes
	total time  =        459 seconds =       7.65 minutes
Total time:
	user time   =    1628.69 seconds =      27.14 minutes
	system time =     313.18 seconds =       5.22 minutes
	total time  =        459 seconds =       7.65 minutes
   => Loading Basis Set <=

    Name: (AUG-CC-PVTZ AUX)
    Role: RIFIT
    Keyword: DF_BASIS_MP2
    atoms 1-2   entry N          line   206 file /home/xy3866/psi4conda/share/psi4/basis/aug-cc-pvtz-ri.gbs 
    atoms 3-14  entry C          line   148 file /home/xy3866/psi4conda/share/psi4/basis/aug-cc-pvtz-ri.gbs 
    atoms 15-26 entry H          line    30 file /home/xy3866/psi4conda/share/psi4/basis/aug-cc-pvtz-ri.gbs 


*** tstart() called on node35.bme.utexas.edu
*** at Wed Feb  3 02:08:54 2021


  //>>>>>>>>>>>>>>>>>>>>>>>>>>>>>>>>>>>//
  //               DFMP2               //
  //<<<<<<<<<<<<<<<<<<<<<<<<<<<<<<<<<<<//

	 --------------------------------------------------------
	                          DF-MP2                         
	      2nd-Order Density-Fitted Moller-Plesset Theory     
	              RMP2 Wavefunction,   8 Threads             
	                                                         
	        Rob Parrish, Justin Turney, Andy Simmonett,      
	           Ed Hohenstein, and C. David Sherrill          
	 --------------------------------------------------------

   => Auxiliary Basis Set <=

  Basis Set: (AUG-CC-PVTZ AUX)
    Blend: AUG-CC-PVTZ-RI
    Number of shells: 560
    Number of basis function: 2036
    Number of Cartesian functions: 2564
    Spherical Harmonics?: true
    Max angular momentum: 4

	 --------------------------------------------------------
	                 NBF =   920, NAUX =  2036
	 --------------------------------------------------------
	   CLASS    FOCC     OCC    AOCC    AVIR     VIR    FVIR
	   PAIRS       0      49      49     871     871       0
	 --------------------------------------------------------

  DFHelper Memory: AOs need 11.613 GiB; user supplied 22.352 GiB. Using in-core AOs.


         ------------------------------------------------------------
                                     CPHF                           
                                  Rob Parrish                       
         ------------------------------------------------------------

  ==> Geometry <==

    Molecular point group: c1
    Full point group: C1

    Geometry (in Angstrom), charge = 0, multiplicity = 1:

       Center              X                  Y                   Z               Mass       
    ------------   -----------------  -----------------  -----------------  -----------------
         N            1.020675062686     1.790474492478     0.324806991693    14.003074004430
         N           -1.464604937314     0.863908492478    -0.614062008307    14.003074004430
         C            0.442053062686    -0.543938507522    -0.072475008307    12.000000000000
         C            1.398716162686     0.495640792478     0.099444291693    12.000000000000
         C           -1.010548937314    -0.269861507522    -0.027672008307    12.000000000000
         C            0.863397062686    -1.865215507522    -0.277934008307    12.000000000000
         C            2.774042062686     0.107252492478     0.112977991693    12.000000000000
         C            2.212279062686    -2.214971507522    -0.275459008307    12.000000000000
         C            3.165251062686    -1.217659507522    -0.073824008307    12.000000000000
         C           -1.886427937314    -1.171929507522     0.600103991693    12.000000000000
         C           -3.256160937314    -0.925431507522     0.580476991693    12.000000000000
         C            1.996250062686     2.861346492478     0.253592991693    12.000000000000
         C           -2.788483937314     1.095914492478    -0.611587008307    12.000000000000
         C           -3.722778937314     0.230369492478    -0.045335008307    12.000000000000
         H            0.110863062686    -2.629636507522    -0.462724008307     1.007825032230
         H            3.537574062686     0.865576492478     0.254622991693     1.007825032230
         H            0.134181062686     1.995534492478    -0.129055008307     1.007825032230
         H            2.512898062686    -3.245449507522    -0.445241008307     1.007825032230
         H            4.224717062686    -1.465112507522    -0.065509008307     1.007825032230
         H           -1.487172937314    -2.043852507522     1.109729991693     1.007825032230
         H           -3.946482937314    -1.615003507522     1.060611991693     1.007825032230
         H            2.571566062686     2.869504492478    -0.684538008307     1.007825032230
         H            2.701532062686     2.794518492478     1.087345991693     1.007825032230
         H            1.463162062686     3.809906492478     0.344401991693     1.007825032230
         H           -3.105863937314     2.019686492478    -1.092841008307     1.007825032230
         H           -4.782432937314     0.466701492478    -0.081077008307     1.007825032230

  Nuclear repulsion =  818.645852459432945
  Reference energy  = -570.488746796957457

  ==> Basis Set <==

  Basis Set: AUG-CC-PVTZ
    Blend: AUG-CC-PVTZ
    Number of shells: 304
    Number of basis function: 920
    Number of Cartesian functions: 1070
    Spherical Harmonics?: true
    Max angular momentum: 3

  ==> CGRSolver (by Rob Parrish) <==

   Number of roots    =         1
   Preconditioning    =    JACOBI
   Convergence cutoff =     1E-06
   Maximum iterations =       100

  ==> CPHFRHamiltonian (by Rob Parrish) <== 

  ==> MemDFJK: Density-Fitted J/K Matrices <==

    J tasked:                   Yes
    K tasked:                   Yes
    wK tasked:                   No
    OpenMP threads:               8
    Memory [MiB]:             22888
    Algorithm:                 Disk
    Schwarz Cutoff:           1E-12
    Mask sparsity (%):      10.2668
    Fitting Condition:        1E-10

   => Auxiliary Basis Set <=

  Basis Set: (AUG-CC-PVTZ AUX)
    Blend: AUG-CC-PVTZ-JKFIT
    Number of shells: 588
    Number of basis function: 2008
    Number of Cartesian functions: 2494
    Spherical Harmonics?: true
    Max angular momentum: 4

  ==> CPHF Iterations <==

  => Iterations <=

             Iter  Converged  Remaining    Residual
  CGR           1          0          1   9.422E-02
  CGR           2          0          1   3.999E-02
  CGR           3          0          1   2.565E-02
  CGR           4          0          1   9.829E-03
  CGR           5          0          1   4.082E-03
  CGR           6          0          1   1.742E-03
  CGR           7          0          1   5.552E-04
  CGR           8          0          1   1.941E-04
  CGR           9          0          1   8.107E-05
  CGR          10          0          1   3.632E-05
  CGR          11          0          1   1.797E-05
  CGR          12          0          1   6.470E-06
  CGR          13          0          1   2.886E-06
  CGR          14          1          0   8.424E-07

    CGRSolver converged.

	-----------------------------------------------------------
	 ==================> DF-MP2 Energies <==================== 
	-----------------------------------------------------------
	 Reference Energy          =    -570.4887467969574573 [Eh]
	 Singles Energy            =      -0.0000000000000000 [Eh]
	 Same-Spin Energy          =      -0.6396398263428521 [Eh]
	 Opposite-Spin Energy      =      -1.9766129990141015 [Eh]
	 Correlation Energy        =      -2.6162528253569537 [Eh]
	 Total Energy              =    -573.1049996223143808 [Eh]
	-----------------------------------------------------------
	 ================> DF-SCS-MP2 Energies <================== 
	-----------------------------------------------------------
	 SCS Same-Spin Scale       =       0.3333333333333333 [-]
	 SCS Opposite-Spin Scale   =       1.2000000000000000 [-]
	 SCS Same-Spin Energy      =      -0.2132132754476174 [Eh]
	 SCS Opposite-Spin Energy  =      -2.3719355988169215 [Eh]
	 SCS Correlation Energy    =      -2.5851488742645388 [Eh]
	 SCS Total Energy          =    -573.0738956712219760 [Eh]
	-----------------------------------------------------------



Properties will be evaluated at  -0.000000,   0.000000,  -0.000000 [a0]

Properties computed using the MP2 density matrix

  Nuclear Dipole Moment: [e a0]
     X:     3.6898      Y:     3.5756      Z:     0.8406

  Electronic Dipole Moment: [e a0]
     X:    -4.3821      Y:    -3.4511      Z:    -0.6875

  Dipole Moment: [e a0]
     X:    -0.6923      Y:     0.1245      Z:     0.1531     Total:     0.7199

  Dipole Moment: [D]
     X:    -1.7596      Y:     0.3165      Z:     0.3891     Total:     1.8297


*** tstop() called on node35.bme.utexas.edu at Wed Feb  3 02:29:35 2021
Module time:
	user time   =    6473.66 seconds =     107.89 minutes
	system time =     790.14 seconds =      13.17 minutes
	total time  =       1241 seconds =      20.68 minutes
Total time:
	user time   =    8102.72 seconds =     135.05 minutes
	system time =    1103.33 seconds =      18.39 minutes
	total time  =       1701 seconds =      28.35 minutes

    Psi4 stopped on: Wednesday, 03 February 2021 02:29AM
    Psi4 wall time for execution: 0:28:22.12

*** Psi4 exiting successfully. Buy a developer a beer!
