154_2-Methyl-1-butene Gaussian SP Calculation on node35.bme.utexas.edu  
Freq      RMP2-FC                                                     6-31G(d)            
Number of atoms                            I               15
Info1-9                                    I   N=           9
          26          25        1002           0           0         100
           6           2           1
Charge                                     I                0
Multiplicity                               I                1
Number of electrons                        I               40
Number of alpha electrons                  I               20
Number of beta electrons                   I               20
Number of basis functions                  I               95
Number of independent functions            I               95
Number of point charges in /Mol/           I                0
Number of translation vectors              I                0
Atomic numbers                             I   N=          15
           6           6           6           6           6           1
           1           1           1           1           1           1
           1           1           1
Nuclear charges                            R   N=          15
  6.00000000E+00  6.00000000E+00  6.00000000E+00  6.00000000E+00  6.00000000E+00
  1.00000000E+00  1.00000000E+00  1.00000000E+00  1.00000000E+00  1.00000000E+00
  1.00000000E+00  1.00000000E+00  1.00000000E+00  1.00000000E+00  1.00000000E+00
Current cartesian coordinates              R   N=          45
  1.54807751E+00 -8.01869067E-01  1.07079391E+00 -1.09943639E+00 -2.17928455E-01
  1.93891394E-01  3.58736876E+00  1.49820335E-01 -7.50783742E-01 -1.82997256E+00
  2.52805935E+00  5.40867914E-02 -2.71884787E+00 -2.06184798E+00 -4.43817772E-01
  1.85280699E+00  5.42414049E-02  2.93739924E+00  1.74613679E+00 -2.84865995E+00
  1.31468998E+00  3.55447787E+00  2.20809606E+00 -9.21521830E-01  5.46981115E+00
 -3.95190845E-01 -9.23752613E-02  3.30378876E+00 -6.55300530E-01 -2.63326843E+00
 -3.81977199E+00  2.74586339E+00 -4.56432519E-01 -1.52050253E+00  3.46149495E+00
  1.87744323E+00 -6.96796847E-01  3.54544281E+00 -1.34717860E+00 -2.18815153E+00
 -4.04195539E+00 -3.37761928E-01 -4.62493531E+00 -1.65143704E+00 -1.08601735E+00
Force Field                                I                0
Int Atom Types                             I   N=          15
           0           0           0           0           0           0
           0           0           0           0           0           0
           0           0           0
MM charges                                 R   N=          15
  0.00000000E+00  0.00000000E+00  0.00000000E+00  0.00000000E+00  0.00000000E+00
  0.00000000E+00  0.00000000E+00  0.00000000E+00  0.00000000E+00  0.00000000E+00
  0.00000000E+00  0.00000000E+00  0.00000000E+00  0.00000000E+00  0.00000000E+00
Integer atomic weights                     I   N=          15
          12          12          12          12          12           1
           1           1           1           1           1           1
           1           1           1
Real atomic weights                        R   N=          15
  1.20000000E+01  1.20000000E+01  1.20000000E+01  1.20000000E+01  1.20000000E+01
  1.00782504E+00  1.00782504E+00  1.00782504E+00  1.00782504E+00  1.00782504E+00
  1.00782504E+00  1.00782504E+00  1.00782504E+00  1.00782504E+00  1.00782504E+00
Atom fragment info                         I   N=          15
           0           0           0           0           0           0
           0           0           0           0           0           0
           0           0           0
Atom residue num                           I   N=          15
           0           0           0           0           0           0
           0           0           0           0           0           0
           0           0           0
Nuclear spins                              I   N=          15
           0           0           0           0           0           1
           1           1           1           1           1           1
           1           1           1
Nuclear ZEff                               R   N=          15
 -3.60000000E+00 -3.60000000E+00 -3.60000000E+00 -3.60000000E+00 -3.60000000E+00
 -1.00000000E+00 -1.00000000E+00 -1.00000000E+00 -1.00000000E+00 -1.00000000E+00
 -1.00000000E+00 -1.00000000E+00 -1.00000000E+00 -1.00000000E+00 -1.00000000E+00
Nuclear QMom                               R   N=          15
  0.00000000E+00  0.00000000E+00  0.00000000E+00  0.00000000E+00  0.00000000E+00
  0.00000000E+00  0.00000000E+00  0.00000000E+00  0.00000000E+00  0.00000000E+00
  0.00000000E+00  0.00000000E+00  0.00000000E+00  0.00000000E+00  0.00000000E+00
Nuclear GFac                               R   N=          15
  0.00000000E+00  0.00000000E+00  0.00000000E+00  0.00000000E+00  0.00000000E+00
  2.79284600E+00  2.79284600E+00  2.79284600E+00  2.79284600E+00  2.79284600E+00
  2.79284600E+00  2.79284600E+00  2.79284600E+00  2.79284600E+00  2.79284600E+00
MicOpt                                     I   N=          15
          -1          -1          -1          -1          -1          -1
          -1          -1          -1          -1          -1          -1
          -1          -1          -1
Number of contracted shells                I               40
Number of primitive shells                 I               95
Pure/Cartesian d shells                    I                1
Pure/Cartesian f shells                    I                0
Highest angular momentum                   I                2
Largest degree of contraction              I                6
Shell types                                I   N=          40
           0          -1          -1           2           0          -1
          -1           2           0          -1          -1           2
           0          -1          -1           2           0          -1
          -1           2           0           0           0           0
           0           0           0           0           0           0
           0           0           0           0           0           0
           0           0           0           0
Number of primitives per shell             I   N=          40
           6           3           1           1           6           3
           1           1           6           3           1           1
           6           3           1           1           6           3
           1           1           3           1           3           1
           3           1           3           1           3           1
           3           1           3           1           3           1
           3           1           3           1
Shell to atom map                          I   N=          40
           1           1           1           1           2           2
           2           2           3           3           3           3
           4           4           4           4           5           5
           5           5           6           6           7           7
           8           8           9           9          10          10
          11          11          12          12          13          13
          14          14          15          15
Primitive exponents                        R   N=          95
  3.04752488E+03  4.57369518E+02  1.03948685E+02  2.92101553E+01  9.28666296E+00
  3.16392696E+00  7.86827235E+00  1.88128854E+00  5.44249258E-01  1.68714478E-01
  8.00000000E-01  3.04752488E+03  4.57369518E+02  1.03948685E+02  2.92101553E+01
  9.28666296E+00  3.16392696E+00  7.86827235E+00  1.88128854E+00  5.44249258E-01
  1.68714478E-01  8.00000000E-01  3.04752488E+03  4.57369518E+02  1.03948685E+02
  2.92101553E+01  9.28666296E+00  3.16392696E+00  7.86827235E+00  1.88128854E+00
  5.44249258E-01  1.68714478E-01  8.00000000E-01  3.04752488E+03  4.57369518E+02
  1.03948685E+02  2.92101553E+01  9.28666296E+00  3.16392696E+00  7.86827235E+00
  1.88128854E+00  5.44249258E-01  1.68714478E-01  8.00000000E-01  3.04752488E+03
  4.57369518E+02  1.03948685E+02  2.92101553E+01  9.28666296E+00  3.16392696E+00
  7.86827235E+00  1.88128854E+00  5.44249258E-01  1.68714478E-01  8.00000000E-01
  1.87311370E+01  2.82539436E+00  6.40121692E-01  1.61277759E-01  1.87311370E+01
  2.82539436E+00  6.40121692E-01  1.61277759E-01  1.87311370E+01  2.82539436E+00
  6.40121692E-01  1.61277759E-01  1.87311370E+01  2.82539436E+00  6.40121692E-01
  1.61277759E-01  1.87311370E+01  2.82539436E+00  6.40121692E-01  1.61277759E-01
  1.87311370E+01  2.82539436E+00  6.40121692E-01  1.61277759E-01  1.87311370E+01
  2.82539436E+00  6.40121692E-01  1.61277759E-01  1.87311370E+01  2.82539436E+00
  6.40121692E-01  1.61277759E-01  1.87311370E+01  2.82539436E+00  6.40121692E-01
  1.61277759E-01  1.87311370E+01  2.82539436E+00  6.40121692E-01  1.61277759E-01
Contraction coefficients                   R   N=          95
  1.83473713E-03  1.40373228E-02  6.88426223E-02  2.32184443E-01  4.67941348E-01
  3.62311985E-01 -1.19332420E-01 -1.60854152E-01  1.14345644E+00  1.00000000E+00
  1.00000000E+00  1.83473713E-03  1.40373228E-02  6.88426223E-02  2.32184443E-01
  4.67941348E-01  3.62311985E-01 -1.19332420E-01 -1.60854152E-01  1.14345644E+00
  1.00000000E+00  1.00000000E+00  1.83473713E-03  1.40373228E-02  6.88426223E-02
  2.32184443E-01  4.67941348E-01  3.62311985E-01 -1.19332420E-01 -1.60854152E-01
  1.14345644E+00  1.00000000E+00  1.00000000E+00  1.83473713E-03  1.40373228E-02
  6.88426223E-02  2.32184443E-01  4.67941348E-01  3.62311985E-01 -1.19332420E-01
 -1.60854152E-01  1.14345644E+00  1.00000000E+00  1.00000000E+00  1.83473713E-03
  1.40373228E-02  6.88426223E-02  2.32184443E-01  4.67941348E-01  3.62311985E-01
 -1.19332420E-01 -1.60854152E-01  1.14345644E+00  1.00000000E+00  1.00000000E+00
  3.34946043E-02  2.34726953E-01  8.13757326E-01  1.00000000E+00  3.34946043E-02
  2.34726953E-01  8.13757326E-01  1.00000000E+00  3.34946043E-02  2.34726953E-01
  8.13757326E-01  1.00000000E+00  3.34946043E-02  2.34726953E-01  8.13757326E-01
  1.00000000E+00  3.34946043E-02  2.34726953E-01  8.13757326E-01  1.00000000E+00
  3.34946043E-02  2.34726953E-01  8.13757326E-01  1.00000000E+00  3.34946043E-02
  2.34726953E-01  8.13757326E-01  1.00000000E+00  3.34946043E-02  2.34726953E-01
  8.13757326E-01  1.00000000E+00  3.34946043E-02  2.34726953E-01  8.13757326E-01
  1.00000000E+00  3.34946043E-02  2.34726953E-01  8.13757326E-01  1.00000000E+00
P(S=P) Contraction coefficients            R   N=          95
  0.00000000E+00  0.00000000E+00  0.00000000E+00  0.00000000E+00  0.00000000E+00
  0.00000000E+00  6.89990666E-02  3.16423961E-01  7.44308291E-01  1.00000000E+00
  0.00000000E+00  0.00000000E+00  0.00000000E+00  0.00000000E+00  0.00000000E+00
  0.00000000E+00  0.00000000E+00  6.89990666E-02  3.16423961E-01  7.44308291E-01
  1.00000000E+00  0.00000000E+00  0.00000000E+00  0.00000000E+00  0.00000000E+00
  0.00000000E+00  0.00000000E+00  0.00000000E+00  6.89990666E-02  3.16423961E-01
  7.44308291E-01  1.00000000E+00  0.00000000E+00  0.00000000E+00  0.00000000E+00
  0.00000000E+00  0.00000000E+00  0.00000000E+00  0.00000000E+00  6.89990666E-02
  3.16423961E-01  7.44308291E-01  1.00000000E+00  0.00000000E+00  0.00000000E+00
  0.00000000E+00  0.00000000E+00  0.00000000E+00  0.00000000E+00  0.00000000E+00
  6.89990666E-02  3.16423961E-01  7.44308291E-01  1.00000000E+00  0.00000000E+00
  0.00000000E+00  0.00000000E+00  0.00000000E+00  0.00000000E+00  0.00000000E+00
  0.00000000E+00  0.00000000E+00  0.00000000E+00  0.00000000E+00  0.00000000E+00
  0.00000000E+00  0.00000000E+00  0.00000000E+00  0.00000000E+00  0.00000000E+00
  0.00000000E+00  0.00000000E+00  0.00000000E+00  0.00000000E+00  0.00000000E+00
  0.00000000E+00  0.00000000E+00  0.00000000E+00  0.00000000E+00  0.00000000E+00
  0.00000000E+00  0.00000000E+00  0.00000000E+00  0.00000000E+00  0.00000000E+00
  0.00000000E+00  0.00000000E+00  0.00000000E+00  0.00000000E+00  0.00000000E+00
  0.00000000E+00  0.00000000E+00  0.00000000E+00  0.00000000E+00  0.00000000E+00
Coordinates of each shell                  R   N=         120
  1.54807751E+00 -8.01869067E-01  1.07079391E+00  1.54807751E+00 -8.01869067E-01
  1.07079391E+00  1.54807751E+00 -8.01869067E-01  1.07079391E+00  1.54807751E+00
 -8.01869067E-01  1.07079391E+00 -1.09943639E+00 -2.17928455E-01  1.93891394E-01
 -1.09943639E+00 -2.17928455E-01  1.93891394E-01 -1.09943639E+00 -2.17928455E-01
  1.93891394E-01 -1.09943639E+00 -2.17928455E-01  1.93891394E-01  3.58736876E+00
  1.49820335E-01 -7.50783742E-01  3.58736876E+00  1.49820335E-01 -7.50783742E-01
  3.58736876E+00  1.49820335E-01 -7.50783742E-01  3.58736876E+00  1.49820335E-01
 -7.50783742E-01 -1.82997256E+00  2.52805935E+00  5.40867914E-02 -1.82997256E+00
  2.52805935E+00  5.40867914E-02 -1.82997256E+00  2.52805935E+00  5.40867914E-02
 -1.82997256E+00  2.52805935E+00  5.40867914E-02 -2.71884787E+00 -2.06184798E+00
 -4.43817772E-01 -2.71884787E+00 -2.06184798E+00 -4.43817772E-01 -2.71884787E+00
 -2.06184798E+00 -4.43817772E-01 -2.71884787E+00 -2.06184798E+00 -4.43817772E-01
  1.85280699E+00  5.42414049E-02  2.93739924E+00  1.85280699E+00  5.42414049E-02
  2.93739924E+00  1.74613679E+00 -2.84865995E+00  1.31468998E+00  1.74613679E+00
 -2.84865995E+00  1.31468998E+00  3.55447787E+00  2.20809606E+00 -9.21521830E-01
  3.55447787E+00  2.20809606E+00 -9.21521830E-01  5.46981115E+00 -3.95190845E-01
 -9.23752613E-02  5.46981115E+00 -3.95190845E-01 -9.23752613E-02  3.30378876E+00
 -6.55300530E-01 -2.63326843E+00  3.30378876E+00 -6.55300530E-01 -2.63326843E+00
 -3.81977199E+00  2.74586339E+00 -4.56432519E-01 -3.81977199E+00  2.74586339E+00
 -4.56432519E-01 -1.52050253E+00  3.46149495E+00  1.87744323E+00 -1.52050253E+00
  3.46149495E+00  1.87744323E+00 -6.96796847E-01  3.54544281E+00 -1.34717860E+00
 -6.96796847E-01  3.54544281E+00 -1.34717860E+00 -2.18815153E+00 -4.04195539E+00
 -3.37761928E-01 -2.18815153E+00 -4.04195539E+00 -3.37761928E-01 -4.62493531E+00
 -1.65143704E+00 -1.08601735E+00 -4.62493531E+00 -1.65143704E+00 -1.08601735E+00
Constraint Structure                       R   N=          45
  1.54807751E+00 -8.01869067E-01  1.07079391E+00 -1.09943639E+00 -2.17928455E-01
  1.93891394E-01  3.58736876E+00  1.49820335E-01 -7.50783742E-01 -1.82997256E+00
  2.52805935E+00  5.40867914E-02 -2.71884787E+00 -2.06184798E+00 -4.43817772E-01
  1.85280699E+00  5.42414049E-02  2.93739924E+00  1.74613679E+00 -2.84865995E+00
  1.31468998E+00  3.55447787E+00  2.20809606E+00 -9.21521830E-01  5.46981115E+00
 -3.95190845E-01 -9.23752613E-02  3.30378876E+00 -6.55300530E-01 -2.63326843E+00
 -3.81977199E+00  2.74586339E+00 -4.56432519E-01 -1.52050253E+00  3.46149495E+00
  1.87744323E+00 -6.96796847E-01  3.54544281E+00 -1.34717860E+00 -2.18815153E+00
 -4.04195539E+00 -3.37761928E-01 -4.62493531E+00 -1.65143704E+00 -1.08601735E+00
Num ILSW                                   I              100
ILSW                                       I   N=         100
           0           1           0           0           2           0
           0           0           0           0           0          -1
           0           0           0           0           0           0
           0           0           0           0           1           0
           1           0           0           0           0           0
           0           0      100000           0          -1           0
           0           0           0           0           0           0
           0           0           0           1           1           0
           0           0           1           0           0           0
           0           0           4          40           0           0
           0           0           0           0           0           0
           0           0           0           0           0           0
           0           0           0           0           0           0
           0           0           0           0           0           0
           0           0           0           0           0           0
           0           0           0           0           0           0
           0           0           0           0
Num RLSW                                   I               40
RLSW                                       R   N=          40
  1.00000000E+00  1.00000000E+00  1.00000000E+00  1.00000000E+00  1.00000000E+00
  0.00000000E+00  0.00000000E+00  1.00000000E+00  0.00000000E+00  0.00000000E+00
  0.00000000E+00  0.00000000E+00  1.00000000E+00  0.00000000E+00  0.00000000E+00
  0.00000000E+00  0.00000000E+00  1.00000000E+00  0.00000000E+00  0.00000000E+00
  0.00000000E+00  0.00000000E+00  1.00000000E+00  0.00000000E+00  0.00000000E+00
  0.00000000E+00  0.00000000E+00  1.00000000E+00  0.00000000E+00  0.00000000E+00
  0.00000000E+00  0.00000000E+00  0.00000000E+00  0.00000000E+00  0.00000000E+00
  0.00000000E+00  0.00000000E+00  0.00000000E+00  1.00000000E+00  1.00000000E+00
MxBond                                     I                4
NBond                                      I   N=          15
           4           3           4           4           3           1
           1           1           1           1           1           1
           1           1           1
IBond                                      I   N=          60
           2           3           6           7           1           4
           5           0           1           8           9          10
           2          11          12          13           2          14
          15           0           1           0           0           0
           1           0           0           0           3           0
           0           0           3           0           0           0
           3           0           0           0           4           0
           0           0           4           0           0           0
           4           0           0           0           5           0
           0           0           5           0           0           0
RBond                                      R   N=          60
  1.00000000E+00  1.00000000E+00  1.00000000E+00  1.00000000E+00  1.00000000E+00
  1.00000000E+00  2.00000000E+00  0.00000000E+00  1.00000000E+00  1.00000000E+00
  1.00000000E+00  1.00000000E+00  1.00000000E+00  1.00000000E+00  1.00000000E+00
  1.00000000E+00  2.00000000E+00  1.00000000E+00  1.00000000E+00  0.00000000E+00
  1.00000000E+00  0.00000000E+00  0.00000000E+00  0.00000000E+00  1.00000000E+00
  0.00000000E+00  0.00000000E+00  0.00000000E+00  1.00000000E+00  0.00000000E+00
  0.00000000E+00  0.00000000E+00  1.00000000E+00  0.00000000E+00  0.00000000E+00
  0.00000000E+00  1.00000000E+00  0.00000000E+00  0.00000000E+00  0.00000000E+00
  1.00000000E+00  0.00000000E+00  0.00000000E+00  0.00000000E+00  1.00000000E+00
  0.00000000E+00  0.00000000E+00  0.00000000E+00  1.00000000E+00  0.00000000E+00
  0.00000000E+00  0.00000000E+00  1.00000000E+00  0.00000000E+00  0.00000000E+00
  0.00000000E+00  1.00000000E+00  0.00000000E+00  0.00000000E+00  0.00000000E+00
Virial Ratio                               R      2.001371729852954E+00
SCF Energy                                 R     -1.951425544381564E+02
MP2 Energy                                 R     -1.957923013194939E+02
Total Energy                               R     -1.957923013194939E+02
Post-SCF wavefunction norm                 R      1.565122407208986E+00
RMS Force                                  R      4.556976380998210E-07
RMS Density                                R      1.544385291715236E-09
External E-field                           R   N=          35
  0.00000000E+00  0.00000000E+00  0.00000000E+00  0.00000000E+00  0.00000000E+00
  0.00000000E+00  0.00000000E+00  0.00000000E+00  0.00000000E+00  0.00000000E+00
  0.00000000E+00  0.00000000E+00  0.00000000E+00  0.00000000E+00  0.00000000E+00
  0.00000000E+00  0.00000000E+00  0.00000000E+00  0.00000000E+00  0.00000000E+00
  0.00000000E+00  0.00000000E+00  0.00000000E+00  0.00000000E+00  0.00000000E+00
  0.00000000E+00  0.00000000E+00  0.00000000E+00  0.00000000E+00  0.00000000E+00
  0.00000000E+00  0.00000000E+00  0.00000000E+00  0.00000000E+00  0.00000000E+00
IOpCl                                      I                0
IROHF                                      I                0
Alpha Orbital Energies                     R   N=          95
 -1.12346070E+01 -1.12236238E+01 -1.12189037E+01 -1.12155206E+01 -1.12103051E+01
 -1.09433963E+00 -9.95750042E-01 -9.27910858E-01 -8.50889825E-01 -7.12883195E-01
 -6.25040289E-01 -6.22612137E-01 -5.81734634E-01 -5.62688691E-01 -5.39796785E-01
 -5.13047734E-01 -5.08052102E-01 -4.78871735E-01 -4.62197095E-01 -3.39936194E-01
  1.86008826E-01  2.30585626E-01  2.74337756E-01  2.84297459E-01  2.96324169E-01
  3.08752566E-01  3.21601057E-01  3.33066855E-01  3.34272708E-01  3.68545976E-01
  3.81122442E-01  4.10598746E-01  4.18248309E-01  4.94087759E-01  5.53291807E-01
  7.11346816E-01  7.30479802E-01  7.33332193E-01  7.47483830E-01  7.73050977E-01
  8.20530788E-01  8.57546703E-01  8.90887713E-01  9.04999483E-01  9.41097578E-01
  9.49732749E-01  1.02047399E+00  1.05308893E+00  1.10164225E+00  1.11005923E+00
  1.14418332E+00  1.15174825E+00  1.16456757E+00  1.17449177E+00  1.18520744E+00
  1.19547596E+00  1.23859709E+00  1.25012418E+00  1.27753606E+00  1.27831352E+00
  1.38555912E+00  1.46316360E+00  1.49300160E+00  1.60429587E+00  1.69063255E+00
  1.70137433E+00  1.85667827E+00  1.95177518E+00  2.04247337E+00  2.05207423E+00
  2.15987354E+00  2.18609303E+00  2.24374529E+00  2.28666873E+00  2.30749174E+00
  2.31358592E+00  2.41131903E+00  2.45446371E+00  2.52273454E+00  2.62741491E+00
  2.63787833E+00  2.65612679E+00  2.68828648E+00  2.72807223E+00  2.77680709E+00
  2.82238660E+00  2.93634925E+00  2.99811705E+00  3.22204294E+00  3.30533947E+00
  4.53750651E+00  4.59802217E+00  4.68287100E+00  4.84534879E+00  4.93861279E+00
Alpha MO coefficients                      R   N=        9025
  2.96363000E-02  1.25673612E-03  3.41520899E-05  2.37419986E-05  5.48923316E-06
  6.45891820E-04 -1.42919508E-03 -2.94328637E-04  3.13232141E-04 -5.18784167E-04
 -1.28136804E-04 -1.27090727E-04  8.68148014E-05 -1.38981066E-04  9.82043804E-05
  9.94562578E-01  2.73693499E-02  1.56874058E-04  1.82537716E-04 -1.95574367E-05
 -1.35638755E-02  3.16130488E-04 -1.99919972E-04  2.35362615E-04 -1.48249807E-03
 -1.39076593E-03 -2.03918124E-03  2.43622113E-04  2.43026852E-04  1.30271896E-04
 -1.47013497E-05 -3.96699763E-04  1.58922382E-04 -9.39641504E-06  3.78004172E-05
  1.88837346E-03 -1.27522663E-03  1.44190939E-05  1.38121107E-04 -3.01488125E-05
 -1.49555366E-04 -1.05828750E-04  3.52896738E-05 -4.33173112E-05  2.82282266E-06
  2.05729328E-02  7.14181108E-04  2.59830367E-05  1.02820169E-04 -1.03016692E-05
  2.91794381E-03  1.33358745E-04 -1.54476802E-03  8.16136711E-06 -2.03366871E-04
 -6.17635751E-04 -1.00346726E-04  1.42720777E-04 -3.78258607E-05  3.78605926E-05
  3.22849628E-02  5.58384961E-04 -1.59791744E-04 -1.60089121E-04 -4.89222955E-05
  4.11843339E-03  1.12925365E-03  1.33505263E-03  3.54118531E-04 -3.39226692E-04
 -3.66403438E-04 -1.85917980E-04 -3.54820427E-05 -9.20542439E-05 -3.19856689E-05
 -1.00269639E-04  3.02069892E-04 -1.43369667E-05 -1.74469304E-04 -9.38900207E-05
 -3.68280422E-04 -2.35400358E-06  4.54337497E-04 -2.30496389E-04 -2.71886629E-05
 -9.27289445E-05 -1.95782950E-04 -1.63350123E-04  3.19622713E-04 -1.35520674E-04
  2.74199388E-04 -8.05918836E-05 -2.73555726E-05 -7.86006316E-05 -5.77163779E-05
  9.94782426E-01  2.86002114E-02 -6.76423485E-05  1.49092559E-04 -1.08759150E-04
 -1.80043497E-02  6.14320766E-04 -6.18348115E-04  9.84028807E-04 -1.59136530E-03
 -1.53923363E-03 -1.59613993E-03 -2.56550264E-05  1.05088430E-05  3.49015516E-05
 -2.96956620E-02 -6.00523784E-04  3.61952013E-05  4.80350502E-05 -8.23349993E-06
  3.32298698E-03  2.68981733E-03 -1.16179926E-03  7.65776370E-04 -3.39828651E-04
 -1.05485240E-04 -8.42399703E-05  7.69871091E-05 -1.49470082E-04  4.12590428E-05
  3.56525340E-02  1.04896363E-03 -1.01667891E-04  3.63527429E-07  3.98307297E-05
  3.88033307E-03 -1.37990653E-03 -6.47817813E-04  1.13852579E-03 -3.43038737E-04
 -2.19281814E-04 -3.60928434E-04 -9.87548182E-05  1.91465159E-04  1.32321825E-04
 -4.14231033E-03 -5.01025732E-04 -1.37476426E-04  9.24975641E-06 -5.17139678E-05
  1.88019343E-03  5.38163422E-04 -4.49255377E-04  1.78614240E-04 -8.33717736E-05
 -7.06107545E-06 -1.25158010E-04 -5.76657666E-06  3.09949513E-05  7.42564874E-06
 -2.38031505E-03 -2.80050826E-04 -1.04884663E-04  2.40352694E-05 -1.32228423E-05
  5.34622970E-04  3.76729971E-05  4.25155402E-04 -9.12046152E-06 -1.18180480E-05
  8.34744032E-05 -1.10032050E-04  1.15951944E-05  3.19841323E-05  1.95348791E-05
  2.55574606E-04  2.67746253E-03  2.55652971E-04  2.57587567E-03 -1.59178395E-04
  9.42509264E-05 -1.40314938E-04 -7.23571887E-05 -1.71780308E-04  5.38848396E-05
 -2.86890545E-05  2.38656476E-04 -1.17594274E-04 -3.54335819E-04 -7.47768279E-05
 -3.77196858E-04 -3.43750095E-05 -1.19479155E-05 -2.74228045E-05  4.19895568E-05
  3.40590871E-03 -2.73433047E-04  3.01944601E-05 -1.40174125E-04  2.32961302E-05
  1.64675122E-03 -4.76872055E-04  5.52172333E-04 -2.71682594E-04 -3.23909743E-05
 -9.48841072E-05 -1.20865727E-04 -6.51451889E-06  4.29582570E-05 -7.51090680E-06
 -2.08959560E-02 -3.71298897E-04  3.60436148E-05 -1.37793490E-05  2.02617875E-05
  2.98625615E-03 -1.21555266E-03  2.31595527E-03 -3.21207461E-04 -1.76641877E-04
 -4.57783135E-04 -8.35334926E-05  9.15231404E-05 -2.85019323E-05  8.05436152E-06
 -5.12068556E-04  1.10794912E-05  7.08195456E-05 -2.77910969E-05 -3.53720919E-05
 -2.86342239E-04  1.44245617E-04  8.06034153E-05 -4.37656821E-05 -6.37790451E-05
 -1.51496142E-06 -3.23254966E-05  1.20135993E-05  2.45264076E-06 -2.68358296E-05
  9.95524273E-01  2.85424139E-02  1.16920338E-04 -8.03929632E-05  2.79730193E-05
 -1.57187894E-02 -3.43870246E-04  8.62746172E-04 -5.28507521E-05 -1.80518865E-03
 -1.82912138E-03 -1.81821441E-03 -1.70611044E-05  1.27581720E-06 -1.29729328E-05
 -2.85779138E-03 -2.71495965E-04  4.08293153E-05 -8.26271357E-05  1.25550135E-05
  3.75042708E-04  2.79740463E-04  4.16750557E-05  9.21626481E-05  6.54385059E-05
  1.43146451E-05 -7.59090788E-05  2.95030676E-05  6.82909172E-05  1.33505477E-05
 -9.03917962E-05 -2.61234298E-04 -1.68492184E-05  2.69892178E-04 -3.17920579E-06
 -1.04197935E-04  7.12398906E-06  4.61753318E-05  4.76480397E-05 -3.32195405E-05
  1.56957198E-04  2.47872608E-03  1.65445003E-04  2.59949513E-03  1.47681180E-04
  2.66887172E-03 -1.26554537E-05  3.82468294E-05 -3.31598286E-05 -3.64472254E-05
 -3.59204139E-02 -8.27726022E-04  7.40248440E-05 -5.00641908E-06  1.51494625E-05
  3.07251625E-03  1.65885434E-03  4.26437758E-04 -9.79228453E-04 -2.83008044E-04
 -7.17318093E-05 -2.06143435E-04 -7.60520261E-05  1.74628621E-04  1.03931540E-04
  9.22757697E-04 -2.77511203E-04 -1.39978447E-04 -1.34019860E-05  7.64709452E-06
  1.08703851E-03  9.35198580E-04 -3.85292470E-05  1.78610141E-04 -2.22913723E-05
 -1.30088681E-04 -1.08315789E-04 -2.06248234E-05 -1.18925561E-05 -5.01199395E-05
  9.95114413E-01  2.83636542E-02 -8.66210315E-05  3.29529125E-06  4.15888416E-05
 -1.50744370E-02  6.14635233E-04  1.85079219E-04 -3.52707380E-04 -1.81040533E-03
 -1.79144173E-03 -1.81630534E-03 -1.32196847E-05  1.83421420E-05  1.01271325E-05
  6.45611735E-04  8.27078950E-06 -4.58753877E-05  2.38456349E-05  2.80710192E-05
  7.90618251E-05 -1.46366042E-04 -1.45040141E-05 -1.60686882E-04 -4.98391637E-05
  3.09905673E-06 -4.66913909E-05  3.73568462E-05 -2.09114730E-05 -1.02140615E-05
  2.84098891E-04  4.66417161E-05  5.05860598E-05  1.13901255E-05 -1.49984669E-05
 -1.33224188E-06 -3.52301281E-04  2.46824028E-04  5.35781763E-05  5.73946342E-06
  3.82582422E-05  3.57144545E-05  1.06670400E-05  1.53831070E-05  8.87700210E-06
 -1.09870184E-04  1.30526386E-06 -1.32186298E-04 -2.02045577E-06  1.22484856E-04
  2.65033004E-03  1.27905926E-04  2.41761215E-03  1.59717242E-04  2.58857414E-03
 -1.02135226E-05 -5.71562554E-05  4.74451552E-05 -1.04291425E-05 -1.61457193E-05
 -1.06950684E-04  5.10821100E-05  1.54768574E-04 -3.02574436E-05 -1.46652502E-04
  1.38826553E-03 -1.49031159E-04  2.10033039E-05  2.31223925E-05  1.31027978E-05
  3.08416778E-04 -1.21844893E-04  1.91628453E-05 -1.19025476E-04  8.22548933E-05
  3.19175903E-06 -4.09254774E-05  3.71792730E-06  5.57280170E-05 -6.04020553E-07
 -3.30393167E-02 -1.14765824E-03  1.35575322E-04  1.51110123E-04  5.69290799E-05
  4.13975464E-03 -1.32439865E-03 -1.35054311E-03 -5.04697246E-04 -2.47112410E-04
 -2.72959562E-04 -2.59758344E-05  1.21727471E-05 -9.78211345E-05 -1.05216306E-05
 -1.81850482E-04  3.59181281E-05  3.26903202E-06  5.77116262E-07 -1.50361440E-05
 -2.82618155E-04  5.25979184E-05  4.15019048E-05  1.02513644E-04  1.09569865E-05
  2.12257279E-05  2.08887697E-05 -1.32814611E-05 -1.26252056E-05 -6.29142747E-06
  2.14297589E-03 -1.00825511E-04  1.42924482E-05  2.08598774E-05  8.81073643E-06
  6.56801389E-05  6.54935734E-05 -4.49276621E-05  2.26030171E-06  4.51916131E-06
  1.02295021E-04 -4.87707760E-05 -1.14410942E-06  2.14514330E-05  5.75471686E-06
  9.95078673E-01  2.74686618E-02  1.81206063E-05  1.17899600E-05 -1.49031248E-06
 -1.17632836E-02 -5.02186540E-04 -5.89650872E-04 -1.94135715E-04 -1.90655181E-03
 -1.81518400E-03 -2.41297440E-03  2.04825958E-04  2.41016028E-04  1.00994374E-04
  9.85750184E-06  2.67508443E-05 -3.87047643E-05 -3.76028378E-05  4.01194165E-06
  5.55533779E-05  5.66202943E-06  1.47967188E-05 -1.53454824E-06  1.53678673E-04
 -2.36043016E-05 -3.93272491E-06  7.58120691E-06  1.41206591E-05  1.46779290E-06
 -1.01395043E-05 -1.41097599E-04  2.08438224E-03 -1.42792355E-04  2.09286070E-03
 -1.07299526E-01  1.98389673E-01 -3.65597024E-02  1.69553583E-02 -2.79487589E-02
  1.62592489E-01 -5.65841242E-03 -3.68900102E-04 -5.51944134E-03  9.67022945E-03