051_Pyrazine Gaussian SP Calculation on node35.bme.utexas.edu           
Freq      RMP2-FC                                                     6-31G(d)            
Number of atoms                            I               10
Info1-9                                    I   N=           9
          21          20        1002           0           0         100
           6           2           1
Charge                                     I                0
Multiplicity                               I                1
Number of electrons                        I               42
Number of alpha electrons                  I               21
Number of beta electrons                   I               21
Number of basis functions                  I               98
Number of independent functions            I               98
Number of point charges in /Mol/           I                0
Number of translation vectors              I                0
Atomic numbers                             I   N=          10
           6           6           7           6           6           7
           1           1           1           1
Nuclear charges                            R   N=          10
  6.00000000E+00  6.00000000E+00  7.00000000E+00  6.00000000E+00  6.00000000E+00
  7.00000000E+00  1.00000000E+00  1.00000000E+00  1.00000000E+00  1.00000000E+00
Current cartesian coordinates              R   N=          30
 -4.56381462E-16 -1.31880376E+00  2.14656672E+00 -2.34336888E-16  1.31880369E+00
  2.14656640E+00  4.19143174E-07  2.67852842E+00  8.84327491E-17 -9.87300194E-17
  1.31880369E+00 -2.14656640E+00  2.34336857E-16 -1.31880376E+00 -2.14656672E+00
  1.45595858E-06 -2.67852830E+00 -8.84327318E-17 -3.25999874E-06 -2.37779470E+00
  3.90877620E+00 -3.25810960E-06  2.37779474E+00  3.90877541E+00 -3.25810960E-06
  2.37779474E+00 -3.90877541E+00 -3.25999874E-06 -2.37779470E+00 -3.90877620E+00
Force Field                                I                0
Int Atom Types                             I   N=          10
           0           0           0           0           0           0
           0           0           0           0
MM charges                                 R   N=          10
  0.00000000E+00  0.00000000E+00  0.00000000E+00  0.00000000E+00  0.00000000E+00
  0.00000000E+00  0.00000000E+00  0.00000000E+00  0.00000000E+00  0.00000000E+00
Integer atomic weights                     I   N=          10
          12          12          14          12          12          14
           1           1           1           1
Real atomic weights                        R   N=          10
  1.20000000E+01  1.20000000E+01  1.40030740E+01  1.20000000E+01  1.20000000E+01
  1.40030740E+01  1.00782504E+00  1.00782504E+00  1.00782504E+00  1.00782504E+00
Atom fragment info                         I   N=          10
           0           0           0           0           0           0
           0           0           0           0
Atom residue num                           I   N=          10
           0           0           0           0           0           0
           0           0           0           0
Nuclear spins                              I   N=          10
           0           0           2           0           0           2
           1           1           1           1
Nuclear ZEff                               R   N=          10
 -3.60000000E+00 -3.60000000E+00 -4.55000000E+00 -3.60000000E+00 -3.60000000E+00
 -4.55000000E+00 -1.00000000E+00 -1.00000000E+00 -1.00000000E+00 -1.00000000E+00
Nuclear QMom                               R   N=          10
  0.00000000E+00  0.00000000E+00  2.04400000E+00  0.00000000E+00  0.00000000E+00
  2.04400000E+00  0.00000000E+00  0.00000000E+00  0.00000000E+00  0.00000000E+00
Nuclear GFac                               R   N=          10
  0.00000000E+00  0.00000000E+00  4.03761000E-01  0.00000000E+00  0.00000000E+00
  4.03761000E-01  2.79284600E+00  2.79284600E+00  2.79284600E+00  2.79284600E+00
MicOpt                                     I   N=          10
          -1          -1          -1          -1          -1          -1
          -1          -1          -1          -1
Number of contracted shells                I               32
Number of primitive shells                 I               82
Pure/Cartesian d shells                    I                1
Pure/Cartesian f shells                    I                0
Highest angular momentum                   I                2
Largest degree of contraction              I                6
Shell types                                I   N=          32
           0          -1          -1           2           0          -1
          -1           2           0          -1          -1           2
           0          -1          -1           2           0          -1
          -1           2           0          -1          -1           2
           0           0           0           0           0           0
           0           0
Number of primitives per shell             I   N=          32
           6           3           1           1           6           3
           1           1           6           3           1           1
           6           3           1           1           6           3
           1           1           6           3           1           1
           3           1           3           1           3           1
           3           1
Shell to atom map                          I   N=          32
           1           1           1           1           2           2
           2           2           3           3           3           3
           4           4           4           4           5           5
           5           5           6           6           6           6
           7           7           8           8           9           9
          10          10
Primitive exponents                        R   N=          82
  3.04752488E+03  4.57369518E+02  1.03948685E+02  2.92101553E+01  9.28666296E+00
  3.16392696E+00  7.86827235E+00  1.88128854E+00  5.44249258E-01  1.68714478E-01
  8.00000000E-01  3.04752488E+03  4.57369518E+02  1.03948685E+02  2.92101553E+01
  9.28666296E+00  3.16392696E+00  7.86827235E+00  1.88128854E+00  5.44249258E-01
  1.68714478E-01  8.00000000E-01  4.17351146E+03  6.27457911E+02  1.42902093E+02
  4.02343293E+01  1.28202129E+01  4.39043701E+00  1.16263619E+01  2.71627981E+00
  7.72218397E-01  2.12031498E-01  8.00000000E-01  3.04752488E+03  4.57369518E+02
  1.03948685E+02  2.92101553E+01  9.28666296E+00  3.16392696E+00  7.86827235E+00
  1.88128854E+00  5.44249258E-01  1.68714478E-01  8.00000000E-01  3.04752488E+03
  4.57369518E+02  1.03948685E+02  2.92101553E+01  9.28666296E+00  3.16392696E+00
  7.86827235E+00  1.88128854E+00  5.44249258E-01  1.68714478E-01  8.00000000E-01
  4.17351146E+03  6.27457911E+02  1.42902093E+02  4.02343293E+01  1.28202129E+01
  4.39043701E+00  1.16263619E+01  2.71627981E+00  7.72218397E-01  2.12031498E-01
  8.00000000E-01  1.87311370E+01  2.82539436E+00  6.40121692E-01  1.61277759E-01
  1.87311370E+01  2.82539436E+00  6.40121692E-01  1.61277759E-01  1.87311370E+01
  2.82539436E+00  6.40121692E-01  1.61277759E-01  1.87311370E+01  2.82539436E+00
  6.40121692E-01  1.61277759E-01
Contraction coefficients                   R   N=          82
  1.83473713E-03  1.40373228E-02  6.88426223E-02  2.32184443E-01  4.67941348E-01
  3.62311985E-01 -1.19332420E-01 -1.60854152E-01  1.14345644E+00  1.00000000E+00
  1.00000000E+00  1.83473713E-03  1.40373228E-02  6.88426223E-02  2.32184443E-01
  4.67941348E-01  3.62311985E-01 -1.19332420E-01 -1.60854152E-01  1.14345644E+00
  1.00000000E+00  1.00000000E+00  1.83477216E-03  1.39946270E-02  6.85865518E-02
  2.32240873E-01  4.69069948E-01  3.60455199E-01 -1.14961182E-01 -1.69117479E-01
  1.14585195E+00  1.00000000E+00  1.00000000E+00  1.83473713E-03  1.40373228E-02
  6.88426223E-02  2.32184443E-01  4.67941348E-01  3.62311985E-01 -1.19332420E-01
 -1.60854152E-01  1.14345644E+00  1.00000000E+00  1.00000000E+00  1.83473713E-03
  1.40373228E-02  6.88426223E-02  2.32184443E-01  4.67941348E-01  3.62311985E-01
 -1.19332420E-01 -1.60854152E-01  1.14345644E+00  1.00000000E+00  1.00000000E+00
  1.83477216E-03  1.39946270E-02  6.85865518E-02  2.32240873E-01  4.69069948E-01
  3.60455199E-01 -1.14961182E-01 -1.69117479E-01  1.14585195E+00  1.00000000E+00
  1.00000000E+00  3.34946043E-02  2.34726953E-01  8.13757326E-01  1.00000000E+00
  3.34946043E-02  2.34726953E-01  8.13757326E-01  1.00000000E+00  3.34946043E-02
  2.34726953E-01  8.13757326E-01  1.00000000E+00  3.34946043E-02  2.34726953E-01
  8.13757326E-01  1.00000000E+00
P(S=P) Contraction coefficients            R   N=          82
  0.00000000E+00  0.00000000E+00  0.00000000E+00  0.00000000E+00  0.00000000E+00
  0.00000000E+00  6.89990666E-02  3.16423961E-01  7.44308291E-01  1.00000000E+00
  0.00000000E+00  0.00000000E+00  0.00000000E+00  0.00000000E+00  0.00000000E+00
  0.00000000E+00  0.00000000E+00  6.89990666E-02  3.16423961E-01  7.44308291E-01
  1.00000000E+00  0.00000000E+00  0.00000000E+00  0.00000000E+00  0.00000000E+00
  0.00000000E+00  0.00000000E+00  0.00000000E+00  6.75797439E-02  3.23907296E-01
  7.40895140E-01  1.00000000E+00  0.00000000E+00  0.00000000E+00  0.00000000E+00
  0.00000000E+00  0.00000000E+00  0.00000000E+00  0.00000000E+00  6.89990666E-02
  3.16423961E-01  7.44308291E-01  1.00000000E+00  0.00000000E+00  0.00000000E+00
  0.00000000E+00  0.00000000E+00  0.00000000E+00  0.00000000E+00  0.00000000E+00
  6.89990666E-02  3.16423961E-01  7.44308291E-01  1.00000000E+00  0.00000000E+00
  0.00000000E+00  0.00000000E+00  0.00000000E+00  0.00000000E+00  0.00000000E+00
  0.00000000E+00  6.75797439E-02  3.23907296E-01  7.40895140E-01  1.00000000E+00
  0.00000000E+00  0.00000000E+00  0.00000000E+00  0.00000000E+00  0.00000000E+00
  0.00000000E+00  0.00000000E+00  0.00000000E+00  0.00000000E+00  0.00000000E+00
  0.00000000E+00  0.00000000E+00  0.00000000E+00  0.00000000E+00  0.00000000E+00
  0.00000000E+00  0.00000000E+00
Coordinates of each shell                  R   N=          96
 -2.34336857E-16 -1.31880376E+00  2.14656672E+00 -2.34336857E-16 -1.31880376E+00
  2.14656672E+00 -2.34336857E-16 -1.31880376E+00  2.14656672E+00 -2.34336857E-16
 -1.31880376E+00  2.14656672E+00 -1.22922830E-17  1.31880369E+00  2.14656640E+00
 -1.22922830E-17  1.31880369E+00  2.14656640E+00 -1.22922830E-17  1.31880369E+00
  2.14656640E+00 -1.22922830E-17  1.31880369E+00  2.14656640E+00  4.19143174E-07
  2.67852842E+00  5.89551661E-17  4.19143174E-07  2.67852842E+00  5.89551661E-17
  4.19143174E-07  2.67852842E+00  5.89551661E-17  4.19143174E-07  2.67852842E+00
  5.89551661E-17 -9.87300194E-17  1.31880369E+00 -2.14656640E+00 -9.87300194E-17
  1.31880369E+00 -2.14656640E+00 -9.87300194E-17  1.31880369E+00 -2.14656640E+00
 -9.87300194E-17  1.31880369E+00 -2.14656640E+00  1.22922525E-17 -1.31880376E+00
 -2.14656672E+00  1.22922525E-17 -1.31880376E+00 -2.14656672E+00  1.22922525E-17
 -1.31880376E+00 -2.14656672E+00  1.22922525E-17 -1.31880376E+00 -2.14656672E+00
  1.45595858E-06 -2.67852830E+00 -5.89551546E-17  1.45595858E-06 -2.67852830E+00
 -5.89551546E-17  1.45595858E-06 -2.67852830E+00 -5.89551546E-17  1.45595858E-06
 -2.67852830E+00 -5.89551546E-17 -3.25999874E-06 -2.37779470E+00  3.90877620E+00
 -3.25999874E-06 -2.37779470E+00  3.90877620E+00 -3.25810960E-06  2.37779474E+00
  3.90877541E+00 -3.25810960E-06  2.37779474E+00  3.90877541E+00 -3.25810960E-06
  2.37779474E+00 -3.90877541E+00 -3.25810960E-06  2.37779474E+00 -3.90877541E+00
 -3.25999874E-06 -2.37779470E+00 -3.90877620E+00 -3.25999874E-06 -2.37779470E+00
 -3.90877620E+00
Constraint Structure                       R   N=          30
 -2.34336857E-16 -1.31880376E+00  2.14656672E+00 -1.22922830E-17  1.31880369E+00
  2.14656640E+00  4.19143174E-07  2.67852842E+00  5.89551661E-17 -9.87300194E-17
  1.31880369E+00 -2.14656640E+00  1.22922525E-17 -1.31880376E+00 -2.14656672E+00
  1.45595858E-06 -2.67852830E+00 -5.89551546E-17 -3.25999874E-06 -2.37779470E+00
  3.90877620E+00 -3.25810960E-06  2.37779474E+00  3.90877541E+00 -3.25810960E-06
  2.37779474E+00 -3.90877541E+00 -3.25999874E-06 -2.37779470E+00 -3.90877620E+00
Num ILSW                                   I              100
ILSW                                       I   N=         100
           0           1           0           0           2           0
           0           0           0           0           0          -1
           0           0           0           0           0           0
           0           0           0           0           1           0
           1           0           0           0           0           0
           0           0      100000           0          -1           0
           0           0           0           0           0           0
           0           0           0           1           1           0
           0           0           1           0           0           0
           0           0           4          40           0           0
           0           0           0           0           0           0
           0           0           0           0           0           0
           0           0           0           0           0           0
           0           0           0           0           0           0
           0           0           0           0           0           0
           0           0           0           0           0           0
           0           0           0           0
Num RLSW                                   I               40
RLSW                                       R   N=          40
  1.00000000E+00  1.00000000E+00  1.00000000E+00  1.00000000E+00  1.00000000E+00
  0.00000000E+00  0.00000000E+00  1.00000000E+00  0.00000000E+00  0.00000000E+00
  0.00000000E+00  0.00000000E+00  1.00000000E+00  0.00000000E+00  0.00000000E+00
  0.00000000E+00  0.00000000E+00  1.00000000E+00  0.00000000E+00  0.00000000E+00
  0.00000000E+00  0.00000000E+00  1.00000000E+00  0.00000000E+00  0.00000000E+00
  0.00000000E+00  0.00000000E+00  1.00000000E+00  0.00000000E+00  0.00000000E+00
  0.00000000E+00  0.00000000E+00  0.00000000E+00  0.00000000E+00  0.00000000E+00
  0.00000000E+00  0.00000000E+00  0.00000000E+00  1.00000000E+00  1.00000000E+00
MxBond                                     I                3
NBond                                      I   N=          10
           3           3           2           3           3           2
           1           1           1           1
IBond                                      I   N=          30
           2           6           7           1           3           8
           2           4           0           3           5           9
           4           6          10           1           5           0
           1           0           0           2           0           0
           4           0           0           5           0           0
RBond                                      R   N=          30
  1.50000000E+00  1.50000000E+00  1.00000000E+00  1.50000000E+00  1.50000000E+00
  1.00000000E+00  1.50000000E+00  1.50000000E+00  0.00000000E+00  1.50000000E+00
  1.50000000E+00  1.00000000E+00  1.50000000E+00  1.50000000E+00  1.00000000E+00
  1.50000000E+00  1.50000000E+00  0.00000000E+00  1.00000000E+00  0.00000000E+00
  0.00000000E+00  1.00000000E+00  0.00000000E+00  0.00000000E+00  1.00000000E+00
  0.00000000E+00  0.00000000E+00  1.00000000E+00  0.00000000E+00  0.00000000E+00
Virial Ratio                               R      2.002941417165139E+00
SCF Energy                                 R     -2.626791776163753E+02
MP2 Energy                                 R     -2.635036273236776E+02
Total Energy                               R     -2.635036273236776E+02
Post-SCF wavefunction norm                 R      1.609544848529919E+00
RMS Force                                  R      2.288803836207102E-07
RMS Density                                R      5.390322461417107E-10
External E-field                           R   N=          35
  0.00000000E+00  0.00000000E+00  0.00000000E+00  0.00000000E+00  0.00000000E+00
  0.00000000E+00  0.00000000E+00  0.00000000E+00  0.00000000E+00  0.00000000E+00
  0.00000000E+00  0.00000000E+00  0.00000000E+00  0.00000000E+00  0.00000000E+00
  0.00000000E+00  0.00000000E+00  0.00000000E+00  0.00000000E+00  0.00000000E+00
  0.00000000E+00  0.00000000E+00  0.00000000E+00  0.00000000E+00  0.00000000E+00
  0.00000000E+00  0.00000000E+00  0.00000000E+00  0.00000000E+00  0.00000000E+00
  0.00000000E+00  0.00000000E+00  0.00000000E+00  0.00000000E+00  0.00000000E+00
IOpCl                                      I                0
IROHF                                      I                0
Alpha Orbital Energies                     R   N=          98
 -1.55997993E+01 -1.55997828E+01 -1.12879653E+01 -1.12879252E+01 -1.12867717E+01
 -1.12867632E+01 -1.30138647E+00 -1.21408356E+00 -1.05076597E+00 -8.99967776E-01
 -8.83329940E-01 -7.22729094E-01 -6.97914522E-01 -6.75191666E-01 -6.08444670E-01
 -5.68000368E-01 -5.46883894E-01 -4.96560842E-01 -4.29176536E-01 -4.10304369E-01
 -3.57234748E-01  9.14585612E-02  1.26031377E-01  2.54943099E-01  2.76993224E-01
  3.01280956E-01  3.14428337E-01  3.35868774E-01  3.45676777E-01  4.66915805E-01
  4.92229991E-01  4.99078322E-01  6.13923635E-01  6.83441109E-01  7.09313028E-01
  7.24307595E-01  7.33099078E-01  7.92488989E-01  8.17110593E-01  8.23219490E-01
  8.39145619E-01  8.52891424E-01  8.80809747E-01  9.07519836E-01  9.56825833E-01
  1.06657683E+00  1.06702166E+00  1.06954857E+00  1.07463098E+00  1.08364367E+00
  1.10319025E+00  1.13762883E+00  1.17168830E+00  1.20772276E+00  1.23901464E+00
  1.26789366E+00  1.34147936E+00  1.35381541E+00  1.48210278E+00  1.49183441E+00
  1.54840126E+00  1.62785187E+00  1.73230780E+00  1.74847639E+00  1.77010158E+00
  1.78194175E+00  1.78328587E+00  1.92955002E+00  2.01765385E+00  2.06983049E+00
  2.14436638E+00  2.16181726E+00  2.28552688E+00  2.35062986E+00  2.41448184E+00
  2.47168584E+00  2.51997183E+00  2.53000269E+00  2.55048572E+00  2.59096907E+00
  2.65680000E+00  2.73669685E+00  2.82180779E+00  2.87114286E+00  2.91280937E+00
  3.03627868E+00  3.04464815E+00  3.07117435E+00  3.08350411E+00  3.18148314E+00
  3.42576294E+00  3.72903773E+00  4.28472127E+00  4.48395358E+00  4.53758574E+00
  4.60143197E+00  4.72797021E+00  4.90621307E+00
Alpha MO coefficients                      R   N=        9604
  6.31140016E-07  1.74385210E-04 -1.00081217E-10  3.67311176E-06 -6.98904143E-05
  4.14553739E-03  2.29279620E-09  1.02398798E-03 -2.29839734E-03 -5.86461817E-05
 -1.23856582E-04 -2.85593233E-04  2.17673992E-10  1.51176301E-10 -2.17083493E-04
 -5.64761791E-07 -1.73388291E-04  2.26379673E-11  4.03122346E-06  6.98414831E-05
 -4.14151213E-03 -1.69668752E-09  1.02376056E-03  2.29595419E-03  5.83854638E-05
  1.23213299E-04  2.84466808E-04  5.70613817E-11 -1.60224569E-10 -2.16446106E-04
 -7.02305252E-01 -1.76563852E-02 -4.86128216E-10  1.43780865E-03  0.00000000E+00
  5.94540497E-03  5.87521167E-10 -2.59675137E-03  0.00000000E+00  2.13913964E-03
  1.88656760E-03  1.73099681E-03 -1.67036549E-11  0.00000000E+00  0.00000000E+00
 -5.64761791E-07 -1.73388291E-04  2.26379673E-11  4.03122346E-06 -6.98414831E-05
 -4.14151213E-03 -1.69668752E-09  1.02376056E-03 -2.29595419E-03  5.83854638E-05
  1.23213299E-04  2.84466808E-04  5.70613817E-11  1.60224569E-10  2.16446106E-04
  6.31140016E-07  1.74385210E-04 -1.00081217E-10  3.67311176E-06  6.98904143E-05
  4.14553739E-03  2.29279620E-09  1.02398798E-03  2.29839734E-03 -5.86461817E-05
 -1.23856582E-04 -2.85593233E-04  2.17673992E-10 -1.51176301E-10  2.17083493E-04
  7.05271407E-01  1.77295929E-02 -3.30870348E-10  1.44366364E-03  0.00000000E+00
 -5.95610511E-03  9.34773555E-10 -2.60268375E-03  0.00000000E+00 -2.14905993E-03
 -1.89525238E-03 -1.73908314E-03 -3.35575457E-11  0.00000000E+00  0.00000000E+00
  4.67588050E-05  5.31607506E-04 -4.67677527E-05 -5.31149331E-04 -4.67677527E-05
 -5.31149331E-04  4.67588050E-05  5.31607506E-04  1.57582993E-05  2.36212660E-04
 -4.03962232E-11 -8.49292981E-05 -1.14456590E-05  9.46319847E-04  4.87295459E-10
  5.16900684E-05 -5.74550121E-04 -6.17051225E-05 -1.52364246E-04 -2.66679198E-04
  1.60968729E-10  1.77123725E-10 -1.50762315E-04  1.57608284E-05  2.36945619E-04
 -5.31341968E-11  8.49130247E-05 -1.17400747E-05  9.63785322E-04  3.60800432E-10
 -5.60055624E-05 -5.84233131E-04 -6.19517652E-05 -1.52885101E-04 -2.67880689E-04
 -1.59675432E-12  1.56146913E-11  1.51676185E-04  7.05184037E-01  1.74054544E-02
  3.74489182E-10 -1.39217285E-03  0.00000000E+00 -2.55106118E-03 -1.83510123E-10
  1.41292157E-03  0.00000000E+00 -2.35804890E-03 -2.06440067E-03 -1.92207116E-03
 -7.33392798E-12  0.00000000E+00  0.00000000E+00  1.57608284E-05  2.36945619E-04
 -5.31341968E-11  8.49130247E-05  1.17400747E-05  9.63785322E-04  3.60800432E-10
 -5.60055624E-05  5.84233131E-04 -6.19517652E-05 -1.52885101E-04 -2.67880689E-04
 -1.59675432E-12 -1.56146913E-11 -1.51676185E-04  1.57582993E-05  2.36212660E-04
 -4.03962232E-11 -8.49292981E-05  1.14456590E-05  9.46319847E-04  4.87295459E-10
  5.16900684E-05  5.74550121E-04 -6.17051225E-05 -1.52364246E-04 -2.66679198E-04
  1.60968729E-10 -1.77123725E-10  1.50762315E-04  7.02217513E-01  1.73308765E-02
 -3.24413436E-10  1.38609973E-03  0.00000000E+00 -2.52597764E-03  5.21117901E-10
 -1.40196341E-03  0.00000000E+00 -2.34901127E-03 -2.05643030E-03 -1.91475797E-03
 -1.24843366E-10  0.00000000E+00  0.00000000E+00 -2.24614329E-06  1.07449272E-04
 -2.04906598E-06  1.09689083E-04 -2.04906598E-06  1.09689083E-04 -2.24614329E-06
  1.07449272E-04  4.97718819E-01  1.37421549E-02  1.84214887E-10 -3.04425234E-05
 -3.14605116E-04 -2.88755740E-03  3.35204832E-10 -3.80960617E-04  4.65307988E-04
 -1.23438339E-03 -1.01093574E-03 -1.04183013E-03  3.83992464E-11 -5.20911853E-10
  7.73211403E-05  4.97700499E-01  1.37416436E-02  5.59466630E-11  3.04444811E-05
 -3.14592963E-04 -2.88724437E-03  1.40935377E-10  3.80845567E-04  4.65286835E-04
 -1.23434209E-03 -1.01091532E-03 -1.04180359E-03 -1.45066740E-10 -3.81635685E-10
 -7.73154206E-05  0.00000000E+00  0.00000000E+00  0.00000000E+00  0.00000000E+00
  4.46534294E-05  0.00000000E+00  0.00000000E+00  0.00000000E+00 -5.25669775E-04
  0.00000000E+00  0.00000000E+00  0.00000000E+00  0.00000000E+00  1.05813346E-10
  8.24248666E-05 -4.97700499E-01 -1.37416436E-02 -5.59466630E-11 -3.04444811E-05
 -3.14592963E-04  2.88724437E-03 -1.40935377E-10 -3.80845567E-04  4.65286835E-04
  1.23434209E-03  1.01091532E-03  1.04180359E-03  1.45066740E-10 -3.81635685E-10
 -7.73154206E-05 -4.97718819E-01 -1.37421549E-02 -1.84214887E-10  3.04425234E-05
 -3.14605116E-04  2.88755740E-03 -3.35204832E-10  3.80960617E-04  4.65307988E-04
  1.23438339E-03  1.01093574E-03  1.04183013E-03 -3.83992464E-11 -5.20911853E-10
  7.73211403E-05  0.00000000E+00  0.00000000E+00  0.00000000E+00  0.00000000E+00
  4.46557510E-05  0.00000000E+00  0.00000000E+00  0.00000000E+00 -5.25706730E-04
  0.00000000E+00  0.00000000E+00  0.00000000E+00  0.00000000E+00  2.93838484E-10
 -8.24329007E-05 -1.99846103E-04  4.87243917E-04 -1.99842213E-04  4.87228867E-04
  1.99842213E-04 -4.87228867E-04  1.99846103E-04 -4.87243917E-04  4.97691452E-01
  1.34342842E-02  3.45570437E-10 -2.19672471E-04 -3.22495935E-04 -2.84325760E-03
  2.16359419E-10  3.80484507E-04 -5.20748736E-04 -1.33162585E-03 -1.01248577E-03
 -8.34489067E-04 -8.88039028E-11 -3.59016005E-10  1.31224596E-04  4.97672364E-01
  1.34337670E-02  6.02478326E-11  2.19673733E-04 -3.22482884E-04 -2.84306209E-03
  1.03757987E-09 -3.80507843E-04 -5.20690349E-04 -1.33157897E-03 -1.01246818E-03
 -8.34467793E-04 -6.81533943E-11 -2.73779796E-10 -1.31217075E-04 -2.95272447E-04
  2.14003869E-04  5.59580333E-11 -4.05852180E-06  0.00000000E+00 -1.85164029E-05
 -3.71139962E-10  6.73737901E-04  0.00000000E+00  1.56151841E-04 -1.95762752E-04
 -4.44621361E-04  1.09570784E-10  0.00000000E+00  0.00000000E+00  4.97672364E-01
  1.34337670E-02  6.02478326E-11  2.19673733E-04  3.22482884E-04 -2.84306209E-03
  1.03757987E-09 -3.80507843E-04  5.20690349E-04 -1.33157897E-03 -1.01246818E-03
 -8.34467793E-04 -6.81533943E-11  2.73779796E-10  1.31217075E-04  4.97691452E-01
  1.34342842E-02  3.45570437E-10 -2.19672471E-04  3.22495935E-04 -2.84325760E-03
  2.16359419E-10  3.80484507E-04  5.20748736E-04 -1.33162585E-03 -1.01248577E-03
 -8.34489067E-04 -8.88039028E-11  3.59016005E-10 -1.31224596E-04 -2.95283026E-04
  2.14021599E-04  1.65890505E-11  4.05739114E-06  0.00000000E+00 -1.85640288E-05
  7.98245897E-10 -6.73775450E-04  0.00000000E+00  1.56161600E-04 -1.95774816E-04
 -4.44643185E-04  2.48484958E-10  0.00000000E+00  0.00000000E+00 -8.73825744E-05
  1.09651254E-03 -8.73843495E-05  1.09645728E-03 -8.73843495E-05  1.09645728E-03
 -8.73825744E-05  1.09651254E-03 -4.97915863E-01 -1.35133183E-02 -3.45413862E-10
 -3.32412962E-05  3.43065406E-04  5.08748739E-03 -2.05401122E-09  6.09602727E-04
  1.53938627E-03  1.23040146E-03  4.56249997E-04  5.56682756E-04 -1.46983635E-11
  6.25998720E-10 -1.99312917E-04  4.97934941E-01  1.35138343E-02  3.93372558E-11
 -3.32328271E-05 -3.43077848E-04 -5.08759604E-03  2.09143688E-09  6.09588405E-04
 -1.53940636E-03 -1.23045275E-03 -4.56288932E-04 -5.56714846E-04 -1.15127793E-10
 -4.19832169E-10 -1.99318072E-04 -2.78266503E-04  4.65935226E-04  9.48905263E-11
  3.27830434E-05  0.00000000E+00 -1.29105352E-03 -6.60734037E-10  9.93662184E-04
  0.00000000E+00  2.57749406E-04 -3.13978259E-04 -5.68046012E-04  1.36787292E-10
  0.00000000E+00  0.00000000E+00  4.97934941E-01  1.35138343E-02  3.93372558E-11
 -3.32328271E-05  3.43077848E-04 -5.08759604E-03  2.09143688E-09  6.09588405E-04
  1.53940636E-03 -1.23045275E-03 -4.56288932E-04 -5.56714846E-04 -1.15127793E-10
  4.19832169E-10  1.99318072E-04 -4.97915863E-01 -1.35133183E-02 -3.45413862E-10
 -3.32412962E-05 -3.43065406E-04  5.08748739E-03 -2.05401122E-09  6.09602727E-04
 -1.53938627E-03  1.23040146E-03  4.56249997E-04  5.56682756E-04 -1.46983635E-11
 -6.25998720E-10  1.99312917E-04  2.78255091E-04 -4.65927028E-04 -1.73885162E-10
  3.27831392E-05  0.00000000E+00  1.29105156E-03 -3.43843323E-10  9.93636058E-04
  0.00000000E+00 -2.57743256E-04  3.13970818E-04  5.68029098E-04 -2.63208817E-10
  0.00000000E+00  0.00000000E+00 -4.69511001E-05 -1.44879292E-03  4.69476625E-05
  1.44883493E-03  4.69476625E-05  1.44883493E-03 -4.69511001E-05 -1.44879292E-03
 -4.97968469E-01 -1.39227395E-02 -4.06264870E-10 -5.48681217E-05  3.29311612E-04
  8.53562772E-03 -4.88082018E-10  3.14417068E-03 -5.97289685E-04  1.13050377E-03
  5.52992329E-04  7.24334298E-04 -1.53255168E-10  7.02885832E-10 -1.55737932E-04
  4.97986779E-01  1.39232459E-02  2.01980899E-10 -5.48670208E-05 -3.29323101E-04
 -8.53573336E-03  3.02247552E-10  3.14418573E-03  5.97306403E-04 -1.13054948E-03
 -5.53029610E-04 -7.24372742E-04 -2.72716697E-10 -5.58596349E-10 -1.55740821E-04
  0.00000000E+00  0.00000000E+00  0.00000000E+00  0.00000000E+00  6.39258773E-05
  0.00000000E+00  0.00000000E+00  0.00000000E+00 -1.00933046E-03  0.00000000E+00
  0.00000000E+00  0.00000000E+00  0.00000000E+00  1.64612283E-10  2.14175220E-04
 -4.97986779E-01 -1.39232459E-02 -2.01980899E-10  5.48670208E-05 -3.29323101E-04
  8.53573336E-03 -3.02247552E-10 -3.14418573E-03  5.97306403E-04  1.13054948E-03
  5.53029610E-04  7.24372742E-04  2.72716697E-10 -5.58596349E-10 -1.55740821E-04
  4.97968469E-01  1.39227395E-02  4.06264870E-10  5.48681217E-05  3.29311612E-04
 -8.53562772E-03  4.88082018E-10 -3.14417068E-03 -5.97289685E-04 -1.13050377E-03
 -5.52992329E-04 -7.24334298E-04  1.53255168E-10  7.02885832E-10 -1.55737932E-04
  0.00000000E+00  0.00000000E+00  0.00000000E+00  0.00000000E+00 -6.39242082E-05
  0.00000000E+00  0.00000000E+00  0.00000000E+00  1.00930995E-03  0.00000000E+00
  0.00000000E+00  0.00000000E+00  0.00000000E+00 -5.76591109E-10  2.14172314E-04
  1.07951628E-04 -4.02718353E-04 -1.07959106E-04  4.02736027E-04  1.07959106E-04
 -4.02736027E-04 -1.07951628E-04  4.02718353E-04 -7.73545672E-02  1.48259464E-01
  2.96445324E-08  2.73353572E-03 -7.30695459E-02  5.75274168E-02 -6.36029127E-09
  5.70647849E-03  3.45872876E-03 -8.40905725E-03  4.68128173E-03  1.02824277E-02
 -3.54859322E-09 -1.60654710E-08  6.01022457E-03 -7.73546053E-02  1.48259533E-01
  6.23092286E-09 -2.73349147E-03 -7.30695817E-02  5.75274549E-02 -5.23432085E-09
 -5.70649474E-03  3.45872637E-03 -8.40906249E-03  4.68128215E-03  1.02824346E-02
 -5.60229051E-10 -8.26729493E-09 -6.01023321E-03 -1.11501801E-01  2.30823542E-01
 -2.02413831E-08 -8.48390991E-02  0.00000000E+00  2.17107482E-01 -7.70006591E-09
 -3.98366805E-02  0.00000000E+00 -8.69417816E-03  5.31063116E-03  5.89303537E-03
  2.48625997E-09  0.00000000E+00  0.00000000E+00 -7.73546053E-02  1.48259533E-01
  6.23092286E-09 -2.73349147E-03  7.30695817E-02  5.75274549E-02 -5.23432085E-09
 -5.70649474E-03 -3.45872637E-03 -8.40906249E-03  4.68128215E-03  1.02824346E-02
 -5.60229051E-10  8.26729493E-09  6.01023321E-03 -7.73545672E-02  1.48259464E-01
  2.96445324E-08  2.73353572E-03  7.30695459E-02  5.75274168E-02 -6.36029127E-09
  5.70647849E-03 -3.45872876E-03 -8.40905725E-03  4.68128173E-03  1.02824277E-02
 -3.54859322E-09  1.60654710E-08 -6.01022457E-03 -1.11501737E-01  2.30823413E-01
 -7.03515205E-08  8.48390475E-02  0.00000000E+00  2.17107372E-01 -3.32931259E-08
  3.98366699E-02  0.00000000E+00 -8.69417439E-03  5.31062803E-03  5.89303663E-03
 -1.25714196E-08  0.00000000E+00  0.00000000E+00  2.23319249E-02 -8.70057228E-04
  2.23319466E-02 -8.70052236E-04  2.23319466E-02 -8.70052236E-04  2.23319249E-02
 -8.70057228E-04  5.67425761E-02 -1.09320203E-01 -4.41552364E-08  6.95881201E-02
  7.77499972E-02 -2.12015325E-02  2.88953175E-08  4.62193751E-03 -2.96785391E-02
  6.37971287E-03  4.51621845E-03 -1.45833158E-02  3.96577340E-09  1.86408393E-08
 -1.04634747E-02 -5.67425373E-02  1.09320126E-01  5.44575087E-09  6.95881619E-02