
    -----------------------------------------------------------------------
          Psi4: An Open-Source Ab Initio Electronic Structure Package
                               Psi4 1.4a3.dev225 

                         Git: Rev {master} 7105e37 


    D. G. A. Smith, L. A. Burns, A. C. Simmonett, R. M. Parrish,
    M. C. Schieber, R. Galvelis, P. Kraus, H. Kruse, R. Di Remigio,
    A. Alenaizan, A. M. James, S. Lehtola, J. P. Misiewicz, M. Scheurer,
    R. A. Shaw, J. B. Schriber, Y. Xie, Z. L. Glick, D. A. Sirianni,
    J. S. O'Brien, J. M. Waldrop, A. Kumar, E. G. Hohenstein,
    B. P. Pritchard, B. R. Brooks, H. F. Schaefer III, A. Yu. Sokolov,
    K. Patkowski, A. E. DePrince III, U. Bozkaya, R. A. King,
    F. A. Evangelista, J. M. Turney, T. D. Crawford, C. D. Sherrill,
    J. Chem. Phys. 152(18) 184108 (2020). https://doi.org/10.1063/5.0006002

                            Additional Code Authors
    E. T. Seidl, C. L. Janssen, E. F. Valeev, M. L. Leininger,
    J. F. Gonthier, R. M. Richard, H. R. McAlexander, M. Saitow, X. Wang,
    P. Verma, and M. H. Lechner

             Previous Authors, Complete List of Code Contributors,
                       and Citations for Specific Modules
    https://github.com/psi4/psi4/blob/master/codemeta.json
    https://github.com/psi4/psi4/graphs/contributors
    http://psicode.org/psi4manual/master/introduction.html#citing-psifour

    -----------------------------------------------------------------------


    Psi4 started on: Saturday, 27 February 2021 03:31PM

    Process ID: 107740
    Host:       c420-003.stampede2.tacc.utexas.edu
    PSIDATADIR: /home1/07844/xy3866/miniconda3/envs/p4env/share/psi4
    Memory:     500.0 MiB
    Threads:    32
    
  ==> Input File <==

--------------------------------------------------------------------------
#psi4
#
memory 32 gb

molecule  {
0 1
  O        1.6580350    -0.9827140     0.3821500
  O       -0.8249020    -1.8470020    -0.1920140
  N       -1.7073370     0.2644950     0.0041840
  N        1.2225400     1.0581630    -0.4400630
  C       -0.6757910    -0.6248990    -0.0657590
  C       -1.6242400     1.6701930     0.3734340
  C       -3.0587270    -0.2617480    -0.1203800
  C        0.7172850    -0.0860290    -0.0289380
  C        2.8466160    -0.3331830     0.2236370
  C        2.5869190     0.9090560    -0.2781450
  H       -2.0624300     2.2861190    -0.4188050
  H       -0.5911340     1.9718700     0.5118620
  H       -2.1906170     1.8355680     1.2974120
  H       -3.5636440    -0.2611770     0.8526080
  H       -3.0040100    -1.2812060    -0.4966650
  H       -3.6263720     0.3669880    -0.8129620
  H        3.7338670    -0.8757360     0.5106220
  H        3.4088407     1.8420596    -0.5850253
units angstrom
no_reorient  #important for SAPT in psi4, default
symmetry c1  #important for SAPT in psi4, default
}

set PROPERTIES_ORIGIN ["COM"]
properties('MP2/aug-cc-pvtz', properties = ['dipole'])
--------------------------------------------------------------------------

  Memory set to  29.802 GiB by Python driver.
    SCF Algorithm Type (re)set to DF.

*** tstart() called on c420-003.stampede2.tacc.utexas.edu
*** at Sat Feb 27 15:31:30 2021

   => Loading Basis Set <=

    Name: AUG-CC-PVTZ
    Role: ORBITAL
    Keyword: BASIS
    atoms 1-2   entry O          line   331 file /home1/07844/xy3866/miniconda3/envs/p4env/share/psi4/basis/aug-cc-pvtz.gbs 
    atoms 3-4   entry N          line   285 file /home1/07844/xy3866/miniconda3/envs/p4env/share/psi4/basis/aug-cc-pvtz.gbs 
    atoms 5-10  entry C          line   239 file /home1/07844/xy3866/miniconda3/envs/p4env/share/psi4/basis/aug-cc-pvtz.gbs 
    atoms 11-18 entry H          line    40 file /home1/07844/xy3866/miniconda3/envs/p4env/share/psi4/basis/aug-cc-pvtz.gbs 


         ---------------------------------------------------------
                                   SCF
               by Justin Turney, Rob Parrish, Andy Simmonett
                          and Daniel G. A. Smith
                              RHF Reference
                       32 Threads,  30517 MiB Core
         ---------------------------------------------------------

  ==> Geometry <==

    Molecular point group: c1
    Full point group: C1

    Geometry (in Angstrom), charge = 0, multiplicity = 1:

       Center              X                  Y                   Z               Mass       
    ------------   -----------------  -----------------  -----------------  -----------------
         O            1.600311258683    -0.943240686976     0.388936303679    15.994914619570
         O           -0.882625741317    -1.807528686976    -0.185227696321    15.994914619570
         N           -1.765060741317     0.303968313024     0.010970303679    14.003074004430
         N            1.164816258683     1.097636313024    -0.433276696321    14.003074004430
         C           -0.733514741317    -0.585425686976    -0.058972696321    12.000000000000
         C           -1.681963741317     1.709666313024     0.380220303679    12.000000000000
         C           -3.116450741317    -0.222274686976    -0.113593696321    12.000000000000
         C            0.659561258683    -0.046555686976    -0.022151696321    12.000000000000
         C            2.788892258683    -0.293709686976     0.230423303679    12.000000000000
         C            2.529195258683     0.948529313024    -0.271358696321    12.000000000000
         H           -2.120153741317     2.325592313024    -0.412018696321     1.007825032230
         H           -0.648857741317     2.011343313024     0.518648303679     1.007825032230
         H           -2.248340741317     1.875041313024     1.304198303679     1.007825032230
         H           -3.621367741317    -0.221703686976     0.859394303679     1.007825032230
         H           -3.061733741317    -1.241732686976    -0.489878696321     1.007825032230
         H           -3.684095741317     0.406461313024    -0.806175696321     1.007825032230
         H            3.676143258683    -0.836262686976     0.517408303679     1.007825032230
         H            3.351116958683     1.881532913024    -0.578238996321     1.007825032230

  Running in c1 symmetry.

  Rotational constants: A =      0.09987  B =      0.03162  C =      0.02497 [cm^-1]
  Rotational constants: A =   2994.06701  B =    947.87895  C =    748.63447 [MHz]
  Nuclear repulsion =  527.388992162682598

  Charge       = 0
  Multiplicity = 1
  Electrons    = 74
  Nalpha       = 37
  Nbeta        = 37

  ==> Algorithm <==

  SCF Algorithm Type is DF.
  DIIS enabled.
  MOM disabled.
  Fractional occupation disabled.
  Guess Type is SAD.
  Energy threshold   = 1.00e-10
  Density threshold  = 1.00e-10
  Integral threshold = 1.00e-12

  ==> Primary Basis <==

  Basis Set: AUG-CC-PVTZ
    Blend: AUG-CC-PVTZ
    Number of shells: 212
    Number of basis functions: 644
    Number of Cartesian functions: 750
    Spherical Harmonics?: true
    Max angular momentum: 3

   => Loading Basis Set <=

    Name: (AUG-CC-PVTZ AUX)
    Role: JKFIT
    Keyword: DF_BASIS_SCF
    atoms 1-2   entry O          line   286 file /home1/07844/xy3866/miniconda3/envs/p4env/share/psi4/basis/aug-cc-pvtz-jkfit.gbs 
    atoms 3-4   entry N          line   224 file /home1/07844/xy3866/miniconda3/envs/p4env/share/psi4/basis/aug-cc-pvtz-jkfit.gbs 
    atoms 5-10  entry C          line   162 file /home1/07844/xy3866/miniconda3/envs/p4env/share/psi4/basis/aug-cc-pvtz-jkfit.gbs 
    atoms 11-18 entry H          line    70 file /home1/07844/xy3866/miniconda3/envs/p4env/share/psi4/basis/aug-cc-pvtz-jkfit.gbs 

  ==> Integral Setup <==

  DFHelper Memory: AOs need 4.068 GiB; user supplied 22.352 GiB. Using in-core AOs.

  ==> MemDFJK: Density-Fitted J/K Matrices <==

    J tasked:                   Yes
    K tasked:                   Yes
    wK tasked:                   No
    OpenMP threads:              32
    Memory [MiB]:             22888
    Algorithm:                 Core
    Schwarz Cutoff:           1E-12
    Mask sparsity (%):      11.0191
    Fitting Condition:        1E-10

   => Auxiliary Basis Set <=

  Basis Set: (AUG-CC-PVTZ AUX)
    Blend: AUG-CC-PVTZ-JKFIT
    Number of shells: 412
    Number of basis functions: 1408
    Number of Cartesian functions: 1750
    Spherical Harmonics?: true
    Max angular momentum: 4

  Minimum eigenvalue in the overlap matrix is 3.0311939349E-06.
  Reciprocal condition number of the overlap matrix is 1.6683949733E-07.
    Using symmetric orthogonalization.

  ==> Pre-Iterations <==

  SCF Guess: Superposition of Atomic Densities via on-the-fly atomic UHF (no occupation information).

   -------------------------
    Irrep   Nso     Nmo    
   -------------------------
     A        644     644 
   -------------------------
    Total     644     644
   -------------------------

  ==> Iterations <==

                           Total Energy        Delta E     RMS |[F,P]|

   @DF-RHF iter SAD:  -489.80516538529679   -4.89805e+02   0.00000e+00 
   @DF-RHF iter   1:  -490.35760019183783   -5.52435e-01   1.07918e-03 DIIS
   @DF-RHF iter   2:  -490.54409407006256   -1.86494e-01   6.53831e-04 DIIS
   @DF-RHF iter   3:  -490.60743162453662   -6.33376e-02   1.50046e-04 DIIS
   @DF-RHF iter   4:  -490.61275891978636   -5.32730e-03   5.18317e-05 DIIS
   @DF-RHF iter   5:  -490.61350022217687   -7.41302e-04   1.35218e-05 DIIS
   @DF-RHF iter   6:  -490.61358824367841   -8.80215e-05   7.30029e-06 DIIS
   @DF-RHF iter   7:  -490.61361519207145   -2.69484e-05   2.73989e-06 DIIS
   @DF-RHF iter   8:  -490.61362104563563   -5.85356e-06   1.16321e-06 DIIS
   @DF-RHF iter   9:  -490.61362181051317   -7.64878e-07   4.86590e-07 DIIS
   @DF-RHF iter  10:  -490.61362191060249   -1.00089e-07   1.51880e-07 DIIS
   @DF-RHF iter  11:  -490.61362192045755   -9.85506e-09   5.96149e-08 DIIS
   @DF-RHF iter  12:  -490.61362192228796   -1.83041e-09   2.97675e-08 DIIS
   @DF-RHF iter  13:  -490.61362192273981   -4.51848e-10   8.48200e-09 DIIS
   @DF-RHF iter  14:  -490.61362192279586   -5.60476e-11   4.27592e-09 DIIS
   @DF-RHF iter  15:  -490.61362192280831   -1.24487e-11   1.83314e-09 DIIS
   @DF-RHF iter  16:  -490.61362192281103   -2.72848e-12   8.41602e-10 DIIS
   @DF-RHF iter  17:  -490.61362192281007    9.66338e-13   3.48713e-10 DIIS
   @DF-RHF iter  18:  -490.61362192281109   -1.02318e-12   1.13486e-10 DIIS
   @DF-RHF iter  19:  -490.61362192281018    9.09495e-13   5.01432e-11 DIIS
  Energy and wave function converged.


  ==> Post-Iterations <==

    Orbital Energies [Eh]
    ---------------------

    Doubly Occupied:                                                      

       1A    -20.654850     2A    -20.528430     3A    -15.602431  
       4A    -15.593822     5A    -11.374883     6A    -11.357788  
       7A    -11.313695     8A    -11.296967     9A    -11.266800  
      10A    -11.259722    11A     -1.499719    12A     -1.383054  
      13A     -1.260633    14A     -1.243588    15A     -1.056014  
      16A     -0.977597    17A     -0.959067    18A     -0.862427  
      19A     -0.837297    20A     -0.774143    21A     -0.726958  
      22A     -0.682675    23A     -0.666240    24A     -0.659589  
      25A     -0.652265    26A     -0.607134    27A     -0.586250  
      28A     -0.569886    29A     -0.563318    30A     -0.562221  
      31A     -0.542112    32A     -0.535264    33A     -0.481133  
      34A     -0.466351    35A     -0.442484    36A     -0.380961  
      37A     -0.351952  

    Virtual:                                                              

      38A      0.025583    39A      0.030120    40A      0.035899  
      41A      0.040333    42A      0.046458    43A      0.056296  
      44A      0.061648    45A      0.068461    46A      0.073414  
      47A      0.078391    48A      0.090695    49A      0.091530  
      50A      0.101052    51A      0.103051    52A      0.108918  
      53A      0.114606    54A      0.116191    55A      0.119291  
      56A      0.121778    57A      0.129144    58A      0.129615  
      59A      0.142738    60A      0.147822    61A      0.149010  
      62A      0.151234    63A      0.161053    64A      0.169136  
      65A      0.170537    66A      0.178384    67A      0.185663  
      68A      0.197092    69A      0.199371    70A      0.207635  
      71A      0.212283    72A      0.215511    73A      0.222475  
      74A      0.235307    75A      0.237398    76A      0.244270  
      77A      0.246391    78A      0.249392    79A      0.251296  
      80A      0.255819    81A      0.263320    82A      0.265640  
      83A      0.271979    84A      0.274898    85A      0.276580  
      86A      0.280260    87A      0.295716    88A      0.306457  
      89A      0.311572    90A      0.315558    91A      0.328463  
      92A      0.334514    93A      0.336564    94A      0.338989  
      95A      0.342742    96A      0.346573    97A      0.356981  
      98A      0.359859    99A      0.361031   100A      0.371467  
     101A      0.372755   102A      0.379461   103A      0.386026  
     104A      0.388097   105A      0.391361   106A      0.397240  
     107A      0.400429   108A      0.406275   109A      0.411007  
     110A      0.417118   111A      0.420613   112A      0.426856  
     113A      0.433214   114A      0.435462   115A      0.440464  
     116A      0.448094   117A      0.452323   118A      0.453110  
     119A      0.460687   120A      0.465452   121A      0.472444  
     122A      0.473633   123A      0.475130   124A      0.479699  
     125A      0.485101   126A      0.487783   127A      0.497020  
     128A      0.502779   129A      0.508299   130A      0.514483  
     131A      0.520740   132A      0.526303   133A      0.528472  
     134A      0.538313   135A      0.544283   136A      0.548344  
     137A      0.550413   138A      0.560220   139A      0.564363  
     140A      0.567877   141A      0.573671   142A      0.576156  
     143A      0.580775   144A      0.583074   145A      0.595132  
     146A      0.602807   147A      0.609178   148A      0.618914  
     149A      0.625280   150A      0.631874   151A      0.640138  
     152A      0.652580   153A      0.658160   154A      0.668887  
     155A      0.681604   156A      0.688820   157A      0.696237  
     158A      0.702975   159A      0.708833   160A      0.721368  
     161A      0.729856   162A      0.737978   163A      0.741705  
     164A      0.753273   165A      0.765240   166A      0.770905  
     167A      0.778580   168A      0.784857   169A      0.795228  
     170A      0.801081   171A      0.808298   172A      0.818562  
     173A      0.822955   174A      0.825509   175A      0.832226  
     176A      0.841426   177A      0.848415   178A      0.856574  
     179A      0.861836   180A      0.868874   181A      0.876338  
     182A      0.879942   183A      0.889982   184A      0.895983  
     185A      0.905822   186A      0.909754   187A      0.914206  
     188A      0.916865   189A      0.919729   190A      0.927326  
     191A      0.935581   192A      0.939112   193A      0.942965  
     194A      0.945926   195A      0.955499   196A      0.958559  
     197A      0.968082   198A      0.971402   199A      0.979580  
     200A      0.981018   201A      0.989479   202A      0.998891  
     203A      1.002345   204A      1.011975   205A      1.015643  
     206A      1.019631   207A      1.028273   208A      1.035475  
     209A      1.044246   210A      1.046845   211A      1.054538  
     212A      1.061600   213A      1.067409   214A      1.071861  
     215A      1.078425   216A      1.086015   217A      1.094919  
     218A      1.097324   219A      1.100467   220A      1.109398  
     221A      1.115666   222A      1.118650   223A      1.127953  
     224A      1.130262   225A      1.135383   226A      1.142425  
     227A      1.144622   228A      1.155096   229A      1.163923  
     230A      1.166365   231A      1.175085   232A      1.184215  
     233A      1.189448   234A      1.203198   235A      1.204606  
     236A      1.222831   237A      1.226949   238A      1.231183  
     239A      1.237565   240A      1.248660   241A      1.262811  
     242A      1.267590   243A      1.279401   244A      1.285881  
     245A      1.288878   246A      1.306856   247A      1.313439  
     248A      1.316570   249A      1.324783   250A      1.335407  
     251A      1.361308   252A      1.364394   253A      1.377693  
     254A      1.383895   255A      1.389921   256A      1.396374  
     257A      1.410298   258A      1.411295   259A      1.414698  
     260A      1.424179   261A      1.436597   262A      1.447968  
     263A      1.454667   264A      1.462171   265A      1.465140  
     266A      1.471522   267A      1.483857   268A      1.494751  
     269A      1.509069   270A      1.516163   271A      1.525409  
     272A      1.535460   273A      1.539798   274A      1.541282  
     275A      1.546923   276A      1.552376   277A      1.569878  
     278A      1.576434   279A      1.585858   280A      1.596756  
     281A      1.601288   282A      1.611259   283A      1.625551  
     284A      1.629757   285A      1.645763   286A      1.657071  
     287A      1.662934   288A      1.672482   289A      1.672832  
     290A      1.684889   291A      1.697273   292A      1.700018  
     293A      1.705858   294A      1.720904   295A      1.727811  
     296A      1.732844   297A      1.735202   298A      1.741969  
     299A      1.745147   300A      1.761062   301A      1.770038  
     302A      1.778285   303A      1.783341   304A      1.795350  
     305A      1.809644   306A      1.818736   307A      1.829170  
     308A      1.833501   309A      1.840062   310A      1.855178  
     311A      1.856946   312A      1.866211   313A      1.870490  
     314A      1.888223   315A      1.896704   316A      1.906247  
     317A      1.915814   318A      1.927164   319A      1.943097  
     320A      1.947422   321A      1.959802   322A      1.986535  
     323A      2.009878   324A      2.010323   325A      2.020812  
     326A      2.035506   327A      2.038168   328A      2.046877  
     329A      2.057016   330A      2.080341   331A      2.090941  
     332A      2.098320   333A      2.105095   334A      2.130200  
     335A      2.137860   336A      2.151013   337A      2.159203  
     338A      2.175239   339A      2.187427   340A      2.200839  
     341A      2.210895   342A      2.217534   343A      2.222259  
     344A      2.229163   345A      2.242909   346A      2.272522  
     347A      2.283502   348A      2.293228   349A      2.300102  
     350A      2.320359   351A      2.334784   352A      2.340610  
     353A      2.353850   354A      2.364029   355A      2.385099  
     356A      2.390354   357A      2.401421   358A      2.408330  
     359A      2.426058   360A      2.430833   361A      2.447010  
     362A      2.457137   363A      2.482093   364A      2.492254  
     365A      2.499261   366A      2.526999   367A      2.537215  
     368A      2.540786   369A      2.555139   370A      2.568650  
     371A      2.574783   372A      2.589373   373A      2.599757  
     374A      2.613802   375A      2.627947   376A      2.652539  
     377A      2.659867   378A      2.669674   379A      2.680865  
     380A      2.699224   381A      2.701059   382A      2.724122  
     383A      2.753381   384A      2.764718   385A      2.787047  
     386A      2.798275   387A      2.842633   388A      2.858524  
     389A      2.870663   390A      2.891748   391A      2.916604  
     392A      2.950500   393A      2.959733   394A      2.986249  
     395A      3.006071   396A      3.033657   397A      3.039338  
     398A      3.071381   399A      3.079720   400A      3.087270  
     401A      3.128472   402A      3.136702   403A      3.147075  
     404A      3.172711   405A      3.192194   406A      3.215196  
     407A      3.253208   408A      3.267385   409A      3.298838  
     410A      3.308871   411A      3.312718   412A      3.321609  
     413A      3.342262   414A      3.344725   415A      3.370904  
     416A      3.410156   417A      3.423568   418A      3.434705  
     419A      3.448268   420A      3.449736   421A      3.468504  
     422A      3.489547   423A      3.512305   424A      3.528642  
     425A      3.545586   426A      3.558367   427A      3.570912  
     428A      3.580338   429A      3.609698   430A      3.623947  
     431A      3.628856   432A      3.635815   433A      3.665338  
     434A      3.668546   435A      3.682957   436A      3.692317  
     437A      3.698121   438A      3.713022   439A      3.726912  
     440A      3.729335   441A      3.737622   442A      3.750721  
     443A      3.763076   444A      3.776326   445A      3.789295  
     446A      3.802046   447A      3.813983   448A      3.821028  
     449A      3.826719   450A      3.851076   451A      3.855670  
     452A      3.859585   453A      3.875368   454A      3.889910  
     455A      3.901444   456A      3.915782   457A      3.920466  
     458A      3.933885   459A      3.945501   460A      3.954841  
     461A      3.971979   462A      3.979433   463A      4.001920  
     464A      4.014653   465A      4.021555   466A      4.032098  
     467A      4.039967   468A      4.057712   469A      4.074735  
     470A      4.082976   471A      4.083390   472A      4.108045  
     473A      4.117989   474A      4.123375   475A      4.135808  
     476A      4.142944   477A      4.161243   478A      4.171161  
     479A      4.176240   480A      4.199338   481A      4.208057  
     482A      4.226704   483A      4.233704   484A      4.244745  
     485A      4.253214   486A      4.254769   487A      4.278771  
     488A      4.290241   489A      4.304162   490A      4.325175  
     491A      4.338995   492A      4.353278   493A      4.358289  
     494A      4.372148   495A      4.385092   496A      4.399404  
     497A      4.413441   498A      4.429626   499A      4.431854  
     500A      4.445094   501A      4.464365   502A      4.475224  
     503A      4.496904   504A      4.508761   505A      4.526750  
     506A      4.558022   507A      4.565533   508A      4.581419  
     509A      4.601193   510A      4.631287   511A      4.653452  
     512A      4.668995   513A      4.685669   514A      4.707868  
     515A      4.725063   516A      4.733453   517A      4.750928  
     518A      4.772148   519A      4.792095   520A      4.799286  
     521A      4.817542   522A      4.840687   523A      4.851281  
     524A      4.862619   525A      4.882613   526A      4.893005  
     527A      4.904933   528A      4.936843   529A      4.940748  
     530A      4.947471   531A      4.964590   532A      4.985503  
     533A      5.008128   534A      5.018480   535A      5.036714  
     536A      5.050303   537A      5.066384   538A      5.094723  
     539A      5.125471   540A      5.145346   541A      5.146131  
     542A      5.170906   543A      5.175810   544A      5.203931  
     545A      5.224540   546A      5.261311   547A      5.275496  
     548A      5.283032   549A      5.310059   550A      5.320724  
     551A      5.351369   552A      5.380957   553A      5.413749  
     554A      5.429211   555A      5.466092   556A      5.498244  
     557A      5.519710   558A      5.536419   559A      5.559052  
     560A      5.563561   561A      5.597675   562A      5.608861  
     563A      5.623672   564A      5.664835   565A      5.695085  
     566A      5.708700   567A      5.720292   568A      5.725640  
     569A      5.755235   570A      5.768250   571A      5.801851  
     572A      5.841584   573A      5.850486   574A      5.882725  
     575A      5.908498   576A      5.917372   577A      5.930029  
     578A      5.931138   579A      5.976449   580A      6.027690  
     581A      6.063444   582A      6.094615   583A      6.135438  
     584A      6.140389   585A      6.176962   586A      6.207838  
     587A      6.231886   588A      6.253366   589A      6.292164  
     590A      6.296542   591A      6.329270   592A      6.376134  
     593A      6.395388   594A      6.466589   595A      6.531148  
     596A      6.555730   597A      6.578998   598A      6.602530  
     599A      6.617694   600A      6.738532   601A      6.746909  
     602A      6.769251   603A      6.778076   604A      6.811056  
     605A      6.818003   606A      6.859171   607A      6.887576  
     608A      6.901851   609A      6.906111   610A      6.927037  
     611A      6.950879   612A      6.966396   613A      7.019409  
     614A      7.039801   615A      7.057367   616A      7.084049  
     617A      7.112651   618A      7.238998   619A      7.262536  
     620A      7.370524   621A      7.463412   622A      7.469497  
     623A      7.523139   624A      7.567144   625A      7.637262  
     626A      7.725373   627A      7.730551   628A      7.770480  
     629A      7.803517   630A      7.863512   631A      7.967541  
     632A      8.055566   633A      8.344885   634A      8.423691  
     635A     14.502752   636A     15.925869   637A     16.151840  
     638A     16.383834   639A     17.191394   640A     17.899971  
     641A     18.035041   642A     18.351985   643A     19.216750  
     644A     20.796851  

    Final Occupation by Irrep:
              A 
    DOCC [    37 ]

  @DF-RHF Final Energy:  -490.61362192281018

   => Energetics <=

    Nuclear Repulsion Energy =            527.3889921626825981
    One-Electron Energy =               -1714.8457938528667910
    Two-Electron Energy =                 696.8431797673739538
    Total Energy =                       -490.6136219228102391

Computation Completed

*** tstop() called on c420-003.stampede2.tacc.utexas.edu at Sat Feb 27 15:32:04 2021
Module time:
	user time   =     632.24 seconds =      10.54 minutes
	system time =      46.12 seconds =       0.77 minutes
	total time  =         34 seconds =       0.57 minutes
Total time:
	user time   =     632.24 seconds =      10.54 minutes
	system time =      46.12 seconds =       0.77 minutes
	total time  =         34 seconds =       0.57 minutes
   => Loading Basis Set <=

    Name: (AUG-CC-PVTZ AUX)
    Role: RIFIT
    Keyword: DF_BASIS_MP2
    atoms 1-2   entry O          line   264 file /home1/07844/xy3866/miniconda3/envs/p4env/share/psi4/basis/aug-cc-pvtz-ri.gbs 
    atoms 3-4   entry N          line   206 file /home1/07844/xy3866/miniconda3/envs/p4env/share/psi4/basis/aug-cc-pvtz-ri.gbs 
    atoms 5-10  entry C          line   148 file /home1/07844/xy3866/miniconda3/envs/p4env/share/psi4/basis/aug-cc-pvtz-ri.gbs 
    atoms 11-18 entry H          line    30 file /home1/07844/xy3866/miniconda3/envs/p4env/share/psi4/basis/aug-cc-pvtz-ri.gbs 


*** tstart() called on c420-003.stampede2.tacc.utexas.edu
*** at Sat Feb 27 15:32:05 2021


  //>>>>>>>>>>>>>>>>>>>>>>>>>>>>>>>>>>>//
  //               DFMP2               //
  //<<<<<<<<<<<<<<<<<<<<<<<<<<<<<<<<<<<//

	 --------------------------------------------------------
	                          DF-MP2                         
	      2nd-Order Density-Fitted Moller-Plesset Theory     
	              RMP2 Wavefunction,  32 Threads             
	                                                         
	        Rob Parrish, Justin Turney, Andy Simmonett,      
	           Ed Hohenstein, and C. David Sherrill          
	 --------------------------------------------------------

   => Auxiliary Basis Set <=

  Basis Set: (AUG-CC-PVTZ AUX)
    Blend: AUG-CC-PVTZ-RI
    Number of shells: 392
    Number of basis functions: 1428
    Number of Cartesian functions: 1800
    Spherical Harmonics?: true
    Max angular momentum: 4

	 --------------------------------------------------------
	                 NBF =   644, NAUX =  1428
	 --------------------------------------------------------
	   CLASS    FOCC     OCC    AOCC    AVIR     VIR    FVIR
	   PAIRS       0      37      37     607     607       0
	 --------------------------------------------------------

  DFHelper Memory: AOs need 4.254 GiB; user supplied 22.352 GiB. Using in-core AOs.


         ------------------------------------------------------------
                                     CPHF                           
                                  Rob Parrish                       
         ------------------------------------------------------------

  ==> Geometry <==

    Molecular point group: c1
    Full point group: C1

    Geometry (in Angstrom), charge = 0, multiplicity = 1:

       Center              X                  Y                   Z               Mass       
    ------------   -----------------  -----------------  -----------------  -----------------
         O            1.600311258683    -0.943240686976     0.388936303679    15.994914619570
         O           -0.882625741317    -1.807528686976    -0.185227696321    15.994914619570
         N           -1.765060741317     0.303968313024     0.010970303679    14.003074004430
         N            1.164816258683     1.097636313024    -0.433276696321    14.003074004430
         C           -0.733514741317    -0.585425686976    -0.058972696321    12.000000000000
         C           -1.681963741317     1.709666313024     0.380220303679    12.000000000000
         C           -3.116450741317    -0.222274686976    -0.113593696321    12.000000000000
         C            0.659561258683    -0.046555686976    -0.022151696321    12.000000000000
         C            2.788892258683    -0.293709686976     0.230423303679    12.000000000000
         C            2.529195258683     0.948529313024    -0.271358696321    12.000000000000
         H           -2.120153741317     2.325592313024    -0.412018696321     1.007825032230
         H           -0.648857741317     2.011343313024     0.518648303679     1.007825032230
         H           -2.248340741317     1.875041313024     1.304198303679     1.007825032230
         H           -3.621367741317    -0.221703686976     0.859394303679     1.007825032230
         H           -3.061733741317    -1.241732686976    -0.489878696321     1.007825032230
         H           -3.684095741317     0.406461313024    -0.806175696321     1.007825032230
         H            3.676143258683    -0.836262686976     0.517408303679     1.007825032230
         H            3.351116958683     1.881532913024    -0.578238996321     1.007825032230

  Nuclear repulsion =  527.388992162682598
  Reference energy  = -490.613621922810182

  ==> Basis Set <==

  Basis Set: AUG-CC-PVTZ
    Blend: AUG-CC-PVTZ
    Number of shells: 212
    Number of basis functions: 644
    Number of Cartesian functions: 750
    Spherical Harmonics?: true
    Max angular momentum: 3

  ==> CGRSolver (by Rob Parrish) <==

   Number of roots    =         1
   Preconditioning    =    JACOBI
   Convergence cutoff =     1E-06
   Maximum iterations =       100

  ==> CPHFRHamiltonian (by Rob Parrish) <== 

  ==> MemDFJK: Density-Fitted J/K Matrices <==

    J tasked:                   Yes
    K tasked:                   Yes
    wK tasked:                   No
    OpenMP threads:              32
    Memory [MiB]:             22888
    Algorithm:                 Core
    Schwarz Cutoff:           1E-12
    Mask sparsity (%):       6.7484
    Fitting Condition:        1E-10

   => Auxiliary Basis Set <=

  Basis Set: (AUG-CC-PVTZ AUX)
    Blend: AUG-CC-PVTZ-JKFIT
    Number of shells: 412
    Number of basis functions: 1408
    Number of Cartesian functions: 1750
    Spherical Harmonics?: true
    Max angular momentum: 4

  ==> CPHF Iterations <==

  => Iterations <=

             Iter  Converged  Remaining    Residual
  CGR           1          0          1   1.286E-01
  CGR           2          0          1   4.485E-02
  CGR           3          0          1   2.008E-02
  CGR           4          0          1   7.099E-03
  CGR           5          0          1   2.761E-03
  CGR           6          0          1   1.085E-03
  CGR           7          0          1   3.974E-04
  CGR           8          0          1   1.673E-04
  CGR           9          0          1   6.735E-05
  CGR          10          0          1   2.965E-05
  CGR          11          0          1   1.221E-05
  CGR          12          0          1   4.645E-06
  CGR          13          0          1   1.577E-06
  CGR          14          1          0   4.332E-07

    CGRSolver converged.

	-----------------------------------------------------------
	 ==================> DF-MP2 Energies <==================== 
	-----------------------------------------------------------
	 Reference Energy          =    -490.6136219228101822 [Eh]
	 Singles Energy            =      -0.0000000000000000 [Eh]
	 Same-Spin Energy          =      -0.5071062084749055 [Eh]
	 Opposite-Spin Energy      =      -1.5521928192337406 [Eh]
	 Correlation Energy        =      -2.0592990277086463 [Eh]
	 Total Energy              =    -492.6729209505188010 [Eh]
	-----------------------------------------------------------
	 ================> DF-SCS-MP2 Energies <================== 
	-----------------------------------------------------------
	 SCS Same-Spin Scale       =       0.3333333333333333 [-]
	 SCS Opposite-Spin Scale   =       1.2000000000000000 [-]
	 SCS Same-Spin Energy      =      -0.1690354028249685 [Eh]
	 SCS Opposite-Spin Energy  =      -1.8626313830804886 [Eh]
	 SCS Correlation Energy    =      -2.0316667859054571 [Eh]
	 SCS Total Energy          =    -492.6452887087156114 [Eh]
	-----------------------------------------------------------



Properties will be evaluated at  -0.000000,  -0.000000,   0.000000 [a0]

Properties computed using the MP2 density matrix

  Nuclear Dipole Moment: [e a0]
     X:    -7.8295      Y:     5.7953      Z:     0.8584

  Electronic Dipole Moment: [e a0]
     X:     7.9583      Y:    -4.6994      Z:    -0.4856

  Dipole Moment: [e a0]
     X:     0.1288      Y:     1.0959      Z:     0.3729     Total:     1.1647

  Dipole Moment: [D]
     X:     0.3275      Y:     2.7855      Z:     0.9477     Total:     2.9604


*** tstop() called on c420-003.stampede2.tacc.utexas.edu at Sat Feb 27 15:35:32 2021
Module time:
	user time   =    1771.59 seconds =      29.53 minutes
	system time =      63.24 seconds =       1.05 minutes
	total time  =        207 seconds =       3.45 minutes
Total time:
	user time   =    2404.74 seconds =      40.08 minutes
	system time =     109.38 seconds =       1.82 minutes
	total time  =        242 seconds =       4.03 minutes

    Psi4 stopped on: Saturday, 27 February 2021 03:35PM
    Psi4 wall time for execution: 0:04:02.78

*** Psi4 exiting successfully. Buy a developer a beer!
