
    -----------------------------------------------------------------------
          Psi4: An Open-Source Ab Initio Electronic Structure Package
                               Psi4 1.3.2 release

                         Git: Rev {HEAD} ecbda83 


    R. M. Parrish, L. A. Burns, D. G. A. Smith, A. C. Simmonett,
    A. E. DePrince III, E. G. Hohenstein, U. Bozkaya, A. Yu. Sokolov,
    R. Di Remigio, R. M. Richard, J. F. Gonthier, A. M. James,
    H. R. McAlexander, A. Kumar, M. Saitow, X. Wang, B. P. Pritchard,
    P. Verma, H. F. Schaefer III, K. Patkowski, R. A. King, E. F. Valeev,
    F. A. Evangelista, J. M. Turney, T. D. Crawford, and C. D. Sherrill,
    J. Chem. Theory Comput. 13(7) pp 3185--3197 (2017).
    (doi: 10.1021/acs.jctc.7b00174)


                         Additional Contributions by
    P. Kraus, H. Kruse, M. H. Lechner, M. C. Schieber, R. A. Shaw,
    A. Alenaizan, R. Galvelis, Z. L. Glick, S. Lehtola, and J. P. Misiewicz

    -----------------------------------------------------------------------


    Psi4 started on: Tuesday, 17 November 2020 01:21PM

    Process ID: 23371
    Host:       node142.bme.utexas.edu
    PSIDATADIR: /home/xy3866/psi4conda/share/psi4
    Memory:     500.0 MiB
    Threads:    8
    
  ==> Input File <==

--------------------------------------------------------------------------
#psi4
#
memory 32 gb

molecule  {
0 1
 Br       -0.0296780     1.5366143     0.1091283
 Br       -2.8699640    -0.4854280    -0.2337770
 Br        2.8699250    -0.4854600    -0.2337790
  C       -0.0000100    -0.4202620     0.0447250
  C       -1.2431490    -0.9529940     0.7369810
  C        1.2431140    -0.9530360     0.7369740
  H       -0.0000150    -0.6893630    -1.0135150
  H       -1.3458500    -0.5442600     1.7429190
  H       -1.2174500    -2.0447140     0.7751110
  H        1.3458210    -0.5443190     1.7429160
  H        1.2173960    -2.0447570     0.7750850
units angstrom
no_reorient  #important for SAPT in psi4, default
symmetry c1  #important for SAPT in psi4, default
}

set PROPERTIES_ORIGIN ["COM"]
properties('MP2/aug-cc-pvtz', properties = ['dipole'])
--------------------------------------------------------------------------

  Memory set to  29.802 GiB by Python driver.
    SCF Algorithm Type (re)set to DF.

*** tstart() called on node142.bme.utexas.edu
*** at Tue Nov 17 13:21:19 2020

   => Loading Basis Set <=

    Name: AUG-CC-PVTZ
    Role: ORBITAL
    Keyword: BASIS
    atoms 1-3  entry BR         line  4204 file /home/xy3866/psi4conda/share/psi4/basis/aug-cc-pvtz.gbs 
    atoms 4-6  entry C          line   235 file /home/xy3866/psi4conda/share/psi4/basis/aug-cc-pvtz.gbs 
    atoms 7-11 entry H          line    36 file /home/xy3866/psi4conda/share/psi4/basis/aug-cc-pvtz.gbs 


         ---------------------------------------------------------
                                   SCF
               by Justin Turney, Rob Parrish, Andy Simmonett
                          and Daniel G. A. Smith
                              RHF Reference
                        8 Threads,  30517 MiB Core
         ---------------------------------------------------------

  ==> Geometry <==

    Molecular point group: c1
    Full point group: C1

    Geometry (in Angstrom), charge = 0, multiplicity = 1:

       Center              X                  Y                   Z               Mass       
    ------------   -----------------  -----------------  -----------------  -----------------
         BR          -0.021233419338     1.497674135473     0.130757143433    78.918337600000
         BR          -2.861519419338    -0.524368164527    -0.212148156567    78.918337600000
         BR           2.878369580662    -0.524400164527    -0.212150156567    78.918337600000
         C            0.008434580662    -0.459202164527     0.066353843433    12.000000000000
         C           -1.234704419338    -0.991934164527     0.758609843433    12.000000000000
         C            1.251558580662    -0.991976164527     0.758602843433    12.000000000000
         H            0.008429580662    -0.728303164527    -0.991886156567     1.007825032230
         H           -1.337405419338    -0.583200164527     1.764547843433     1.007825032230
         H           -1.209005419338    -2.083654164527     0.796739843433     1.007825032230
         H            1.354265580662    -0.583259164527     1.764544843433     1.007825032230
         H            1.225840580662    -2.083697164527     0.796713843433     1.007825032230

  Running in c1 symmetry.

  Rotational constants: A =      0.05866  B =      0.01227  C =      0.01053 [cm^-1]
  Rotational constants: A =   1758.52375  B =    367.74774  C =    315.70799 [MHz]
  Nuclear repulsion = 1009.115090356109022

  Charge       = 0
  Multiplicity = 1
  Electrons    = 128
  Nalpha       = 64
  Nbeta        = 64

  ==> Algorithm <==

  SCF Algorithm Type is DF.
  DIIS enabled.
  MOM disabled.
  Fractional occupation disabled.
  Guess Type is SAD.
  Energy threshold   = 1.00e-10
  Density threshold  = 1.00e-10
  Integral threshold = 0.00e+00

  ==> Primary Basis <==

  Basis Set: AUG-CC-PVTZ
    Blend: AUG-CC-PVTZ
    Number of shells: 144
    Number of basis function: 430
    Number of Cartesian functions: 497
    Spherical Harmonics?: true
    Max angular momentum: 3

   => Loading Basis Set <=

    Name: (AUG-CC-PVTZ AUX)
    Role: JKFIT
    Keyword: DF_BASIS_SCF
    atoms 1-3  entry BR         line  1492 file /home/xy3866/psi4conda/share/psi4/basis/aug-cc-pvtz-jkfit.gbs 
    atoms 4-6  entry C          line   162 file /home/xy3866/psi4conda/share/psi4/basis/aug-cc-pvtz-jkfit.gbs 
    atoms 7-11 entry H          line    70 file /home/xy3866/psi4conda/share/psi4/basis/aug-cc-pvtz-jkfit.gbs 

  ==> Pre-Iterations <==

   -------------------------------------------------------
    Irrep   Nso     Nmo     Nalpha   Nbeta   Ndocc  Nsocc
   -------------------------------------------------------
     A        430     430       0       0       0       0
   -------------------------------------------------------
    Total     430     430      64      64      64       0
   -------------------------------------------------------

  ==> Integral Setup <==

  DFHelper Memory: AOs need 1.805 GiB; user supplied 22.352 GiB. Using in-core AOs.

  ==> MemDFJK: Density-Fitted J/K Matrices <==

    J tasked:                   Yes
    K tasked:                   Yes
    wK tasked:                   No
    OpenMP threads:               8
    Memory [MiB]:             22888
    Algorithm:                 Core
    Schwarz Cutoff:           1E-12
    Mask sparsity (%):       1.5068
    Fitting Condition:        1E-10

   => Auxiliary Basis Set <=

  Basis Set: (AUG-CC-PVTZ AUX)
    Blend: AUG-CC-PVTZ-JKFIT
    Number of shells: 334
    Number of basis function: 1286
    Number of Cartesian functions: 1655
    Spherical Harmonics?: true
    Max angular momentum: 4

  Minimum eigenvalue in the overlap matrix is 9.5311267512E-06.
  Using Symmetric Orthogonalization.

  SCF Guess: Superposition of Atomic Densities via on-the-fly atomic UHF.

  ==> Iterations <==

                           Total Energy        Delta E     RMS |[F,P]|

   @DF-RHF iter SAD: -7828.75150787327311   -7.82875e+03   0.00000e+00 
   @DF-RHF iter   1: -7833.43285338020814   -4.68135e+00   3.86335e-03 DIIS
   @DF-RHF iter   2: -7833.84779258295839   -4.14939e-01   1.77545e-03 DIIS
   @DF-RHF iter   3: -7833.93939573883290   -9.16032e-02   1.19525e-04 DIIS
   @DF-RHF iter   4: -7833.94122245307153   -1.82671e-03   6.35377e-05 DIIS
   @DF-RHF iter   5: -7833.94170415311419   -4.81700e-04   1.31527e-05 DIIS
   @DF-RHF iter   6: -7833.94173560614308   -3.14530e-05   4.07075e-06 DIIS
   @DF-RHF iter   7: -7833.94173896653501   -3.36039e-06   1.28619e-06 DIIS
   @DF-RHF iter   8: -7833.94173940039491   -4.33860e-07   4.35022e-07 DIIS
   @DF-RHF iter   9: -7833.94173944830709   -4.79122e-08   1.20095e-07 DIIS
   @DF-RHF iter  10: -7833.94173945171133   -3.40424e-09   2.36744e-08 DIIS
   @DF-RHF iter  11: -7833.94173945182501   -1.13687e-10   7.64216e-09 DIIS
   @DF-RHF iter  12: -7833.94173945184048   -1.54614e-11   2.91708e-09 DIIS
   @DF-RHF iter  13: -7833.94173945185048   -1.00044e-11   1.04157e-09 DIIS
   @DF-RHF iter  14: -7833.94173945184230    8.18545e-12   3.46239e-10 DIIS
   @DF-RHF iter  15: -7833.94173945184684   -4.54747e-12   1.02326e-10 DIIS
   @DF-RHF iter  16: -7833.94173945184502    1.81899e-12   3.58672e-11 DIIS
  Energy and wave function converged.


  ==> Post-Iterations <==

    Orbital Energies [Eh]
    ---------------------

    Doubly Occupied:                                                      

       1A   -490.026702     2A   -490.026239     3A   -490.022794  
       4A    -65.166534     5A    -65.166078     6A    -65.162746  
       7A    -58.521861     8A    -58.521405     9A    -58.520420  
      10A    -58.520394    11A    -58.519964    12A    -58.519936  
      13A    -58.518047    14A    -58.516629    15A    -58.516592  
      16A    -11.332100    17A    -11.321698    18A    -11.321054  
      19A     -9.839222    20A     -9.838774    21A     -9.835482  
      22A     -7.450853    23A     -7.450406    24A     -7.447057  
      25A     -7.444011    26A     -7.443859    27A     -7.443567  
      28A     -7.443406    29A     -7.440312    30A     -7.440144  
      31A     -3.194525    32A     -3.194080    33A     -3.191035  
      34A     -3.190857    35A     -3.190698    36A     -3.190594  
      37A     -3.190403    38A     -3.187288    39A     -3.187028  
      40A     -3.182040    41A     -3.182039    42A     -3.181588  
      43A     -3.181587    44A     -3.178358    45A     -3.178355  
      46A     -1.163975    47A     -1.075070    48A     -1.026641  
      49A     -0.970335    50A     -0.897660    51A     -0.824713  
      52A     -0.687292    53A     -0.639456    54A     -0.624856  
      55A     -0.605358    56A     -0.527830    57A     -0.497010  
      58A     -0.493309    59A     -0.429916    60A     -0.428065  
      61A     -0.418564    62A     -0.411054    63A     -0.408067  
      64A     -0.396913  

    Virtual:                                                              

      65A      0.023509    66A      0.036408    67A      0.043806  
      68A      0.044401    69A      0.058404    70A      0.060863  
      71A      0.065120    72A      0.068119    73A      0.089861  
      74A      0.108178    75A      0.110510    76A      0.114715  
      77A      0.118061    78A      0.118745    79A      0.120225  
      80A      0.124414    81A      0.129124    82A      0.137055  
      83A      0.137613    84A      0.144118    85A      0.148040  
      86A      0.151572    87A      0.157017    88A      0.160743  
      89A      0.171182    90A      0.176084    91A      0.185038  
      92A      0.208547    93A      0.211420    94A      0.221911  
      95A      0.234255    96A      0.250270    97A      0.256831  
      98A      0.260989    99A      0.271764   100A      0.273696  
     101A      0.280866   102A      0.289220   103A      0.300867  
     104A      0.305712   105A      0.315984   106A      0.319672  
     107A      0.322710   108A      0.341772   109A      0.349063  
     110A      0.350198   111A      0.352155   112A      0.356057  
     113A      0.359295   114A      0.363805   115A      0.381990  
     116A      0.384959   117A      0.386108   118A      0.392131  
     119A      0.401207   120A      0.404894   121A      0.418500  
     122A      0.420162   123A      0.432889   124A      0.434384  
     125A      0.440397   126A      0.448240   127A      0.453956  
     128A      0.458655   129A      0.463173   130A      0.474492  
     131A      0.480886   132A      0.488029   133A      0.496676  
     134A      0.497623   135A      0.513019   136A      0.515348  
     137A      0.521210   138A      0.539285   139A      0.550916  
     140A      0.552091   141A      0.564885   142A      0.568523  
     143A      0.577082   144A      0.587806   145A      0.589390  
     146A      0.594704   147A      0.599899   148A      0.616758  
     149A      0.626669   150A      0.640442   151A      0.669173  
     152A      0.672226   153A      0.680299   154A      0.694373  
     155A      0.708651   156A      0.714544   157A      0.730608  
     158A      0.743722   159A      0.745561   160A      0.757989  
     161A      0.766477   162A      0.783550   163A      0.791875  
     164A      0.794881   165A      0.802294   166A      0.812505  
     167A      0.820487   168A      0.823299   169A      0.836206  
     170A      0.848653   171A      0.849428   172A      0.853436  
     173A      0.858876   174A      0.865667   175A      0.875573  
     176A      0.880503   177A      0.892709   178A      0.898914  
     179A      0.902443   180A      0.912959   181A      0.920813  
     182A      0.926418   183A      0.939857   184A      0.942281  
     185A      0.965269   186A      0.973725   187A      0.983543  
     188A      0.986992   189A      1.005737   190A      1.007717  
     191A      1.021083   192A      1.037079   193A      1.053956  
     194A      1.056139   195A      1.068437   196A      1.070562  
     197A      1.070704   198A      1.081196   199A      1.096241  
     200A      1.097905   201A      1.102847   202A      1.112014  
     203A      1.118692   204A      1.144207   205A      1.154656  
     206A      1.164515   207A      1.164899   208A      1.187617  
     209A      1.199473   210A      1.204030   211A      1.210457  
     212A      1.224595   213A      1.241573   214A      1.262785  
     215A      1.265971   216A      1.285499   217A      1.295920  
     218A      1.315766   219A      1.319599   220A      1.334463  
     221A      1.347706   222A      1.360958   223A      1.374453  
     224A      1.377460   225A      1.395601   226A      1.413535  
     227A      1.429676   228A      1.431000   229A      1.445406  
     230A      1.449779   231A      1.460984   232A      1.463163  
     233A      1.483047   234A      1.492828   235A      1.496357  
     236A      1.500033   237A      1.516866   238A      1.527299  
     239A      1.532284   240A      1.556215   241A      1.568314  
     242A      1.569838   243A      1.584205   244A      1.619907  
     245A      1.631395   246A      1.632984   247A      1.649278  
     248A      1.654622   249A      1.664330   250A      1.675159  
     251A      1.690717   252A      1.706120   253A      1.716993  
     254A      1.725127   255A      1.759337   256A      1.759838  
     257A      1.798201   258A      1.800338   259A      1.829858  
     260A      1.831755   261A      1.840652   262A      1.900799  
     263A      1.902336   264A      1.910062   265A      1.918250  
     266A      1.933829   267A      1.945717   268A      1.965906  
     269A      1.991355   270A      2.009592   271A      2.020240  
     272A      2.061109   273A      2.069061   274A      2.102905  
     275A      2.121085   276A      2.139368   277A      2.167347  
     278A      2.177971   279A      2.191002   280A      2.196860  
     281A      2.201270   282A      2.249040   283A      2.253943  
     284A      2.264431   285A      2.284004   286A      2.285719  
     287A      2.302249   288A      2.313415   289A      2.324652  
     290A      2.333455   291A      2.340575   292A      2.366491  
     293A      2.371382   294A      2.378924   295A      2.385081  
     296A      2.399473   297A      2.407959   298A      2.422032  
     299A      2.427321   300A      2.434068   301A      2.438492  
     302A      2.446385   303A      2.463824   304A      2.474543  
     305A      2.478122   306A      2.487903   307A      2.489782  
     308A      2.521001   309A      2.529310   310A      2.533973  
     311A      2.543321   312A      2.550215   313A      2.570950  
     314A      2.572222   315A      2.607262   316A      2.625732  
     317A      2.650023   318A      2.695251   319A      2.708307  
     320A      2.713400   321A      2.736128   322A      2.761512  
     323A      2.764789   324A      2.785742   325A      2.789883  
     326A      2.827576   327A      2.831499   328A      2.897180  
     329A      2.910934   330A      2.951696   331A      3.042798  
     332A      3.049708   333A      3.085887   334A      3.177952  
     335A      3.282194   336A      3.301677   337A      3.339011  
     338A      3.384942   339A      3.461707   340A      3.474781  
     341A      3.496241   342A      3.520001   343A      3.573252  
     344A      3.576938   345A      3.588149   346A      3.618440  
     347A      3.623194   348A      3.649084   349A      3.685822  
     350A      3.699752   351A      3.723890   352A      3.757245  
     353A      3.809656   354A      3.834351   355A      3.839744  
     356A      3.879617   357A      3.885123   358A      3.886470  
     359A      3.907883   360A      3.962549   361A      3.986252  
     362A      4.018350   363A      4.030873   364A      4.052478  
     365A      4.075308   366A      4.077384   367A      4.086774  
     368A      4.115013   369A      4.132689   370A      4.170663  
     371A      4.172540   372A      4.179070   373A      4.227578  
     374A      4.248721   375A      4.267437   376A      4.315372  
     377A      4.346239   378A      4.371007   379A      4.379770  
     380A      4.410055   381A      4.420058   382A      4.498567  
     383A      4.525388   384A      4.566521   385A      4.616208  
     386A      4.638047   387A      4.684226   388A      4.694412  
     389A      4.778928   390A      4.802457   391A      4.823149  
     392A      4.851197   393A      4.894492   394A      4.989463  
     395A      5.005408   396A      5.021594   397A      5.056547  
     398A      5.087142   399A      5.099821   400A      5.114641  
     401A      5.142084   402A      5.175754   403A      5.194156  
     404A      5.227673   405A      5.252623   406A      5.267836  
     407A      5.317057   408A      5.368553   409A      5.394390  
     410A      5.444138   411A      5.455375   412A      5.581401  
     413A      5.604157   414A      5.717952   415A      5.773047  
     416A      5.863707   417A      5.874124   418A      5.953122  
     419A      5.955836   420A      6.068008   421A      6.137029  
     422A      6.142019   423A      6.291947   424A      6.402208  
     425A      6.596524   426A      6.730559   427A      6.768307  
     428A     16.958566   429A     17.010103   430A     17.675816  

    Final Occupation by Irrep:
              A 
    DOCC [    64 ]

  @DF-RHF Final Energy: -7833.94173945184502

   => Energetics <=

    Nuclear Repulsion Energy =           1009.1150903561090217
    One-Electron Energy =              -12919.9839765959131910
    Two-Electron Energy =                4076.9271467879598276
    Total Energy =                      -7833.9417394518450237

Computation Completed

*** tstop() called on node142.bme.utexas.edu at Tue Nov 17 13:21:42 2020
Module time:
	user time   =     128.87 seconds =       2.15 minutes
	system time =       3.49 seconds =       0.06 minutes
	total time  =         23 seconds =       0.38 minutes
Total time:
	user time   =     128.87 seconds =       2.15 minutes
	system time =       3.49 seconds =       0.06 minutes
	total time  =         23 seconds =       0.38 minutes
   => Loading Basis Set <=

    Name: (AUG-CC-PVTZ AUX)
    Role: RIFIT
    Keyword: DF_BASIS_MP2
    atoms 1-3  entry BR         line  1248 file /home/xy3866/psi4conda/share/psi4/basis/aug-cc-pvtz-ri.gbs 
    atoms 4-6  entry C          line   148 file /home/xy3866/psi4conda/share/psi4/basis/aug-cc-pvtz-ri.gbs 
    atoms 7-11 entry H          line    30 file /home/xy3866/psi4conda/share/psi4/basis/aug-cc-pvtz-ri.gbs 


*** tstart() called on node142.bme.utexas.edu
*** at Tue Nov 17 13:21:42 2020


  //>>>>>>>>>>>>>>>>>>>>>>>>>>>>>>>>>>>//
  //               DFMP2               //
  //<<<<<<<<<<<<<<<<<<<<<<<<<<<<<<<<<<<//

	 --------------------------------------------------------
	                          DF-MP2                         
	      2nd-Order Density-Fitted Moller-Plesset Theory     
	              RMP2 Wavefunction,   8 Threads             
	                                                         
	        Rob Parrish, Justin Turney, Andy Simmonett,      
	           Ed Hohenstein, and C. David Sherrill          
	 --------------------------------------------------------

   => Auxiliary Basis Set <=

  Basis Set: (AUG-CC-PVTZ AUX)
    Blend: AUG-CC-PVTZ-RI
    Number of shells: 283
    Number of basis function: 1121
    Number of Cartesian functions: 1466
    Spherical Harmonics?: true
    Max angular momentum: 5

	 --------------------------------------------------------
	                 NBF =   430, NAUX =  1121
	 --------------------------------------------------------
	   CLASS    FOCC     OCC    AOCC    AVIR     VIR    FVIR
	   PAIRS       0      64      64     366     366       0
	 --------------------------------------------------------

  DFHelper Memory: AOs need 1.805 GiB; user supplied 22.352 GiB. Using in-core AOs.


         ------------------------------------------------------------
                                     CPHF                           
                                  Rob Parrish                       
         ------------------------------------------------------------

  ==> Geometry <==

    Molecular point group: c1
    Full point group: C1

    Geometry (in Angstrom), charge = 0, multiplicity = 1:

       Center              X                  Y                   Z               Mass       
    ------------   -----------------  -----------------  -----------------  -----------------
         BR          -0.021233419338     1.497674135473     0.130757143433    78.918337600000
         BR          -2.861519419338    -0.524368164527    -0.212148156567    78.918337600000
         BR           2.878369580662    -0.524400164527    -0.212150156567    78.918337600000
         C            0.008434580662    -0.459202164527     0.066353843433    12.000000000000
         C           -1.234704419338    -0.991934164527     0.758609843433    12.000000000000
         C            1.251558580662    -0.991976164527     0.758602843433    12.000000000000
         H            0.008429580662    -0.728303164527    -0.991886156567     1.007825032230
         H           -1.337405419338    -0.583200164527     1.764547843433     1.007825032230
         H           -1.209005419338    -2.083654164527     0.796739843433     1.007825032230
         H            1.354265580662    -0.583259164527     1.764544843433     1.007825032230
         H            1.225840580662    -2.083697164527     0.796713843433     1.007825032230

  Nuclear repulsion = 1009.115090356109022
  Reference energy  = -7833.941739451845024

  ==> Basis Set <==

  Basis Set: AUG-CC-PVTZ
    Blend: AUG-CC-PVTZ
    Number of shells: 144
    Number of basis function: 430
    Number of Cartesian functions: 497
    Spherical Harmonics?: true
    Max angular momentum: 3

  ==> CGRSolver (by Rob Parrish) <==

   Number of roots    =         1
   Preconditioning    =    JACOBI
   Convergence cutoff =     1E-06
   Maximum iterations =       100

  ==> CPHFRHamiltonian (by Rob Parrish) <== 

  ==> MemDFJK: Density-Fitted J/K Matrices <==

    J tasked:                   Yes
    K tasked:                   Yes
    wK tasked:                   No
    OpenMP threads:               8
    Memory [MiB]:             22888
    Algorithm:                 Core
    Schwarz Cutoff:           1E-12
    Mask sparsity (%):       1.5068
    Fitting Condition:        1E-10

   => Auxiliary Basis Set <=

  Basis Set: (AUG-CC-PVTZ AUX)
    Blend: AUG-CC-PVTZ-JKFIT
    Number of shells: 334
    Number of basis function: 1286
    Number of Cartesian functions: 1655
    Spherical Harmonics?: true
    Max angular momentum: 4

  ==> CPHF Iterations <==

  => Iterations <=

             Iter  Converged  Remaining    Residual
  CGR           1          0          1   7.888E-02
  CGR           2          0          1   3.613E-02
  CGR           3          0          1   4.563E-03
  CGR           4          0          1   1.427E-03
  CGR           5          0          1   4.512E-04
  CGR           6          0          1   1.706E-04
  CGR           7          0          1   5.403E-05
  CGR           8          0          1   1.379E-05
  CGR           9          0          1   3.975E-06
  CGR          10          0          1   1.392E-06
  CGR          11          1          0   3.912E-07

    CGRSolver converged.

	-----------------------------------------------------------
	 ==================> DF-MP2 Energies <==================== 
	-----------------------------------------------------------
	 Reference Energy          =   -7833.9417394518450237 [Eh]
	 Singles Energy            =      -0.0000000000000000 [Eh]
	 Same-Spin Energy          =      -0.3997756553063049 [Eh]
	 Opposite-Spin Energy      =      -1.0594032297855476 [Eh]
	 Correlation Energy        =      -1.4591788850918523 [Eh]
	 Total Energy              =   -7835.4009183369371385 [Eh]
	-----------------------------------------------------------
	 ================> DF-SCS-MP2 Energies <================== 
	-----------------------------------------------------------
	 SCS Same-Spin Scale       =       0.3333333333333333 [-]
	 SCS Opposite-Spin Scale   =       1.2000000000000000 [-]
	 SCS Same-Spin Energy      =      -0.1332585517687683 [Eh]
	 SCS Opposite-Spin Energy  =      -1.2712838757426570 [Eh]
	 SCS Correlation Energy    =      -1.4045424275114253 [Eh]
	 SCS Total Energy          =   -7835.3462818793568658 [Eh]
	-----------------------------------------------------------



Properties will be evaluated at   0.000000,   0.000000,  -0.000000 [a0]

Properties computed using the MP2 density matrix

  Nuclear Dipole Moment: [e a0]
     X:     0.0764      Y:    -9.4658      Z:     6.3459

  Electronic Dipole Moment: [e a0]
     X:    -0.0703      Y:     8.6319      Z:    -5.7757

  Dipole Moment: [e a0]
     X:     0.0061      Y:    -0.8339      Z:     0.5702     Total:     1.0103

  Dipole Moment: [D]
     X:     0.0155      Y:    -2.1197      Z:     1.4494     Total:     2.5679


*** tstop() called on node142.bme.utexas.edu at Tue Nov 17 13:23:18 2020
Module time:
	user time   =     581.08 seconds =       9.68 minutes
	system time =      13.02 seconds =       0.22 minutes
	total time  =         96 seconds =       1.60 minutes
Total time:
	user time   =     710.85 seconds =      11.85 minutes
	system time =      16.57 seconds =       0.28 minutes
	total time  =        119 seconds =       1.98 minutes

    Psi4 stopped on: Tuesday, 17 November 2020 01:23PM
    Psi4 wall time for execution: 0:01:59.43

*** Psi4 exiting successfully. Buy a developer a beer!
