
    -----------------------------------------------------------------------
          Psi4: An Open-Source Ab Initio Electronic Structure Package
                               Psi4 1.3.2 release

                         Git: Rev {HEAD} ecbda83 


    R. M. Parrish, L. A. Burns, D. G. A. Smith, A. C. Simmonett,
    A. E. DePrince III, E. G. Hohenstein, U. Bozkaya, A. Yu. Sokolov,
    R. Di Remigio, R. M. Richard, J. F. Gonthier, A. M. James,
    H. R. McAlexander, A. Kumar, M. Saitow, X. Wang, B. P. Pritchard,
    P. Verma, H. F. Schaefer III, K. Patkowski, R. A. King, E. F. Valeev,
    F. A. Evangelista, J. M. Turney, T. D. Crawford, and C. D. Sherrill,
    J. Chem. Theory Comput. 13(7) pp 3185--3197 (2017).
    (doi: 10.1021/acs.jctc.7b00174)


                         Additional Contributions by
    P. Kraus, H. Kruse, M. H. Lechner, M. C. Schieber, R. A. Shaw,
    A. Alenaizan, R. Galvelis, Z. L. Glick, S. Lehtola, and J. P. Misiewicz

    -----------------------------------------------------------------------


    Psi4 started on: Friday, 06 November 2020 06:31PM

    Process ID: 63609
    Host:       node142.bme.utexas.edu
    PSIDATADIR: /home/xy3866/psi4conda/share/psi4
    Memory:     500.0 MiB
    Threads:    8
    
  ==> Input File <==

--------------------------------------------------------------------------
#psi4
#
memory 32 gb

molecule  {
0 1
 Br       -0.0593960     1.5353115     0.1259551
 Br       -2.8699640    -0.4854280    -0.2337770
 Br        2.8699250    -0.4854600    -0.2337790
  C       -0.0000100    -0.4202620     0.0447250
  C       -1.2431490    -0.9529940     0.7369810
  C        1.2431140    -0.9530360     0.7369740
  H       -0.0000150    -0.6893630    -1.0135150
  H       -1.3458500    -0.5442600     1.7429190
  H       -1.2174500    -2.0447140     0.7751110
  H        1.3458210    -0.5443190     1.7429160
  H        1.2173960    -2.0447570     0.7750850
units angstrom
no_reorient  #important for SAPT in psi4, default
symmetry c1  #important for SAPT in psi4, default
}

set PROPERTIES_ORIGIN ["COM"]
properties('MP2/aug-cc-pvtz', properties = ['dipole'])
--------------------------------------------------------------------------

  Memory set to  29.802 GiB by Python driver.
    SCF Algorithm Type (re)set to DF.

*** tstart() called on node142.bme.utexas.edu
*** at Fri Nov  6 18:31:21 2020

   => Loading Basis Set <=

    Name: AUG-CC-PVTZ
    Role: ORBITAL
    Keyword: BASIS
    atoms 1-3  entry BR         line  4204 file /home/xy3866/psi4conda/share/psi4/basis/aug-cc-pvtz.gbs 
    atoms 4-6  entry C          line   235 file /home/xy3866/psi4conda/share/psi4/basis/aug-cc-pvtz.gbs 
    atoms 7-11 entry H          line    36 file /home/xy3866/psi4conda/share/psi4/basis/aug-cc-pvtz.gbs 


         ---------------------------------------------------------
                                   SCF
               by Justin Turney, Rob Parrish, Andy Simmonett
                          and Daniel G. A. Smith
                              RHF Reference
                        8 Threads,  30517 MiB Core
         ---------------------------------------------------------

  ==> Geometry <==

    Molecular point group: c1
    Full point group: C1

    Geometry (in Angstrom), charge = 0, multiplicity = 1:

       Center              X                  Y                   Z               Mass       
    ------------   -----------------  -----------------  -----------------  -----------------
         BR          -0.042508854013     1.496741446992     0.142803629878    78.918337600000
         BR          -2.853076854013    -0.523998053008    -0.216928470122    78.918337600000
         BR           2.886812145987    -0.524030053008    -0.216930470122    78.918337600000
         C            0.016877145987    -0.458832053008     0.061573529878    12.000000000000
         C           -1.226261854013    -0.991564053008     0.753829529878    12.000000000000
         C            1.260001145987    -0.991606053008     0.753822529878    12.000000000000
         H            0.016872145987    -0.727933053008    -0.996666470122     1.007825032230
         H           -1.328962854013    -0.582830053008     1.759767529878     1.007825032230
         H           -1.200562854013    -2.083284053008     0.791959529878     1.007825032230
         H            1.362708145987    -0.582889053008     1.759764529878     1.007825032230
         H            1.234283145987    -2.083327053008     0.791933529878     1.007825032230

  Running in c1 symmetry.

  Rotational constants: A =      0.05865  B =      0.01226  C =      0.01053 [cm^-1]
  Rotational constants: A =   1758.39468  B =    367.65259  C =    315.70148 [MHz]
  Nuclear repulsion = 1009.213459909094468

  Charge       = 0
  Multiplicity = 1
  Electrons    = 128
  Nalpha       = 64
  Nbeta        = 64

  ==> Algorithm <==

  SCF Algorithm Type is DF.
  DIIS enabled.
  MOM disabled.
  Fractional occupation disabled.
  Guess Type is SAD.
  Energy threshold   = 1.00e-10
  Density threshold  = 1.00e-10
  Integral threshold = 0.00e+00

  ==> Primary Basis <==

  Basis Set: AUG-CC-PVTZ
    Blend: AUG-CC-PVTZ
    Number of shells: 144
    Number of basis function: 430
    Number of Cartesian functions: 497
    Spherical Harmonics?: true
    Max angular momentum: 3

   => Loading Basis Set <=

    Name: (AUG-CC-PVTZ AUX)
    Role: JKFIT
    Keyword: DF_BASIS_SCF
    atoms 1-3  entry BR         line  1492 file /home/xy3866/psi4conda/share/psi4/basis/aug-cc-pvtz-jkfit.gbs 
    atoms 4-6  entry C          line   162 file /home/xy3866/psi4conda/share/psi4/basis/aug-cc-pvtz-jkfit.gbs 
    atoms 7-11 entry H          line    70 file /home/xy3866/psi4conda/share/psi4/basis/aug-cc-pvtz-jkfit.gbs 

  ==> Pre-Iterations <==

   -------------------------------------------------------
    Irrep   Nso     Nmo     Nalpha   Nbeta   Ndocc  Nsocc
   -------------------------------------------------------
     A        430     430       0       0       0       0
   -------------------------------------------------------
    Total     430     430      64      64      64       0
   -------------------------------------------------------

  ==> Integral Setup <==

  DFHelper Memory: AOs need 1.805 GiB; user supplied 22.352 GiB. Using in-core AOs.

  ==> MemDFJK: Density-Fitted J/K Matrices <==

    J tasked:                   Yes
    K tasked:                   Yes
    wK tasked:                   No
    OpenMP threads:               8
    Memory [MiB]:             22888
    Algorithm:                 Core
    Schwarz Cutoff:           1E-12
    Mask sparsity (%):       1.5057
    Fitting Condition:        1E-10

   => Auxiliary Basis Set <=

  Basis Set: (AUG-CC-PVTZ AUX)
    Blend: AUG-CC-PVTZ-JKFIT
    Number of shells: 334
    Number of basis function: 1286
    Number of Cartesian functions: 1655
    Spherical Harmonics?: true
    Max angular momentum: 4

  Minimum eigenvalue in the overlap matrix is 9.4153531929E-06.
  Using Symmetric Orthogonalization.

  SCF Guess: Superposition of Atomic Densities via on-the-fly atomic UHF.

  ==> Iterations <==

                           Total Energy        Delta E     RMS |[F,P]|

   @DF-RHF iter SAD: -7828.75328706040546   -7.82875e+03   0.00000e+00 
   @DF-RHF iter   1: -7833.43264400575845   -4.67936e+00   3.86343e-03 DIIS
   @DF-RHF iter   2: -7833.84756508778992   -4.14921e-01   1.77543e-03 DIIS
   @DF-RHF iter   3: -7833.93915518254653   -9.15901e-02   1.19402e-04 DIIS
   @DF-RHF iter   4: -7833.94097957038048   -1.82439e-03   6.34697e-05 DIIS
   @DF-RHF iter   5: -7833.94146005731272   -4.80487e-04   1.31495e-05 DIIS
   @DF-RHF iter   6: -7833.94149148594897   -3.14286e-05   4.06993e-06 DIIS
   @DF-RHF iter   7: -7833.94149484502668   -3.35908e-06   1.28591e-06 DIIS
   @DF-RHF iter   8: -7833.94149527892569   -4.33899e-07   4.35341e-07 DIIS
   @DF-RHF iter   9: -7833.94149532685242   -4.79267e-08   1.20414e-07 DIIS
   @DF-RHF iter  10: -7833.94149533025939   -3.40697e-09   2.40376e-08 DIIS
   @DF-RHF iter  11: -7833.94149533040127   -1.41881e-10   7.87848e-09 DIIS
   @DF-RHF iter  12: -7833.94149533040945   -8.18545e-12   3.01931e-09 DIIS
   @DF-RHF iter  13: -7833.94149533041764   -8.18545e-12   1.13882e-09 DIIS
   @DF-RHF iter  14: -7833.94149533040218    1.54614e-11   4.28757e-10 DIIS
   @DF-RHF iter  15: -7833.94149533042673   -2.45564e-11   1.09058e-10 DIIS
   @DF-RHF iter  16: -7833.94149533040309    2.36469e-11   4.02304e-11 DIIS
  Energy and wave function converged.


  ==> Post-Iterations <==

    Orbital Energies [Eh]
    ---------------------

    Doubly Occupied:                                                      

       1A   -490.026938     2A   -490.026015     3A   -490.022843  
       4A    -65.166766     5A    -65.165857     6A    -65.162801  
       7A    -58.522094     8A    -58.521184     9A    -58.520653  
      10A    -58.520627    11A    -58.519744    12A    -58.519715  
      13A    -58.518101    14A    -58.516683    15A    -58.516645  
      16A    -11.332170    17A    -11.321947    18A    -11.320661  
      19A     -9.839451    20A     -9.838557    21A     -9.835543  
      22A     -7.451081    23A     -7.450189    24A     -7.447119  
      25A     -7.444239    26A     -7.444090    27A     -7.443353  
      28A     -7.443187    29A     -7.440374    30A     -7.440203  
      31A     -3.194752    32A     -3.193864    33A     -3.191260  
      34A     -3.191088    35A     -3.190759    36A     -3.190381  
      37A     -3.190183    38A     -3.187351    39A     -3.187088  
      40A     -3.182271    41A     -3.182270    42A     -3.181371  
      43A     -3.181370    44A     -3.178417    45A     -3.178413  
      46A     -1.164135    47A     -1.075109    48A     -1.026581  
      49A     -0.970254    50A     -0.897657    51A     -0.824863  
      52A     -0.687309    53A     -0.639516    54A     -0.624859  
      55A     -0.605255    56A     -0.527799    57A     -0.497099  
      58A     -0.493292    59A     -0.430465    60A     -0.427571  
      61A     -0.418688    62A     -0.411053    63A     -0.408113  
      64A     -0.396851  

    Virtual:                                                              

      65A      0.023538    66A      0.036411    67A      0.043767  
      68A      0.044410    69A      0.058392    70A      0.060867  
      71A      0.065100    72A      0.068150    73A      0.089896  
      74A      0.108172    75A      0.110489    76A      0.114673  
      77A      0.118027    78A      0.118794    79A      0.120205  
      80A      0.124382    81A      0.129095    82A      0.136979  
      83A      0.137590    84A      0.144046    85A      0.148062  
      86A      0.151544    87A      0.157023    88A      0.160686  
      89A      0.171218    90A      0.176076    91A      0.185035  
      92A      0.208324    93A      0.211706    94A      0.221915  
      95A      0.234249    96A      0.250407    97A      0.256845  
      98A      0.261316    99A      0.271556   100A      0.273696  
     101A      0.280955   102A      0.289220   103A      0.300360  
     104A      0.305961   105A      0.315879   106A      0.319824  
     107A      0.322683   108A      0.341624   109A      0.348928  
     110A      0.350274   111A      0.352769   112A      0.355963  
     113A      0.359041   114A      0.363883   115A      0.382037  
     116A      0.384791   117A      0.386146   118A      0.392014  
     119A      0.401068   120A      0.405098   121A      0.418663  
     122A      0.420051   123A      0.432642   124A      0.434327  
     125A      0.440346   126A      0.448504   127A      0.453918  
     128A      0.458734   129A      0.463311   130A      0.474343  
     131A      0.481358   132A      0.488041   133A      0.496342  
     134A      0.497984   135A      0.512587   136A      0.515671  
     137A      0.521338   138A      0.540120   139A      0.550412  
     140A      0.552830   141A      0.564495   142A      0.568001  
     143A      0.577567   144A      0.588302   145A      0.589379  
     146A      0.594955   147A      0.599738   148A      0.616195  
     149A      0.626796   150A      0.640087   151A      0.668883  
     152A      0.672372   153A      0.681050   154A      0.693764  
     155A      0.707902   156A      0.714976   157A      0.730211  
     158A      0.743263   159A      0.745894   160A      0.757704  
     161A      0.766303   162A      0.782491   163A      0.791945  
     164A      0.794932   165A      0.802742   166A      0.812404  
     167A      0.820800   168A      0.823399   169A      0.836068  
     170A      0.848763   171A      0.850191   172A      0.853441  
     173A      0.859138   174A      0.865955   175A      0.875131  
     176A      0.880765   177A      0.892212   178A      0.898890  
     179A      0.902515   180A      0.912707   181A      0.920847  
     182A      0.926243   183A      0.939910   184A      0.942365  
     185A      0.965396   186A      0.973253   187A      0.983966  
     188A      0.987912   189A      1.006365   190A      1.007316  
     191A      1.020756   192A      1.036817   193A      1.053578  
     194A      1.054310   195A      1.068524   196A      1.070801  
     197A      1.072395   198A      1.081708   199A      1.095594  
     200A      1.098372   201A      1.102154   202A      1.112404  
     203A      1.118064   204A      1.145215   205A      1.154840  
     206A      1.164428   207A      1.165556   208A      1.187446  
     209A      1.199838   210A      1.203755   211A      1.210574  
     212A      1.224768   213A      1.241809   214A      1.262475  
     215A      1.266198   216A      1.285339   217A      1.295994  
     218A      1.314992   219A      1.320408   220A      1.334998  
     221A      1.350030   222A      1.360371   223A      1.373796  
     224A      1.378171   225A      1.395129   226A      1.413512  
     227A      1.429364   228A      1.431875   229A      1.445441  
     230A      1.448914   231A      1.461073   232A      1.464938  
     233A      1.482488   234A      1.492634   235A      1.496231  
     236A      1.500690   237A      1.516235   238A      1.526925  
     239A      1.532420   240A      1.556339   241A      1.567940  
     242A      1.570009   243A      1.583580   244A      1.619832  
     245A      1.630825   246A      1.634054   247A      1.649217  
     248A      1.654067   249A      1.664036   250A      1.675784  
     251A      1.691617   252A      1.705651   253A      1.717044  
     254A      1.725775   255A      1.758835   256A      1.759952  
     257A      1.798534   258A      1.799745   259A      1.829587  
     260A      1.831978   261A      1.841004   262A      1.899807  
     263A      1.902833   264A      1.910767   265A      1.918231  
     266A      1.935606   267A      1.944266   268A      1.966144  
     269A      1.991791   270A      2.008426   271A      2.020232  
     272A      2.060502   273A      2.069040   274A      2.102952  
     275A      2.120879   276A      2.139118   277A      2.167288  
     278A      2.177726   279A      2.191464   280A      2.196423  
     281A      2.201562   282A      2.249000   283A      2.253669  
     284A      2.264662   285A      2.283448   286A      2.285672  
     287A      2.302348   288A      2.314322   289A      2.324644  
     290A      2.333432   291A      2.341051   292A      2.366509  
     293A      2.371297   294A      2.377908   295A      2.385632  
     296A      2.399499   297A      2.408092   298A      2.422374  
     299A      2.427292   300A      2.433012   301A      2.440290  
     302A      2.445899   303A      2.462489   304A      2.475234  
     305A      2.479425   306A      2.487895   307A      2.489406  
     308A      2.521452   309A      2.528834   310A      2.535328  
     311A      2.543127   312A      2.549859   313A      2.570376  
     314A      2.573320   315A      2.608385   316A      2.625904  
     317A      2.650299   318A      2.695782   319A      2.707066  
     320A      2.712537   321A      2.737076   322A      2.761925  
     323A      2.765532   324A      2.786304   325A      2.791386  
     326A      2.824844   327A      2.833015   328A      2.899399  
     329A      2.910052   330A      2.948769   331A      3.042152  
     332A      3.051108   333A      3.085203   334A      3.179571  
     335A      3.283019   336A      3.304033   337A      3.338508  
     338A      3.385385   339A      3.462020   340A      3.475642  
     341A      3.495896   342A      3.520162   343A      3.572719  
     344A      3.577486   345A      3.589894   346A      3.617598  
     347A      3.624126   348A      3.649015   349A      3.685874  
     350A      3.699814   351A      3.723173   352A      3.758081  
     353A      3.809748   354A      3.834615   355A      3.839733  
     356A      3.879411   357A      3.884877   358A      3.887267  
     359A      3.908527   360A      3.960607   361A      3.986374  
     362A      4.017535   363A      4.031109   364A      4.053983  
     365A      4.075163   366A      4.079314   367A      4.088488  
     368A      4.117705   369A      4.132665   370A      4.170243  
     371A      4.173145   372A      4.178888   373A      4.228068  
     374A      4.247990   375A      4.269017   376A      4.314724  
     377A      4.345247   378A      4.369984   379A      4.379905  
     380A      4.409847   381A      4.417835   382A      4.498759  
     383A      4.523828   384A      4.566377   385A      4.615566  
     386A      4.638055   387A      4.683422   388A      4.693920  
     389A      4.779594   390A      4.802627   391A      4.825312  
     392A      4.851363   393A      4.895013   394A      4.990705  
     395A      5.005525   396A      5.023016   397A      5.056751  
     398A      5.086668   399A      5.099511   400A      5.115591  
     401A      5.141531   402A      5.175512   403A      5.194341  
     404A      5.227499   405A      5.252683   406A      5.267898  
     407A      5.317100   408A      5.368622   409A      5.394463  
     410A      5.444788   411A      5.455438   412A      5.583210  
     413A      5.604005   414A      5.718197   415A      5.775137  
     416A      5.864274   417A      5.873851   418A      5.953205  
     419A      5.956445   420A      6.067159   421A      6.136806  
     422A      6.144329   423A      6.290309   424A      6.402311  
     425A      6.598705   426A      6.730865   427A      6.768329  
     428A     16.961365   429A     17.023708   430A     17.671700  

    Final Occupation by Irrep:
              A 
    DOCC [    64 ]

  @DF-RHF Final Energy: -7833.94149533040309

   => Energetics <=

    Nuclear Repulsion Energy =           1009.2134599090944675
    One-Electron Energy =              -12920.1776429554320202
    Two-Electron Energy =                4077.0226877159338983
    Total Energy =                      -7833.9414953304030860

Computation Completed

*** tstop() called on node142.bme.utexas.edu at Fri Nov  6 18:31:59 2020
Module time:
	user time   =     224.68 seconds =       3.74 minutes
	system time =       5.01 seconds =       0.08 minutes
	total time  =         38 seconds =       0.63 minutes
Total time:
	user time   =     224.68 seconds =       3.74 minutes
	system time =       5.01 seconds =       0.08 minutes
	total time  =         38 seconds =       0.63 minutes
   => Loading Basis Set <=

    Name: (AUG-CC-PVTZ AUX)
    Role: RIFIT
    Keyword: DF_BASIS_MP2
    atoms 1-3  entry BR         line  1248 file /home/xy3866/psi4conda/share/psi4/basis/aug-cc-pvtz-ri.gbs 
    atoms 4-6  entry C          line   148 file /home/xy3866/psi4conda/share/psi4/basis/aug-cc-pvtz-ri.gbs 
    atoms 7-11 entry H          line    30 file /home/xy3866/psi4conda/share/psi4/basis/aug-cc-pvtz-ri.gbs 


*** tstart() called on node142.bme.utexas.edu
*** at Fri Nov  6 18:31:59 2020


  //>>>>>>>>>>>>>>>>>>>>>>>>>>>>>>>>>>>//
  //               DFMP2               //
  //<<<<<<<<<<<<<<<<<<<<<<<<<<<<<<<<<<<//

	 --------------------------------------------------------
	                          DF-MP2                         
	      2nd-Order Density-Fitted Moller-Plesset Theory     
	              RMP2 Wavefunction,   8 Threads             
	                                                         
	        Rob Parrish, Justin Turney, Andy Simmonett,      
	           Ed Hohenstein, and C. David Sherrill          
	 --------------------------------------------------------

   => Auxiliary Basis Set <=

  Basis Set: (AUG-CC-PVTZ AUX)
    Blend: AUG-CC-PVTZ-RI
    Number of shells: 283
    Number of basis function: 1121
    Number of Cartesian functions: 1466
    Spherical Harmonics?: true
    Max angular momentum: 5

	 --------------------------------------------------------
	                 NBF =   430, NAUX =  1121
	 --------------------------------------------------------
	   CLASS    FOCC     OCC    AOCC    AVIR     VIR    FVIR
	   PAIRS       0      64      64     366     366       0
	 --------------------------------------------------------


Traceback (most recent call last):
  File "/home/xy3866/psi4conda/bin/psi4", line 287, in <module>
    exec(content)
  File "<string>", line 40, in <module>
  File "/home/xy3866/psi4conda/lib//python3.7/site-packages/psi4/driver/driver.py", line 816, in properties
    return driver_cbs._cbs_gufunc(properties, lowername, ptype='properties', **kwargs)
  File "/home/xy3866/psi4conda/lib//python3.7/site-packages/psi4/driver/driver_cbs.py", line 1949, in _cbs_gufunc
    ptype_value, wfn = func(method_name, return_wfn=True, molecule=molecule, **kwargs)
  File "/home/xy3866/psi4conda/lib//python3.7/site-packages/psi4/driver/driver.py", line 826, in properties
    wfn = procedures['properties'][lowername](lowername, **kwargs)
  File "/home/xy3866/psi4conda/lib//python3.7/site-packages/psi4/driver/procrouting/proc.py", line 194, in select_mp2_property
    return func(name, **kwargs)
  File "/home/xy3866/psi4conda/lib//python3.7/site-packages/psi4/driver/procrouting/proc.py", line 2701, in run_dfmp2_property
    grad = dfmp2_wfn.compute_gradient()

RuntimeError: 
Fatal Error: PSIO Error
Error occurred in file: /scratch/psilocaluser/conda-builds/psi4-multiout_1557940846948/work/psi4/src/psi4/libpsio/error.cc on line: 128
The most recent 5 function calls were:

psi::PSIO::rw(unsigned long, char*, psi::psio_address, unsigned long, int)



Printing out the relevant lines from the Psithon --> Python processed input file:
    no_reorient 
    symmetry c1 
    """)
    core.IO.set_default_namespace("")
    core.set_global_option("PROPERTIES_ORIGIN", ["COM"])
--> properties('MP2/aug-cc-pvtz', properties = ['dipole'])

    Psi4 stopped on: Friday, 06 November 2020 06:32PM
    Psi4 wall time for execution: 0:01:32.01

*** Psi4 encountered an error. Buy a developer more coffee!
*** Resources and help at github.com/psi4/psi4.
