
    -----------------------------------------------------------------------
          Psi4: An Open-Source Ab Initio Electronic Structure Package
                               Psi4 1.3.2 release

                         Git: Rev {HEAD} ecbda83 


    R. M. Parrish, L. A. Burns, D. G. A. Smith, A. C. Simmonett,
    A. E. DePrince III, E. G. Hohenstein, U. Bozkaya, A. Yu. Sokolov,
    R. Di Remigio, R. M. Richard, J. F. Gonthier, A. M. James,
    H. R. McAlexander, A. Kumar, M. Saitow, X. Wang, B. P. Pritchard,
    P. Verma, H. F. Schaefer III, K. Patkowski, R. A. King, E. F. Valeev,
    F. A. Evangelista, J. M. Turney, T. D. Crawford, and C. D. Sherrill,
    J. Chem. Theory Comput. 13(7) pp 3185--3197 (2017).
    (doi: 10.1021/acs.jctc.7b00174)


                         Additional Contributions by
    P. Kraus, H. Kruse, M. H. Lechner, M. C. Schieber, R. A. Shaw,
    A. Alenaizan, R. Galvelis, Z. L. Glick, S. Lehtola, and J. P. Misiewicz

    -----------------------------------------------------------------------


    Psi4 started on: Friday, 06 November 2020 06:33PM

    Process ID: 63789
    Host:       node142.bme.utexas.edu
    PSIDATADIR: /home/xy3866/psi4conda/share/psi4
    Memory:     500.0 MiB
    Threads:    8
    
  ==> Input File <==

--------------------------------------------------------------------------
#psi4
#
memory 32 gb

molecule  {
0 1
 Br        0.0297760     1.5374314     0.0754212
 Br       -2.8699640    -0.4854280    -0.2337770
 Br        2.8699250    -0.4854600    -0.2337790
  C       -0.0000100    -0.4202620     0.0447250
  C       -1.2431490    -0.9529940     0.7369810
  C        1.2431140    -0.9530360     0.7369740
  H       -0.0000150    -0.6893630    -1.0135150
  H       -1.3458500    -0.5442600     1.7429190
  H       -1.2174500    -2.0447140     0.7751110
  H        1.3458210    -0.5443190     1.7429160
  H        1.2173960    -2.0447570     0.7750850
units angstrom
no_reorient  #important for SAPT in psi4, default
symmetry c1  #important for SAPT in psi4, default
}

set PROPERTIES_ORIGIN ["COM"]
properties('MP2/aug-cc-pvtz', properties = ['dipole'])
--------------------------------------------------------------------------

  Memory set to  29.802 GiB by Python driver.
    SCF Algorithm Type (re)set to DF.

*** tstart() called on node142.bme.utexas.edu
*** at Fri Nov  6 18:33:06 2020

   => Loading Basis Set <=

    Name: AUG-CC-PVTZ
    Role: ORBITAL
    Keyword: BASIS
    atoms 1-3  entry BR         line  4204 file /home/xy3866/psi4conda/share/psi4/basis/aug-cc-pvtz.gbs 
    atoms 4-6  entry C          line   235 file /home/xy3866/psi4conda/share/psi4/basis/aug-cc-pvtz.gbs 
    atoms 7-11 entry H          line    36 file /home/xy3866/psi4conda/share/psi4/basis/aug-cc-pvtz.gbs 


         ---------------------------------------------------------
                                   SCF
               by Justin Turney, Rob Parrish, Andy Simmonett
                          and Daniel G. A. Smith
                              RHF Reference
                        8 Threads,  30517 MiB Core
         ---------------------------------------------------------

  ==> Geometry <==

    Molecular point group: c1
    Full point group: C1

    Geometry (in Angstrom), charge = 0, multiplicity = 1:

       Center              X                  Y                   Z               Mass       
    ------------   -----------------  -----------------  -----------------  -----------------
         BR           0.021330336403     1.498259106120     0.106625869319    78.918337600000
         BR          -2.878409663597    -0.524600293880    -0.202572330681    78.918337600000
         BR           2.861479336403    -0.524632293880    -0.202574330681    78.918337600000
         C           -0.008455663597    -0.459434293880     0.075929669319    12.000000000000
         C           -1.251594663597    -0.992166293880     0.768185669319    12.000000000000
         C            1.234668336403    -0.992208293880     0.768178669319    12.000000000000
         H           -0.008460663597    -0.728535293880    -0.982310330681     1.007825032230
         H           -1.354295663597    -0.583432293880     1.774123669319     1.007825032230
         H           -1.225895663597    -2.083886293880     0.806315669319     1.007825032230
         H            1.337375336403    -0.583491293880     1.774120669319     1.007825032230
         H            1.208950336403    -2.083929293880     0.806289669319     1.007825032230

  Running in c1 symmetry.

  Rotational constants: A =      0.05875  B =      0.01227  C =      0.01053 [cm^-1]
  Rotational constants: A =   1761.20951  B =    367.84209  C =    315.72474 [MHz]
  Nuclear repulsion = 1009.110180654564942

  Charge       = 0
  Multiplicity = 1
  Electrons    = 128
  Nalpha       = 64
  Nbeta        = 64

  ==> Algorithm <==

  SCF Algorithm Type is DF.
  DIIS enabled.
  MOM disabled.
  Fractional occupation disabled.
  Guess Type is SAD.
  Energy threshold   = 1.00e-10
  Density threshold  = 1.00e-10
  Integral threshold = 0.00e+00

  ==> Primary Basis <==

  Basis Set: AUG-CC-PVTZ
    Blend: AUG-CC-PVTZ
    Number of shells: 144
    Number of basis function: 430
    Number of Cartesian functions: 497
    Spherical Harmonics?: true
    Max angular momentum: 3

   => Loading Basis Set <=

    Name: (AUG-CC-PVTZ AUX)
    Role: JKFIT
    Keyword: DF_BASIS_SCF
    atoms 1-3  entry BR         line  1492 file /home/xy3866/psi4conda/share/psi4/basis/aug-cc-pvtz-jkfit.gbs 
    atoms 4-6  entry C          line   162 file /home/xy3866/psi4conda/share/psi4/basis/aug-cc-pvtz-jkfit.gbs 
    atoms 7-11 entry H          line    70 file /home/xy3866/psi4conda/share/psi4/basis/aug-cc-pvtz-jkfit.gbs 

  ==> Pre-Iterations <==

   -------------------------------------------------------
    Irrep   Nso     Nmo     Nalpha   Nbeta   Ndocc  Nsocc
   -------------------------------------------------------
     A        430     430       0       0       0       0
   -------------------------------------------------------
    Total     430     430      64      64      64       0
   -------------------------------------------------------

  ==> Integral Setup <==

  DFHelper Memory: AOs need 1.805 GiB; user supplied 22.352 GiB. Using in-core AOs.

  ==> MemDFJK: Density-Fitted J/K Matrices <==

    J tasked:                   Yes
    K tasked:                   Yes
    wK tasked:                   No
    OpenMP threads:               8
    Memory [MiB]:             22888
    Algorithm:                 Core
    Schwarz Cutoff:           1E-12
    Mask sparsity (%):       1.5068
    Fitting Condition:        1E-10

   => Auxiliary Basis Set <=

  Basis Set: (AUG-CC-PVTZ AUX)
    Blend: AUG-CC-PVTZ-JKFIT
    Number of shells: 334
    Number of basis function: 1286
    Number of Cartesian functions: 1655
    Spherical Harmonics?: true
    Max angular momentum: 4

  Minimum eigenvalue in the overlap matrix is 9.7849626519E-06.
  Using Symmetric Orthogonalization.

  SCF Guess: Superposition of Atomic Densities via on-the-fly atomic UHF.

  ==> Iterations <==

                           Total Energy        Delta E     RMS |[F,P]|

   @DF-RHF iter SAD: -7828.74928793845356   -7.82875e+03   0.00000e+00 
   @DF-RHF iter   1: -7833.43276498223167   -4.68348e+00   3.86336e-03 DIIS
   @DF-RHF iter   2: -7833.84775264191285   -4.14988e-01   1.77565e-03 DIIS
   @DF-RHF iter   3: -7833.93940703467888   -9.16544e-02   1.19817e-04 DIIS
   @DF-RHF iter   4: -7833.94123965405652   -1.83262e-03   6.36924e-05 DIIS
   @DF-RHF iter   5: -7833.94172413767228   -4.84484e-04   1.31664e-05 DIIS
   @DF-RHF iter   6: -7833.94175568144692   -3.15438e-05   4.08072e-06 DIIS
   @DF-RHF iter   7: -7833.94175905634438   -3.37490e-06   1.28962e-06 DIIS
   @DF-RHF iter   8: -7833.94175949200780   -4.35663e-07   4.36380e-07 DIIS
   @DF-RHF iter   9: -7833.94175954025286   -4.82451e-08   1.20187e-07 DIIS
   @DF-RHF iter  10: -7833.94175954365619   -3.40333e-09   2.35254e-08 DIIS
   @DF-RHF iter  11: -7833.94175954377897   -1.22782e-10   7.60020e-09 DIIS
   @DF-RHF iter  12: -7833.94175954378898   -1.00044e-11   2.90286e-09 DIIS
   @DF-RHF iter  13: -7833.94175954378625    2.72848e-12   1.03648e-09 DIIS
   @DF-RHF iter  14: -7833.94175954380626   -2.00089e-11   3.43275e-10 DIIS
   @DF-RHF iter  15: -7833.94175954380808   -1.81899e-12   1.01658e-10 DIIS
   @DF-RHF iter  16: -7833.94175954379807    1.00044e-11   3.54674e-11 DIIS
  Energy and wave function converged.


  ==> Post-Iterations <==

    Orbital Energies [Eh]
    ---------------------

    Doubly Occupied:                                                      

       1A   -490.026678     2A   -490.026211     3A   -490.022656  
       4A    -65.166511     5A    -65.166050     6A    -65.162603  
       7A    -58.521839     8A    -58.521377     9A    -58.520396  
      10A    -58.520371    11A    -58.519936    12A    -58.519908  
      13A    -58.517904    14A    -58.516486    15A    -58.516449  
      16A    -11.331950    17A    -11.321846    18A    -11.321199  
      19A     -9.839200    20A     -9.838747    21A     -9.835334  
      22A     -7.450833    23A     -7.450381    24A     -7.446909  
      25A     -7.443988    26A     -7.443836    27A     -7.443539  
      28A     -7.443379    29A     -7.440160    30A     -7.439996  
      31A     -3.194506    32A     -3.194056    33A     -3.191014  
      34A     -3.190836    35A     -3.190569    36A     -3.190550  
      37A     -3.190377    38A     -3.187139    39A     -3.186881  
      40A     -3.182015    41A     -3.182014    42A     -3.181559  
      43A     -3.181558    44A     -3.178209    45A     -3.178206  
      46A     -1.163727    47A     -1.075063    48A     -1.026664  
      49A     -0.970526    50A     -0.897660    51A     -0.824423  
      52A     -0.687257    53A     -0.639383    54A     -0.624879  
      55A     -0.605554    56A     -0.527924    57A     -0.496814  
      58A     -0.493321    59A     -0.429811    60A     -0.428224  
      61A     -0.418340    62A     -0.411075    63A     -0.408023  
      64A     -0.396575  

    Virtual:                                                              

      65A      0.023452    66A      0.036399    67A      0.043883  
      68A      0.044386    69A      0.058419    70A      0.060854  
      71A      0.065132    72A      0.068097    73A      0.089781  
      74A      0.108184    75A      0.110490    76A      0.114798  
      77A      0.118070    78A      0.118714    79A      0.120266  
      80A      0.124513    81A      0.129190    82A      0.137156  
      83A      0.137682    84A      0.144270    85A      0.148008  
      86A      0.151575    87A      0.156997    88A      0.160807  
      89A      0.171112    90A      0.176112    91A      0.185068  
      92A      0.208635    93A      0.211166    94A      0.221922  
      95A      0.234296    96A      0.249886    97A      0.256879  
      98A      0.260352    99A      0.271704   100A      0.273685  
     101A      0.280846   102A      0.289338   103A      0.301341  
     104A      0.305926   105A      0.316228   106A      0.319304  
     107A      0.322784   108A      0.342006   109A      0.349200  
     110A      0.349741   111A      0.351355   112A      0.355955  
     113A      0.360247   114A      0.363836   115A      0.381781  
     116A      0.385022   117A      0.386434   118A      0.392363  
     119A      0.400965   120A      0.404923   121A      0.418095  
     122A      0.420489   123A      0.433062   124A      0.434499  
     125A      0.440618   126A      0.447784   127A      0.454030  
     128A      0.458439   129A      0.462826   130A      0.474864  
     131A      0.480032   132A      0.488040   133A      0.496496  
     134A      0.497250   135A      0.513216   136A      0.515577  
     137A      0.521094   138A      0.537687   139A      0.550755  
     140A      0.552029   141A      0.565672   142A      0.569531  
     143A      0.576230   144A      0.587016   145A      0.589413  
     146A      0.594346   147A      0.600275   148A      0.617773  
     149A      0.626500   150A      0.641427   151A      0.668629  
     152A      0.671554   153A      0.679513   154A      0.695574  
     155A      0.709701   156A      0.713891   157A      0.730932  
     158A      0.743981   159A      0.745539   160A      0.758923  
     161A      0.767388   162A      0.785368   163A      0.791757  
     164A      0.794751   165A      0.801699   166A      0.812744  
     167A      0.819470   168A      0.823811   169A      0.836431  
     170A      0.848058   171A      0.848220   172A      0.853463  
     173A      0.858557   174A      0.865121   175A      0.876615  
     176A      0.879977   177A      0.893482   178A      0.898640  
     179A      0.902341   180A      0.913464   181A      0.921057  
     182A      0.926708   183A      0.939439   184A      0.942318  
     185A      0.964806   186A      0.974001   187A      0.981709  
     188A      0.986472   189A      1.004566   190A      1.008691  
     191A      1.021316   192A      1.037450   193A      1.054981  
     194A      1.057190   195A      1.067108   196A      1.070771  
     197A      1.071765   198A      1.080266   199A      1.096389  
     200A      1.098190   201A      1.102589   202A      1.111507  
     203A      1.120878   204A      1.142710   205A      1.154442  
     206A      1.163621   207A      1.164810   208A      1.187752  
     209A      1.198400   210A      1.204695   211A      1.211092  
     212A      1.224388   213A      1.241222   214A      1.263168  
     215A      1.265515   216A      1.286198   217A      1.295243  
     218A      1.314321   219A      1.318180   220A      1.332988  
     221A      1.343944   222A      1.361411   223A      1.375511  
     224A      1.378656   225A      1.395880   226A      1.413601  
     227A      1.428263   228A      1.430690   229A      1.446638  
     230A      1.449909   231A      1.461551   232A      1.461747  
     233A      1.484437   234A      1.493273   235A      1.496192  
     236A      1.499352   237A      1.518451   238A      1.527726  
     239A      1.532448   240A      1.555749   241A      1.568254  
     242A      1.570150   243A      1.584543   244A      1.619017  
     245A      1.631918   246A      1.633403   247A      1.649179  
     248A      1.655207   249A      1.664760   250A      1.674826  
     251A      1.689414   252A      1.707021   253A      1.716887  
     254A      1.724433   255A      1.759623   256A      1.760235  
     257A      1.797302   258A      1.801347   259A      1.830044  
     260A      1.831578   261A      1.839953   262A      1.899790  
     263A      1.903288   264A      1.909197   265A      1.918507  
     266A      1.930843   267A      1.948077   268A      1.965421  
     269A      1.990407   270A      2.011426   271A      2.020617  
     272A      2.062237   273A      2.069965   274A      2.102670  
     275A      2.121217   276A      2.139923   277A      2.167659  
     278A      2.178619   279A      2.189827   280A      2.197576  
     281A      2.200557   282A      2.248943   283A      2.254756  
     284A      2.263646   285A      2.284123   286A      2.285917  
     287A      2.302586   288A      2.313069   289A      2.324915  
     290A      2.333700   291A      2.339572   292A      2.366344  
     293A      2.371712   294A      2.379142   295A      2.385421  
     296A      2.399114   297A      2.406614   298A      2.420816  
     299A      2.427457   300A      2.434617   301A      2.438824  
     302A      2.447781   303A      2.465596   304A      2.472886  
     305A      2.476284   306A      2.487510   307A      2.491038  
     308A      2.520512   309A      2.529396   310A      2.534336  
     311A      2.543206   312A      2.549133   313A      2.568588  
     314A      2.576015   315A      2.605430   316A      2.625719  
     317A      2.649484   318A      2.693946   319A      2.708510  
     320A      2.716240   321A      2.734425   322A      2.759133  
     323A      2.760468   324A      2.787035   325A      2.789728  
     326A      2.827246   327A      2.831547   328A      2.895617  
     329A      2.910391   330A      2.954504   331A      3.045160  
     332A      3.049436   333A      3.086564   334A      3.175749  
     335A      3.280076   336A      3.297590   337A      3.340121  
     338A      3.383770   339A      3.461251   340A      3.472927  
     341A      3.496843   342A      3.520164   343A      3.573425  
     344A      3.575805   345A      3.585436   346A      3.618428  
     347A      3.623694   348A      3.648887   349A      3.685908  
     350A      3.699629   351A      3.725400   352A      3.755413  
     353A      3.809429   354A      3.833842   355A      3.839860  
     356A      3.879496   357A      3.884671   358A      3.886078  
     359A      3.906974   360A      3.965651   361A      3.984910  
     362A      4.019762   363A      4.029673   364A      4.050151  
     365A      4.073502   366A      4.075770   367A      4.085086  
     368A      4.110634   369A      4.132986   370A      4.170283  
     371A      4.172213   372A      4.180283   373A      4.226523  
     374A      4.249388   375A      4.266266   376A      4.316775  
     377A      4.347767   378A      4.372594   379A      4.380086  
     380A      4.410455   381A      4.423834   382A      4.498177  
     383A      4.528734   384A      4.566747   385A      4.617593  
     386A      4.638029   387A      4.683594   388A      4.695596  
     389A      4.776993   390A      4.802511   391A      4.820001  
     392A      4.851144   393A      4.893913   394A      4.987015  
     395A      5.005061   396A      5.019228   397A      5.056863  
     398A      5.087795   399A      5.100886   400A      5.112721  
     401A      5.143056   402A      5.175787   403A      5.193890  
     404A      5.227977   405A      5.252587   406A      5.267701  
     407A      5.316715   408A      5.368544   409A      5.394185  
     410A      5.443053   411A      5.455656   412A      5.578562  
     413A      5.604676   414A      5.717564   415A      5.769346  
     416A      5.862215   417A      5.875231   418A      5.952772  
     419A      5.955227   420A      6.069524   421A      6.137232  
     422A      6.140242   423A      6.295827   424A      6.402525  
     425A      6.593137   426A      6.729938   427A      6.768171  
     428A     16.933925   429A     17.002907   430A     17.684121  

    Final Occupation by Irrep:
              A 
    DOCC [    64 ]

  @DF-RHF Final Energy: -7833.94175954379807

   => Energetics <=

    Nuclear Repulsion Energy =           1009.1101806545649424
    One-Electron Energy =              -12919.9810776610229368
    Two-Electron Energy =                4076.9291374626595825
    Total Energy =                      -7833.9417595437989803

Computation Completed

*** tstop() called on node142.bme.utexas.edu at Fri Nov  6 18:33:41 2020
Module time:
	user time   =     200.42 seconds =       3.34 minutes
	system time =       5.58 seconds =       0.09 minutes
	total time  =         35 seconds =       0.58 minutes
Total time:
	user time   =     200.42 seconds =       3.34 minutes
	system time =       5.58 seconds =       0.09 minutes
	total time  =         35 seconds =       0.58 minutes
   => Loading Basis Set <=

    Name: (AUG-CC-PVTZ AUX)
    Role: RIFIT
    Keyword: DF_BASIS_MP2
    atoms 1-3  entry BR         line  1248 file /home/xy3866/psi4conda/share/psi4/basis/aug-cc-pvtz-ri.gbs 
    atoms 4-6  entry C          line   148 file /home/xy3866/psi4conda/share/psi4/basis/aug-cc-pvtz-ri.gbs 
    atoms 7-11 entry H          line    30 file /home/xy3866/psi4conda/share/psi4/basis/aug-cc-pvtz-ri.gbs 


*** tstart() called on node142.bme.utexas.edu
*** at Fri Nov  6 18:33:41 2020


  //>>>>>>>>>>>>>>>>>>>>>>>>>>>>>>>>>>>//
  //               DFMP2               //
  //<<<<<<<<<<<<<<<<<<<<<<<<<<<<<<<<<<<//

	 --------------------------------------------------------
	                          DF-MP2                         
	      2nd-Order Density-Fitted Moller-Plesset Theory     
	              RMP2 Wavefunction,   8 Threads             
	                                                         
	        Rob Parrish, Justin Turney, Andy Simmonett,      
	           Ed Hohenstein, and C. David Sherrill          
	 --------------------------------------------------------

   => Auxiliary Basis Set <=

  Basis Set: (AUG-CC-PVTZ AUX)
    Blend: AUG-CC-PVTZ-RI
    Number of shells: 283
    Number of basis function: 1121
    Number of Cartesian functions: 1466
    Spherical Harmonics?: true
    Max angular momentum: 5

	 --------------------------------------------------------
	                 NBF =   430, NAUX =  1121
	 --------------------------------------------------------
	   CLASS    FOCC     OCC    AOCC    AVIR     VIR    FVIR
	   PAIRS       0      64      64     366     366       0
	 --------------------------------------------------------

  DFHelper Memory: AOs need 1.805 GiB; user supplied 22.352 GiB. Using in-core AOs.


         ------------------------------------------------------------
                                     CPHF                           
                                  Rob Parrish                       
         ------------------------------------------------------------

  ==> Geometry <==

    Molecular point group: c1
    Full point group: C1

    Geometry (in Angstrom), charge = 0, multiplicity = 1:

       Center              X                  Y                   Z               Mass       
    ------------   -----------------  -----------------  -----------------  -----------------
         BR           0.021330336403     1.498259106120     0.106625869319    78.918337600000
         BR          -2.878409663597    -0.524600293880    -0.202572330681    78.918337600000
         BR           2.861479336403    -0.524632293880    -0.202574330681    78.918337600000
         C           -0.008455663597    -0.459434293880     0.075929669319    12.000000000000
         C           -1.251594663597    -0.992166293880     0.768185669319    12.000000000000
         C            1.234668336403    -0.992208293880     0.768178669319    12.000000000000
         H           -0.008460663597    -0.728535293880    -0.982310330681     1.007825032230
         H           -1.354295663597    -0.583432293880     1.774123669319     1.007825032230
         H           -1.225895663597    -2.083886293880     0.806315669319     1.007825032230
         H            1.337375336403    -0.583491293880     1.774120669319     1.007825032230
         H            1.208950336403    -2.083929293880     0.806289669319     1.007825032230

  Nuclear repulsion = 1009.110180654564942
  Reference energy  = -7833.941759543798071

  ==> Basis Set <==

  Basis Set: AUG-CC-PVTZ
    Blend: AUG-CC-PVTZ
    Number of shells: 144
    Number of basis function: 430
    Number of Cartesian functions: 497
    Spherical Harmonics?: true
    Max angular momentum: 3

  ==> CGRSolver (by Rob Parrish) <==

   Number of roots    =         1
   Preconditioning    =    JACOBI
   Convergence cutoff =     1E-06
   Maximum iterations =       100

  ==> CPHFRHamiltonian (by Rob Parrish) <== 

  ==> MemDFJK: Density-Fitted J/K Matrices <==

    J tasked:                   Yes
    K tasked:                   Yes
    wK tasked:                   No
    OpenMP threads:               8
    Memory [MiB]:             22888
    Algorithm:                 Core
    Schwarz Cutoff:           1E-12
    Mask sparsity (%):       1.5068
    Fitting Condition:        1E-10

   => Auxiliary Basis Set <=

  Basis Set: (AUG-CC-PVTZ AUX)
    Blend: AUG-CC-PVTZ-JKFIT
    Number of shells: 334
    Number of basis function: 1286
    Number of Cartesian functions: 1655
    Spherical Harmonics?: true
    Max angular momentum: 4

  ==> CPHF Iterations <==

  => Iterations <=

             Iter  Converged  Remaining    Residual
  CGR           1          0          1   7.889E-02
  CGR           2          0          1   3.616E-02
  CGR           3          0          1   4.572E-03
  CGR           4          0          1   1.437E-03
  CGR           5          0          1   4.563E-04
  CGR           6          0          1   1.723E-04
  CGR           7          0          1   5.427E-05
  CGR           8          0          1   1.388E-05
  CGR           9          0          1   4.023E-06
  CGR          10          0          1   1.399E-06
  CGR          11          1          0   3.938E-07

    CGRSolver converged.

	-----------------------------------------------------------
	 ==================> DF-MP2 Energies <==================== 
	-----------------------------------------------------------
	 Reference Energy          =   -7833.9417595437980708 [Eh]
	 Singles Energy            =      -0.0000000000000000 [Eh]
	 Same-Spin Energy          =      -0.3997507238639011 [Eh]
	 Opposite-Spin Energy      =      -1.0593571784725844 [Eh]
	 Correlation Energy        =      -1.4591079023364855 [Eh]
	 Total Energy              =   -7835.4008674461347255 [Eh]
	-----------------------------------------------------------
	 ================> DF-SCS-MP2 Energies <================== 
	-----------------------------------------------------------
	 SCS Same-Spin Scale       =       0.3333333333333333 [-]
	 SCS Opposite-Spin Scale   =       1.2000000000000000 [-]
	 SCS Same-Spin Energy      =      -0.1332502412879670 [Eh]
	 SCS Opposite-Spin Energy  =      -1.2712286141671012 [Eh]
	 SCS Correlation Energy    =      -1.4044788554550682 [Eh]
	 SCS Total Energy          =   -7835.3462383992527975 [Eh]
	-----------------------------------------------------------



Properties will be evaluated at   0.000000,   0.000000,   0.000000 [a0]

Properties computed using the MP2 density matrix

  Nuclear Dipole Moment: [e a0]
     X:    -0.0768      Y:    -9.4679      Z:     6.4328

  Electronic Dipole Moment: [e a0]
     X:     0.0706      Y:     8.6333      Z:    -5.8567

  Dipole Moment: [e a0]
     X:    -0.0061      Y:    -0.8347      Z:     0.5761     Total:     1.0142

  Dipole Moment: [D]
     X:    -0.0156      Y:    -2.1215      Z:     1.4643     Total:     2.5778


*** tstop() called on node142.bme.utexas.edu at Fri Nov  6 18:36:07 2020
Module time:
	user time   =     890.68 seconds =      14.84 minutes
	system time =      18.68 seconds =       0.31 minutes
	total time  =        146 seconds =       2.43 minutes
Total time:
	user time   =    1091.86 seconds =      18.20 minutes
	system time =      24.32 seconds =       0.41 minutes
	total time  =        181 seconds =       3.02 minutes

    Psi4 stopped on: Friday, 06 November 2020 06:36PM
    Psi4 wall time for execution: 0:03:00.86

*** Psi4 exiting successfully. Buy a developer a beer!
