3032104                                                                 
Freq      RMP2-FC                                                     6-31G(d)            
Number of atoms                            I               17
Info1-9                                    I   N=           9
          29          27        1002           0           0         100
           6           2           1
Charge                                     I                0
Multiplicity                               I                1
Number of electrons                        I               56
Number of alpha electrons                  I               28
Number of beta electrons                   I               28
Number of basis functions                  I              125
Number of independent functions            I              125
Number of point charges in /Mol/           I                0
Number of translation vectors              I                0
Atomic numbers                             I   N=          17
           8           7           7           6           6           6
           6           1           1           1           1           1
           1           1           1           1           1
Nuclear charges                            R   N=          17
  8.00000000E+00  7.00000000E+00  7.00000000E+00  6.00000000E+00  6.00000000E+00
  6.00000000E+00  6.00000000E+00  1.00000000E+00  1.00000000E+00  1.00000000E+00
  1.00000000E+00  1.00000000E+00  1.00000000E+00  1.00000000E+00  1.00000000E+00
  1.00000000E+00  1.00000000E+00
Current cartesian coordinates              R   N=          51
 -4.14031324E+00  5.71095196E-01 -3.97758932E-01  1.60930035E-01  8.29761897E-01
  1.80038314E-01 -1.88632233E+00 -3.08883883E+00  2.53998204E-01  2.47178671E+00
 -2.96234526E-01  1.16818900E+00  4.35087820E+00 -1.01335452E+00 -9.00344662E-01
  1.05209530E-01  3.56333791E+00 -7.39752320E-02 -2.08384259E+00 -4.63732799E-01
 -3.88558395E-02  3.33547097E+00  1.08184629E+00  2.45237882E+00  1.97098615E+00
 -1.93863388E+00  2.31587894E+00  3.55533001E+00 -2.43990848E+00 -2.16747206E+00
  4.84548165E+00  6.36162363E-01 -2.04099336E+00  6.08860024E+00 -1.77638620E+00
 -7.77443967E-02  1.73977785E+00  4.19679994E+00 -1.16975594E+00  1.42913927E-01
  4.49136076E+00  1.77934503E+00 -1.62733675E+00  4.09130772E+00 -1.04811374E+00
 -3.75434530E-01 -3.92301983E+00 -5.75673889E-01 -3.53972860E+00 -3.91484813E+00
 -2.54113168E-01
Force Field                                I                0
Int Atom Types                             I   N=          17
           0           0           0           0           0           0
           0           0           0           0           0           0
           0           0           0           0           0
MM charges                                 R   N=          17
  0.00000000E+00  0.00000000E+00  0.00000000E+00  0.00000000E+00  0.00000000E+00
  0.00000000E+00  0.00000000E+00  0.00000000E+00  0.00000000E+00  0.00000000E+00
  0.00000000E+00  0.00000000E+00  0.00000000E+00  0.00000000E+00  0.00000000E+00
  0.00000000E+00  0.00000000E+00
Integer atomic weights                     I   N=          17
          16          14          14          12          12          12
          12           1           1           1           1           1
           1           1           1           1           1
Real atomic weights                        R   N=          17
  1.59949146E+01  1.40030740E+01  1.40030740E+01  1.20000000E+01  1.20000000E+01
  1.20000000E+01  1.20000000E+01  1.00782504E+00  1.00782504E+00  1.00782504E+00
  1.00782504E+00  1.00782504E+00  1.00782504E+00  1.00782504E+00  1.00782504E+00
  1.00782504E+00  1.00782504E+00
Atom fragment info                         I   N=          17
           0           0           0           0           0           0
           0           0           0           0           0           0
           0           0           0           0           0
Atom residue num                           I   N=          17
           0           0           0           0           0           0
           0           0           0           0           0           0
           0           0           0           0           0
Nuclear spins                              I   N=          17
           0           2           2           0           0           0
           0           1           1           1           1           1
           1           1           1           1           1
Nuclear ZEff                               R   N=          17
 -5.60000000E+00 -4.55000000E+00 -4.55000000E+00 -3.60000000E+00 -3.60000000E+00
 -3.60000000E+00 -3.60000000E+00 -1.00000000E+00 -1.00000000E+00 -1.00000000E+00
 -1.00000000E+00 -1.00000000E+00 -1.00000000E+00 -1.00000000E+00 -1.00000000E+00
 -1.00000000E+00 -1.00000000E+00
Nuclear QMom                               R   N=          17
  0.00000000E+00  2.04400000E+00  2.04400000E+00  0.00000000E+00  0.00000000E+00
  0.00000000E+00  0.00000000E+00  0.00000000E+00  0.00000000E+00  0.00000000E+00
  0.00000000E+00  0.00000000E+00  0.00000000E+00  0.00000000E+00  0.00000000E+00
  0.00000000E+00  0.00000000E+00
Nuclear GFac                               R   N=          17
  0.00000000E+00  4.03761000E-01  4.03761000E-01  0.00000000E+00  0.00000000E+00
  0.00000000E+00  0.00000000E+00  2.79284600E+00  2.79284600E+00  2.79284600E+00
  2.79284600E+00  2.79284600E+00  2.79284600E+00  2.79284600E+00  2.79284600E+00
  2.79284600E+00  2.79284600E+00
MicOpt                                     I   N=          17
          -1          -1          -1          -1          -1          -1
          -1          -1          -1          -1          -1          -1
          -1          -1          -1          -1          -1
Number of contracted shells                I               48
Number of primitive shells                 I              117
Pure/Cartesian d shells                    I                1
Pure/Cartesian f shells                    I                0
Highest angular momentum                   I                2
Largest degree of contraction              I                6
Shell types                                I   N=          48
           0          -1          -1           2           0          -1
          -1           2           0          -1          -1           2
           0          -1          -1           2           0          -1
          -1           2           0          -1          -1           2
           0          -1          -1           2           0           0
           0           0           0           0           0           0
           0           0           0           0           0           0
           0           0           0           0           0           0
Number of primitives per shell             I   N=          48
           6           3           1           1           6           3
           1           1           6           3           1           1
           6           3           1           1           6           3
           1           1           6           3           1           1
           6           3           1           1           3           1
           3           1           3           1           3           1
           3           1           3           1           3           1
           3           1           3           1           3           1
Shell to atom map                          I   N=          48
           1           1           1           1           2           2
           2           2           3           3           3           3
           4           4           4           4           5           5
           5           5           6           6           6           6
           7           7           7           7           8           8
           9           9          10          10          11          11
          12          12          13          13          14          14
          15          15          16          16          17          17
Primitive exponents                        R   N=         117
  5.48467166E+03  8.25234946E+02  1.88046958E+02  5.29645000E+01  1.68975704E+01
  5.79963534E+00  1.55396162E+01  3.59993359E+00  1.01376175E+00  2.70005823E-01
  8.00000000E-01  4.17351146E+03  6.27457911E+02  1.42902093E+02  4.02343293E+01
  1.28202129E+01  4.39043701E+00  1.16263619E+01  2.71627981E+00  7.72218397E-01
  2.12031498E-01  8.00000000E-01  4.17351146E+03  6.27457911E+02  1.42902093E+02
  4.02343293E+01  1.28202129E+01  4.39043701E+00  1.16263619E+01  2.71627981E+00
  7.72218397E-01  2.12031498E-01  8.00000000E-01  3.04752488E+03  4.57369518E+02
  1.03948685E+02  2.92101553E+01  9.28666296E+00  3.16392696E+00  7.86827235E+00
  1.88128854E+00  5.44249258E-01  1.68714478E-01  8.00000000E-01  3.04752488E+03
  4.57369518E+02  1.03948685E+02  2.92101553E+01  9.28666296E+00  3.16392696E+00
  7.86827235E+00  1.88128854E+00  5.44249258E-01  1.68714478E-01  8.00000000E-01
  3.04752488E+03  4.57369518E+02  1.03948685E+02  2.92101553E+01  9.28666296E+00
  3.16392696E+00  7.86827235E+00  1.88128854E+00  5.44249258E-01  1.68714478E-01
  8.00000000E-01  3.04752488E+03  4.57369518E+02  1.03948685E+02  2.92101553E+01
  9.28666296E+00  3.16392696E+00  7.86827235E+00  1.88128854E+00  5.44249258E-01
  1.68714478E-01  8.00000000E-01  1.87311370E+01  2.82539436E+00  6.40121692E-01
  1.61277759E-01  1.87311370E+01  2.82539436E+00  6.40121692E-01  1.61277759E-01
  1.87311370E+01  2.82539436E+00  6.40121692E-01  1.61277759E-01  1.87311370E+01
  2.82539436E+00  6.40121692E-01  1.61277759E-01  1.87311370E+01  2.82539436E+00
  6.40121692E-01  1.61277759E-01  1.87311370E+01  2.82539436E+00  6.40121692E-01
  1.61277759E-01  1.87311370E+01  2.82539436E+00  6.40121692E-01  1.61277759E-01
  1.87311370E+01  2.82539436E+00  6.40121692E-01  1.61277759E-01  1.87311370E+01
  2.82539436E+00  6.40121692E-01  1.61277759E-01  1.87311370E+01  2.82539436E+00
  6.40121692E-01  1.61277759E-01
Contraction coefficients                   R   N=         117
  1.83107443E-03  1.39501722E-02  6.84450781E-02  2.32714336E-01  4.70192898E-01
  3.58520853E-01 -1.10777550E-01 -1.48026263E-01  1.13076702E+00  1.00000000E+00
  1.00000000E+00  1.83477216E-03  1.39946270E-02  6.85865518E-02  2.32240873E-01
  4.69069948E-01  3.60455199E-01 -1.14961182E-01 -1.69117479E-01  1.14585195E+00
  1.00000000E+00  1.00000000E+00  1.83477216E-03  1.39946270E-02  6.85865518E-02
  2.32240873E-01  4.69069948E-01  3.60455199E-01 -1.14961182E-01 -1.69117479E-01
  1.14585195E+00  1.00000000E+00  1.00000000E+00  1.83473713E-03  1.40373228E-02
  6.88426223E-02  2.32184443E-01  4.67941348E-01  3.62311985E-01 -1.19332420E-01
 -1.60854152E-01  1.14345644E+00  1.00000000E+00  1.00000000E+00  1.83473713E-03
  1.40373228E-02  6.88426223E-02  2.32184443E-01  4.67941348E-01  3.62311985E-01
 -1.19332420E-01 -1.60854152E-01  1.14345644E+00  1.00000000E+00  1.00000000E+00
  1.83473713E-03  1.40373228E-02  6.88426223E-02  2.32184443E-01  4.67941348E-01
  3.62311985E-01 -1.19332420E-01 -1.60854152E-01  1.14345644E+00  1.00000000E+00
  1.00000000E+00  1.83473713E-03  1.40373228E-02  6.88426223E-02  2.32184443E-01
  4.67941348E-01  3.62311985E-01 -1.19332420E-01 -1.60854152E-01  1.14345644E+00
  1.00000000E+00  1.00000000E+00  3.34946043E-02  2.34726953E-01  8.13757326E-01
  1.00000000E+00  3.34946043E-02  2.34726953E-01  8.13757326E-01  1.00000000E+00
  3.34946043E-02  2.34726953E-01  8.13757326E-01  1.00000000E+00  3.34946043E-02
  2.34726953E-01  8.13757326E-01  1.00000000E+00  3.34946043E-02  2.34726953E-01
  8.13757326E-01  1.00000000E+00  3.34946043E-02  2.34726953E-01  8.13757326E-01
  1.00000000E+00  3.34946043E-02  2.34726953E-01  8.13757326E-01  1.00000000E+00
  3.34946043E-02  2.34726953E-01  8.13757326E-01  1.00000000E+00  3.34946043E-02
  2.34726953E-01  8.13757326E-01  1.00000000E+00  3.34946043E-02  2.34726953E-01
  8.13757326E-01  1.00000000E+00
P(S=P) Contraction coefficients            R   N=         117
  0.00000000E+00  0.00000000E+00  0.00000000E+00  0.00000000E+00  0.00000000E+00
  0.00000000E+00  7.08742682E-02  3.39752839E-01  7.27158577E-01  1.00000000E+00
  0.00000000E+00  0.00000000E+00  0.00000000E+00  0.00000000E+00  0.00000000E+00
  0.00000000E+00  0.00000000E+00  6.75797439E-02  3.23907296E-01  7.40895140E-01
  1.00000000E+00  0.00000000E+00  0.00000000E+00  0.00000000E+00  0.00000000E+00
  0.00000000E+00  0.00000000E+00  0.00000000E+00  6.75797439E-02  3.23907296E-01
  7.40895140E-01  1.00000000E+00  0.00000000E+00  0.00000000E+00  0.00000000E+00
  0.00000000E+00  0.00000000E+00  0.00000000E+00  0.00000000E+00  6.89990666E-02
  3.16423961E-01  7.44308291E-01  1.00000000E+00  0.00000000E+00  0.00000000E+00
  0.00000000E+00  0.00000000E+00  0.00000000E+00  0.00000000E+00  0.00000000E+00
  6.89990666E-02  3.16423961E-01  7.44308291E-01  1.00000000E+00  0.00000000E+00
  0.00000000E+00  0.00000000E+00  0.00000000E+00  0.00000000E+00  0.00000000E+00
  0.00000000E+00  6.89990666E-02  3.16423961E-01  7.44308291E-01  1.00000000E+00
  0.00000000E+00  0.00000000E+00  0.00000000E+00  0.00000000E+00  0.00000000E+00
  0.00000000E+00  0.00000000E+00  6.89990666E-02  3.16423961E-01  7.44308291E-01
  1.00000000E+00  0.00000000E+00  0.00000000E+00  0.00000000E+00  0.00000000E+00
  0.00000000E+00  0.00000000E+00  0.00000000E+00  0.00000000E+00  0.00000000E+00
  0.00000000E+00  0.00000000E+00  0.00000000E+00  0.00000000E+00  0.00000000E+00
  0.00000000E+00  0.00000000E+00  0.00000000E+00  0.00000000E+00  0.00000000E+00
  0.00000000E+00  0.00000000E+00  0.00000000E+00  0.00000000E+00  0.00000000E+00
  0.00000000E+00  0.00000000E+00  0.00000000E+00  0.00000000E+00  0.00000000E+00
  0.00000000E+00  0.00000000E+00  0.00000000E+00  0.00000000E+00  0.00000000E+00
  0.00000000E+00  0.00000000E+00  0.00000000E+00  0.00000000E+00  0.00000000E+00
  0.00000000E+00  0.00000000E+00
Coordinates of each shell                  R   N=         144
 -4.14031324E+00  5.71095196E-01 -3.97758932E-01 -4.14031324E+00  5.71095196E-01
 -3.97758932E-01 -4.14031324E+00  5.71095196E-01 -3.97758932E-01 -4.14031324E+00
  5.71095196E-01 -3.97758932E-01  1.60930035E-01  8.29761897E-01  1.80038314E-01
  1.60930035E-01  8.29761897E-01  1.80038314E-01  1.60930035E-01  8.29761897E-01
  1.80038314E-01  1.60930035E-01  8.29761897E-01  1.80038314E-01 -1.88632233E+00
 -3.08883883E+00  2.53998204E-01 -1.88632233E+00 -3.08883883E+00  2.53998204E-01
 -1.88632233E+00 -3.08883883E+00  2.53998204E-01 -1.88632233E+00 -3.08883883E+00
  2.53998204E-01  2.47178671E+00 -2.96234526E-01  1.16818900E+00  2.47178671E+00
 -2.96234526E-01  1.16818900E+00  2.47178671E+00 -2.96234526E-01  1.16818900E+00
  2.47178671E+00 -2.96234526E-01  1.16818900E+00  4.35087820E+00 -1.01335452E+00
 -9.00344662E-01  4.35087820E+00 -1.01335452E+00 -9.00344662E-01  4.35087820E+00
 -1.01335452E+00 -9.00344662E-01  4.35087820E+00 -1.01335452E+00 -9.00344662E-01
  1.05209530E-01  3.56333791E+00 -7.39752320E-02  1.05209530E-01  3.56333791E+00
 -7.39752320E-02  1.05209530E-01  3.56333791E+00 -7.39752320E-02  1.05209530E-01
  3.56333791E+00 -7.39752320E-02 -2.08384259E+00 -4.63732799E-01 -3.88558395E-02
 -2.08384259E+00 -4.63732799E-01 -3.88558395E-02 -2.08384259E+00 -4.63732799E-01
 -3.88558395E-02 -2.08384259E+00 -4.63732799E-01 -3.88558395E-02  3.33547097E+00
  1.08184629E+00  2.45237882E+00  3.33547097E+00  1.08184629E+00  2.45237882E+00
  1.97098615E+00 -1.93863388E+00  2.31587894E+00  1.97098615E+00 -1.93863388E+00
  2.31587894E+00  3.55533001E+00 -2.43990848E+00 -2.16747206E+00  3.55533001E+00
 -2.43990848E+00 -2.16747206E+00  4.84548165E+00  6.36162363E-01 -2.04099336E+00
  4.84548165E+00  6.36162363E-01 -2.04099336E+00  6.08860024E+00 -1.77638620E+00
 -7.77443967E-02  6.08860024E+00 -1.77638620E+00 -7.77443967E-02  1.73977785E+00
  4.19679994E+00 -1.16975594E+00  1.73977785E+00  4.19679994E+00 -1.16975594E+00
  1.42913927E-01  4.49136076E+00  1.77934503E+00  1.42913927E-01  4.49136076E+00
  1.77934503E+00 -1.62733675E+00  4.09130772E+00 -1.04811374E+00 -1.62733675E+00
  4.09130772E+00 -1.04811374E+00 -3.75434530E-01 -3.92301983E+00 -5.75673889E-01
 -3.75434530E-01 -3.92301983E+00 -5.75673889E-01 -3.53972860E+00 -3.91484813E+00
 -2.54113168E-01 -3.53972860E+00 -3.91484813E+00 -2.54113168E-01
Constraint Structure                       R   N=          51
 -4.14031324E+00  5.71095196E-01 -3.97758932E-01  1.60930035E-01  8.29761897E-01
  1.80038314E-01 -1.88632233E+00 -3.08883883E+00  2.53998204E-01  2.47178671E+00
 -2.96234526E-01  1.16818900E+00  4.35087820E+00 -1.01335452E+00 -9.00344662E-01
  1.05209530E-01  3.56333791E+00 -7.39752320E-02 -2.08384259E+00 -4.63732799E-01
 -3.88558395E-02  3.33547097E+00  1.08184629E+00  2.45237882E+00  1.97098615E+00
 -1.93863388E+00  2.31587894E+00  3.55533001E+00 -2.43990848E+00 -2.16747206E+00
  4.84548165E+00  6.36162363E-01 -2.04099336E+00  6.08860024E+00 -1.77638620E+00
 -7.77443967E-02  1.73977785E+00  4.19679994E+00 -1.16975594E+00  1.42913927E-01
  4.49136076E+00  1.77934503E+00 -1.62733675E+00  4.09130772E+00 -1.04811374E+00
 -3.75434530E-01 -3.92301983E+00 -5.75673889E-01 -3.53972860E+00 -3.91484813E+00
 -2.54113168E-01
Num ILSW                                   I              100
ILSW                                       I   N=         100
           0           1           0           0           2           0
           0           0           0           0           0          -1
           0           0           0           0           0           0
           0           0           0           0           1           0
           1           0           0           0           0           0
           0           0      100000           0          -1           0
           0           0           0           0           0           0
           0           0           0           1           1           0
           0           0           1           0           0           0
           0           0           4          40           0           0
           0           0           0           0           0           0
           0           0           0           0           0           0
           0           0           0           0           0           0
           0           0           0           0           0           0
           0           0           0           0           0           0
           0           0           0           0           0           0
           0           0           0           0
Num RLSW                                   I               40
RLSW                                       R   N=          40
  1.00000000E+00  1.00000000E+00  1.00000000E+00  1.00000000E+00  1.00000000E+00
  0.00000000E+00  0.00000000E+00  1.00000000E+00  0.00000000E+00  0.00000000E+00
  0.00000000E+00  0.00000000E+00  1.00000000E+00  0.00000000E+00  0.00000000E+00
  0.00000000E+00  0.00000000E+00  1.00000000E+00  0.00000000E+00  0.00000000E+00
  0.00000000E+00  0.00000000E+00  1.00000000E+00  0.00000000E+00  0.00000000E+00
  0.00000000E+00  0.00000000E+00  1.00000000E+00  0.00000000E+00  0.00000000E+00
  0.00000000E+00  0.00000000E+00  0.00000000E+00  0.00000000E+00  0.00000000E+00
  0.00000000E+00  0.00000000E+00  0.00000000E+00  1.00000000E+00  1.00000000E+00
MxBond                                     I                4
NBond                                      I   N=          17
           1           3           3           4           4           4
           3           1           1           1           1           1
           1           1           1           1           1
IBond                                      I   N=          68
           7           0           0           0           4           6
           7           0           7          16          17           0
           2           5           8           9           4          10
          11          12           2          13          14          15
           1           2           3           0           4           0
           0           0           4           0           0           0
           5           0           0           0           5           0
           0           0           5           0           0           0
           6           0           0           0           6           0
           0           0           6           0           0           0
           3           0           0           0           3           0
           0           0
RBond                                      R   N=          68
  2.00000000E+00  0.00000000E+00  0.00000000E+00  0.00000000E+00  1.00000000E+00
  1.00000000E+00  1.00000000E+00  0.00000000E+00  1.00000000E+00  1.00000000E+00
  1.00000000E+00  0.00000000E+00  1.00000000E+00  1.00000000E+00  1.00000000E+00
  1.00000000E+00  1.00000000E+00  1.00000000E+00  1.00000000E+00  1.00000000E+00
  1.00000000E+00  1.00000000E+00  1.00000000E+00  1.00000000E+00  2.00000000E+00
  1.00000000E+00  1.00000000E+00  0.00000000E+00  1.00000000E+00  0.00000000E+00
  0.00000000E+00  0.00000000E+00  1.00000000E+00  0.00000000E+00  0.00000000E+00
  0.00000000E+00  1.00000000E+00  0.00000000E+00  0.00000000E+00  0.00000000E+00
  1.00000000E+00  0.00000000E+00  0.00000000E+00  0.00000000E+00  1.00000000E+00
  0.00000000E+00  0.00000000E+00  0.00000000E+00  1.00000000E+00  0.00000000E+00
  0.00000000E+00  0.00000000E+00  1.00000000E+00  0.00000000E+00  0.00000000E+00
  0.00000000E+00  1.00000000E+00  0.00000000E+00  0.00000000E+00  0.00000000E+00
  1.00000000E+00  0.00000000E+00  0.00000000E+00  0.00000000E+00  1.00000000E+00
  0.00000000E+00  0.00000000E+00  0.00000000E+00
Virial Ratio                               R      2.002574942244710E+00
SCF Energy                                 R     -3.410711503223809E+02
MP2 Energy                                 R     -3.420930473731420E+02
Total Energy                               R     -3.420930473731420E+02
Post-SCF wavefunction norm                 R      1.624280374025095E+00
RMS Force                                  R      2.217682609453855E-07
RMS Density                                R      2.850810370978927E-09
External E-field                           R   N=          35
  0.00000000E+00  0.00000000E+00  0.00000000E+00  0.00000000E+00  0.00000000E+00
  0.00000000E+00  0.00000000E+00  0.00000000E+00  0.00000000E+00  0.00000000E+00
  0.00000000E+00  0.00000000E+00  0.00000000E+00  0.00000000E+00  0.00000000E+00
  0.00000000E+00  0.00000000E+00  0.00000000E+00  0.00000000E+00  0.00000000E+00
  0.00000000E+00  0.00000000E+00  0.00000000E+00  0.00000000E+00  0.00000000E+00
  0.00000000E+00  0.00000000E+00  0.00000000E+00  0.00000000E+00  0.00000000E+00
  0.00000000E+00  0.00000000E+00  0.00000000E+00  0.00000000E+00  0.00000000E+00
IOpCl                                      I                0
IROHF                                      I                0
Alpha Orbital Energies                     R   N=         125
 -2.05092169E+01 -1.55843652E+01 -1.55795714E+01 -1.13735966E+01 -1.12737300E+01
 -1.12524060E+01 -1.12328322E+01 -1.37540241E+00 -1.24627947E+00 -1.18707320E+00
 -1.03265577E+00 -9.42729574E-01 -8.74459571E-01 -7.59674061E-01 -7.25467581E-01
 -6.81790586E-01 -6.36002820E-01 -6.31564894E-01 -5.98998424E-01 -5.86538908E-01
 -5.59029642E-01 -5.53427877E-01 -5.34843789E-01 -5.23680670E-01 -5.03769581E-01
 -4.33434959E-01 -4.10866649E-01 -3.67531841E-01  1.93873244E-01  2.40294053E-01
  2.43150351E-01  2.65954737E-01  2.88665626E-01  2.91861810E-01  2.97221952E-01
  3.16650530E-01  3.39405523E-01  3.49502217E-01  3.57527891E-01  3.62311872E-01
  3.91366560E-01  4.30165085E-01  4.91699493E-01  5.29724353E-01  6.16388988E-01
  6.95187750E-01  7.20878659E-01  7.33360174E-01  7.65168617E-01  7.88735596E-01
  7.98667088E-01  8.29152596E-01  8.54368343E-01  9.03090284E-01  9.38171093E-01
  9.42499021E-01  9.61526657E-01  9.92276232E-01  1.00595622E+00  1.04975277E+00
  1.09361281E+00  1.11577726E+00  1.12789612E+00  1.13893674E+00  1.15406935E+00
  1.16332224E+00  1.17726120E+00  1.20436946E+00  1.21352700E+00  1.22854930E+00
  1.24259678E+00  1.25923149E+00  1.26975686E+00  1.32778906E+00  1.36070343E+00
  1.37118617E+00  1.41147177E+00  1.44954864E+00  1.58956025E+00  1.59581365E+00
  1.64106004E+00  1.68164184E+00  1.71966746E+00  1.76650445E+00  1.82966591E+00
  1.95239201E+00  2.02329996E+00  2.03822267E+00  2.07154386E+00  2.11033958E+00
  2.15639168E+00  2.16712185E+00  2.22357807E+00  2.24627363E+00  2.26299188E+00
  2.32929442E+00  2.35572052E+00  2.36651706E+00  2.42289152E+00  2.43926277E+00
  2.46533262E+00  2.52311738E+00  2.61556346E+00  2.63230436E+00  2.63344421E+00
  2.67696165E+00  2.72402559E+00  2.74773442E+00  2.80343534E+00  2.83011714E+00
  2.96556441E+00  2.99309370E+00  3.00511785E+00  3.03478415E+00  3.05681094E+00
  3.31460395E+00  3.43730518E+00  3.55320157E+00  4.26458595E+00  4.44419247E+00
  4.50209488E+00  4.63450407E+00  4.68275801E+00  4.87782878E+00  4.91234627E+00
Alpha MO coefficients                      R   N=       15625
  9.94688573E-01  2.10152711E-02  1.37812942E-03 -6.89351740E-04  2.32729480E-04
  4.36421642E-03 -8.50435146E-05  5.52913106E-05 -1.72174799E-05 -3.72328838E-03
 -3.85497432E-03 -4.06437621E-03 -1.16971495E-04  6.94373269E-05 -2.28335743E-05
 -9.01795065E-06 -3.93242750E-05  3.00145596E-05  9.44867054E-07 -2.30416931E-06
  1.81769134E-04 -5.03506234E-05 -1.10303723E-04  3.78176512E-05 -8.41865673E-05
  7.33898487E-05 -4.99433889E-05  5.88573425E-05 -1.23999233E-05 -2.53435119E-06
 -1.05467950E-05 -3.62847825E-05  2.53434661E-05 -2.08300367E-05  8.32080162E-06
  1.79929162E-04 -1.07950160E-05  4.65891810E-05 -1.59996973E-05 -3.66477910E-05
 -5.43034344E-06 -5.06353243E-05  8.10047296E-05 -5.11069284E-06  6.40161167E-06
  5.79240784E-06  2.37220492E-05 -1.50874189E-05 -4.24691971E-07 -8.58310716E-06
 -1.46577712E-04  1.12763427E-04  1.03224138E-04  2.13206038E-05  1.22219329E-06
  2.16147549E-05  1.63231936E-05 -2.31158899E-05  5.80382731E-06 -6.20411357E-06
 -8.88571377E-08 -1.67142966E-06 -2.88727247E-06  5.11513886E-06  6.08095427E-07
  1.86883813E-05 -2.82510443E-05 -5.40545314E-05 -7.27543129E-07  6.18031000E-06
 -1.62531350E-06 -2.26259893E-06  3.97901966E-06 -1.09127809E-06 -2.05876834E-06
 -3.59773293E-06  1.70390897E-06 -3.29350862E-06  7.12651152E-06  1.07536200E-05
  1.68708478E-04 -8.63232580E-06  4.61756850E-05 -8.68098440E-05 -9.09724949E-06
 -4.01540668E-05 -5.19354913E-06  4.18156402E-08 -2.68337853E-06  3.49679881E-06
  7.63230985E-07  5.44464978E-04 -4.20454136E-06 -1.29408209E-05  3.37294978E-08
 -5.42394123E-04  3.03473032E-04 -1.16075089E-04  4.33136080E-05 -6.20944822E-04
 -1.79927852E-04 -5.77869065E-05  3.33760108E-04 -1.22284843E-04  5.18461454E-05
 -7.49951752E-06 -3.18798424E-05  2.53929089E-05  4.33180034E-05 -1.86956958E-06
 -3.01851539E-05  3.76054945E-07  3.07373183E-05  2.03848406E-07 -7.38175910E-06
 -1.09068982E-05 -5.41829285E-05 -5.51290145E-07  1.67964133E-05  1.24681511E-05
 -1.78306167E-04  6.38087920E-06 -2.19263633E-05 -1.28005824E-05 -4.54248509E-05
 -1.09049212E-05 -8.48962255E-05 -1.70678204E-05  1.77535261E-05 -1.41737502E-06
  4.55950274E-04 -6.43101927E-05 -3.20431322E-04 -1.90138120E-05 -9.16643557E-05
  2.19910671E-05 -8.06577269E-05 -4.99136876E-05 -3.79245706E-06 -1.07051745E-05
  9.94999362E-01  2.53584476E-02 -1.55774356E-04 -3.84776214E-05  2.39806773E-04
 -4.01971398E-03  5.10672999E-04  2.74851795E-04 -2.91919474E-04 -3.35914949E-03
 -3.42033047E-03 -3.20024202E-03  3.59490967E-05 -7.46270189E-05  5.60012700E-05
 -2.49833540E-03 -9.18157400E-05  3.34449431E-06 -3.89284298E-05  1.01375088E-05
 -1.59737348E-05 -3.46164975E-04 -5.06521525E-05 -6.62211774E-05  3.63030010E-05
 -1.72349995E-05 -2.32475358E-05 -4.99391936E-05  3.30128703E-05 -1.56120563E-05
 -3.33757384E-06  1.71995235E-04 -2.20726606E-04  1.14637340E-04 -1.03304631E-04
  1.00283587E-03 -5.24619924E-04  9.44253353E-05  7.10145968E-05 -6.60315799E-05
 -9.15217896E-05 -6.93370350E-05  1.28544743E-05 -1.31237651E-05  1.38779151E-05
 -1.62131717E-05 -4.73290080E-05  6.17556046E-05 -2.54106723E-05 -7.97220302E-06
  2.73752535E-04 -8.74775693E-05  7.54409093E-05  5.32246324E-06 -5.85232100E-05
 -4.71005153E-05 -2.58894651E-05 -1.70168554E-06  6.34183858E-06 -9.01118761E-07
 -2.60192914E-06  1.71847084E-04  8.24462227E-06 -2.68739956E-04  3.26075364E-05
  1.04005944E-03 -9.89682263E-05 -3.71006497E-04  8.31759786E-05 -8.96307340E-05
 -8.94545998E-05 -4.38517834E-05  1.64837955E-05 -4.93583532E-06 -5.14567724E-06
  1.37687995E-05  1.95790413E-04  1.88066622E-04  1.10642075E-04  2.83685447E-05
  1.54308232E-03  1.41685608E-03  6.05548817E-04  2.47736260E-04 -1.56934140E-04
 -6.90761263E-05 -6.74343384E-05 -6.65694652E-05 -3.72699445E-06  5.06663270E-06
 -6.30384924E-05 -1.18579893E-04 -9.55189106E-05 -1.91596539E-04 -1.10846114E-05
 -6.68941768E-05 -1.67873360E-05 -8.63336990E-05 -1.03334826E-05  7.84278247E-05
 -6.46717994E-05 -4.10557993E-05 -9.29712114E-05 -6.98721298E-05 -7.39223724E-05
 -1.57352056E-04  3.04375683E-05  1.26820305E-05 -5.16313691E-05 -2.30943588E-07
 -2.60241312E-05 -1.58605219E-04 -3.03430820E-05  1.52571933E-05 -6.03183633E-06
  8.44292553E-04  3.66478402E-04  2.23949032E-04  8.90646158E-05 -2.83796977E-06
 -1.39431166E-04 -1.25535874E-04  3.75479000E-05  3.15631425E-05  3.55117606E-06
  2.49467277E-03  1.34690549E-05  5.28946682E-05  1.01532064E-05  1.99665871E-06
  1.09651990E-04 -5.36486943E-04  3.21236808E-04 -5.33412294E-05  2.80783139E-05
 -5.38443980E-05 -5.79549818E-05 -1.93312821E-05  2.25070218E-06 -5.63833937E-06
  9.94976366E-01  2.51895819E-02 -6.39990723E-05  2.95112299E-04 -1.03940096E-03
 -3.29276395E-03  1.01196397E-04 -9.46762509E-04  8.09796995E-04 -3.44307554E-03
 -3.46461824E-03 -3.28376350E-03 -1.17336412E-05  2.56952313E-05 -9.38396696E-06