opt=(Tight,CalcAll)                                                     
Freq      RMP2-FC                                                     6-31G(d)            
Number of atoms                            I                7
Info1-9                                    I   N=           9
          16          16        1002           0           0         100
           6           2           1
Charge                                     I                0
Multiplicity                               I                1
Number of electrons                        I               32
Number of alpha electrons                  I               16
Number of beta electrons                   I               16
Number of basis functions                  I               66
Number of independent functions            I               66
Number of point charges in /Mol/           I                0
Number of translation vectors              I                0
Atomic numbers                             I   N=           7
           8           8           7           6           1           1
           1
Nuclear charges                            R   N=           7
  8.00000000E+00  8.00000000E+00  7.00000000E+00  6.00000000E+00  1.00000000E+00
  1.00000000E+00  1.00000000E+00
Current cartesian coordinates              R   N=          21
  1.54198548E+00 -1.89106130E+00  4.52158003E-03  9.26955542E-01  2.38067663E+00
  1.30955233E-02 -2.41712620E+00 -4.09150260E-01 -1.09484441E-01  7.72772371E-02
  2.36768532E-01 -2.20959807E-03 -2.91632857E+00 -2.19335321E+00  3.44915612E-01
 -3.65640545E+00  9.86082756E-01  2.82864832E-01  3.27742580E+00 -1.26621156E+00
  1.09314048E-02
Force Field                                I                0
Int Atom Types                             I   N=           7
           0           0           0           0           0           0
           0
MM charges                                 R   N=           7
  0.00000000E+00  0.00000000E+00  0.00000000E+00  0.00000000E+00  0.00000000E+00
  0.00000000E+00  0.00000000E+00
Integer atomic weights                     I   N=           7
          16          16          14          12           1           1
           1
Real atomic weights                        R   N=           7
  1.59949146E+01  1.59949146E+01  1.40030740E+01  1.20000000E+01  1.00782504E+00
  1.00782504E+00  1.00782504E+00
Atom fragment info                         I   N=           7
           0           0           0           0           0           0
           0
Atom residue num                           I   N=           7
           0           0           0           0           0           0
           0
Nuclear spins                              I   N=           7
           0           0           2           0           1           1
           1
Nuclear ZEff                               R   N=           7
 -5.60000000E+00 -5.60000000E+00 -4.55000000E+00 -3.60000000E+00 -1.00000000E+00
 -1.00000000E+00 -1.00000000E+00
Nuclear QMom                               R   N=           7
  0.00000000E+00  0.00000000E+00  2.04400000E+00  0.00000000E+00  0.00000000E+00
  0.00000000E+00  0.00000000E+00
Nuclear GFac                               R   N=           7
  0.00000000E+00  0.00000000E+00  4.03761000E-01  0.00000000E+00  2.79284600E+00
  2.79284600E+00  2.79284600E+00
MicOpt                                     I   N=           7
          -1          -1          -1          -1          -1          -1
          -1
Number of contracted shells                I               22
Number of primitive shells                 I               56
Pure/Cartesian d shells                    I                1
Pure/Cartesian f shells                    I                0
Highest angular momentum                   I                2
Largest degree of contraction              I                6
Shell types                                I   N=          22
           0          -1          -1           2           0          -1
          -1           2           0          -1          -1           2
           0          -1          -1           2           0           0
           0           0           0           0
Number of primitives per shell             I   N=          22
           6           3           1           1           6           3
           1           1           6           3           1           1
           6           3           1           1           3           1
           3           1           3           1
Shell to atom map                          I   N=          22
           1           1           1           1           2           2
           2           2           3           3           3           3
           4           4           4           4           5           5
           6           6           7           7
Primitive exponents                        R   N=          56
  5.48467166E+03  8.25234946E+02  1.88046958E+02  5.29645000E+01  1.68975704E+01
  5.79963534E+00  1.55396162E+01  3.59993359E+00  1.01376175E+00  2.70005823E-01
  8.00000000E-01  5.48467166E+03  8.25234946E+02  1.88046958E+02  5.29645000E+01
  1.68975704E+01  5.79963534E+00  1.55396162E+01  3.59993359E+00  1.01376175E+00
  2.70005823E-01  8.00000000E-01  4.17351146E+03  6.27457911E+02  1.42902093E+02
  4.02343293E+01  1.28202129E+01  4.39043701E+00  1.16263619E+01  2.71627981E+00
  7.72218397E-01  2.12031498E-01  8.00000000E-01  3.04752488E+03  4.57369518E+02
  1.03948685E+02  2.92101553E+01  9.28666296E+00  3.16392696E+00  7.86827235E+00
  1.88128854E+00  5.44249258E-01  1.68714478E-01  8.00000000E-01  1.87311370E+01
  2.82539436E+00  6.40121692E-01  1.61277759E-01  1.87311370E+01  2.82539436E+00
  6.40121692E-01  1.61277759E-01  1.87311370E+01  2.82539436E+00  6.40121692E-01
  1.61277759E-01
Contraction coefficients                   R   N=          56
  1.83107443E-03  1.39501722E-02  6.84450781E-02  2.32714336E-01  4.70192898E-01
  3.58520853E-01 -1.10777550E-01 -1.48026263E-01  1.13076702E+00  1.00000000E+00
  1.00000000E+00  1.83107443E-03  1.39501722E-02  6.84450781E-02  2.32714336E-01
  4.70192898E-01  3.58520853E-01 -1.10777550E-01 -1.48026263E-01  1.13076702E+00
  1.00000000E+00  1.00000000E+00  1.83477216E-03  1.39946270E-02  6.85865518E-02
  2.32240873E-01  4.69069948E-01  3.60455199E-01 -1.14961182E-01 -1.69117479E-01
  1.14585195E+00  1.00000000E+00  1.00000000E+00  1.83473713E-03  1.40373228E-02
  6.88426223E-02  2.32184443E-01  4.67941348E-01  3.62311985E-01 -1.19332420E-01
 -1.60854152E-01  1.14345644E+00  1.00000000E+00  1.00000000E+00  3.34946043E-02
  2.34726953E-01  8.13757326E-01  1.00000000E+00  3.34946043E-02  2.34726953E-01
  8.13757326E-01  1.00000000E+00  3.34946043E-02  2.34726953E-01  8.13757326E-01
  1.00000000E+00
P(S=P) Contraction coefficients            R   N=          56
  0.00000000E+00  0.00000000E+00  0.00000000E+00  0.00000000E+00  0.00000000E+00
  0.00000000E+00  7.08742682E-02  3.39752839E-01  7.27158577E-01  1.00000000E+00
  0.00000000E+00  0.00000000E+00  0.00000000E+00  0.00000000E+00  0.00000000E+00
  0.00000000E+00  0.00000000E+00  7.08742682E-02  3.39752839E-01  7.27158577E-01
  1.00000000E+00  0.00000000E+00  0.00000000E+00  0.00000000E+00  0.00000000E+00
  0.00000000E+00  0.00000000E+00  0.00000000E+00  6.75797439E-02  3.23907296E-01
  7.40895140E-01  1.00000000E+00  0.00000000E+00  0.00000000E+00  0.00000000E+00
  0.00000000E+00  0.00000000E+00  0.00000000E+00  0.00000000E+00  6.89990666E-02
  3.16423961E-01  7.44308291E-01  1.00000000E+00  0.00000000E+00  0.00000000E+00
  0.00000000E+00  0.00000000E+00  0.00000000E+00  0.00000000E+00  0.00000000E+00
  0.00000000E+00  0.00000000E+00  0.00000000E+00  0.00000000E+00  0.00000000E+00
  0.00000000E+00
Coordinates of each shell                  R   N=          66
  1.54198548E+00 -1.89106130E+00  4.52158003E-03  1.54198548E+00 -1.89106130E+00
  4.52158003E-03  1.54198548E+00 -1.89106130E+00  4.52158003E-03  1.54198548E+00
 -1.89106130E+00  4.52158003E-03  9.26955542E-01  2.38067663E+00  1.30955233E-02
  9.26955542E-01  2.38067663E+00  1.30955233E-02  9.26955542E-01  2.38067663E+00
  1.30955233E-02  9.26955542E-01  2.38067663E+00  1.30955233E-02 -2.41712620E+00
 -4.09150260E-01 -1.09484441E-01 -2.41712620E+00 -4.09150260E-01 -1.09484441E-01
 -2.41712620E+00 -4.09150260E-01 -1.09484441E-01 -2.41712620E+00 -4.09150260E-01
 -1.09484441E-01  7.72772371E-02  2.36768532E-01 -2.20959807E-03  7.72772371E-02
  2.36768532E-01 -2.20959807E-03  7.72772371E-02  2.36768532E-01 -2.20959807E-03
  7.72772371E-02  2.36768532E-01 -2.20959807E-03 -2.91632857E+00 -2.19335321E+00
  3.44915612E-01 -2.91632857E+00 -2.19335321E+00  3.44915612E-01 -3.65640545E+00
  9.86082756E-01  2.82864832E-01 -3.65640545E+00  9.86082756E-01  2.82864832E-01
  3.27742580E+00 -1.26621156E+00  1.09314048E-02  3.27742580E+00 -1.26621156E+00
  1.09314048E-02
Constraint Structure                       R   N=          21
  1.54198548E+00 -1.89106130E+00  4.52158003E-03  9.26955542E-01  2.38067663E+00
  1.30955233E-02 -2.41712620E+00 -4.09150260E-01 -1.09484441E-01  7.72772371E-02
  2.36768532E-01 -2.20959807E-03 -2.91632857E+00 -2.19335321E+00  3.44915612E-01
 -3.65640545E+00  9.86082756E-01  2.82864832E-01  3.27742580E+00 -1.26621156E+00
  1.09314048E-02
Num ILSW                                   I              100
ILSW                                       I   N=         100
           0           1           0           0           2           0
           0           0           0           0           0          -1
           0           0           0           0           0           0
           0           0           0           0           1           0
           1           0           0           0           0           0
           0           0      100000           0          -1           0
           0           0           0           0           0           0
           0           0           0           1           1           0
           0           0           1           0           0           0
           0           0           4          40           0           0
           0           0           0           0           0           0
           0           0           0           0           0           0
           0           0           0           0           0           0
           0           0           0           0           0           0
           0           0           0           0           0           0
           0           0           0           0           0           0
           0           0           0           0
Num RLSW                                   I               40
RLSW                                       R   N=          40
  1.00000000E+00  1.00000000E+00  1.00000000E+00  1.00000000E+00  1.00000000E+00
  0.00000000E+00  0.00000000E+00  1.00000000E+00  0.00000000E+00  0.00000000E+00
  0.00000000E+00  0.00000000E+00  1.00000000E+00  0.00000000E+00  0.00000000E+00
  0.00000000E+00  0.00000000E+00  1.00000000E+00  0.00000000E+00  0.00000000E+00
  0.00000000E+00  0.00000000E+00  1.00000000E+00  0.00000000E+00  0.00000000E+00
  0.00000000E+00  0.00000000E+00  1.00000000E+00  0.00000000E+00  0.00000000E+00
  0.00000000E+00  0.00000000E+00  0.00000000E+00  0.00000000E+00  0.00000000E+00
  0.00000000E+00  0.00000000E+00  0.00000000E+00  1.00000000E+00  1.00000000E+00
MxBond                                     I                3
NBond                                      I   N=           7
           2           1           3           3           1           1
           1
IBond                                      I   N=          21
           4           7           0           4           0           0
           4           5           6           1           2           3
           3           0           0           3           0           0
           1           0           0
RBond                                      R   N=          21
  1.50000000E+00  1.00000000E+00  0.00000000E+00  2.00000000E+00  0.00000000E+00
  0.00000000E+00  1.41000000E+00  1.00000000E+00  1.00000000E+00  1.50000000E+00
  2.00000000E+00  1.41000000E+00  1.00000000E+00  0.00000000E+00  0.00000000E+00
  1.00000000E+00  0.00000000E+00  0.00000000E+00  1.00000000E+00  0.00000000E+00
  0.00000000E+00
Virial Ratio                               R      2.003628889314739E+00
SCF Energy                                 R     -2.438160794740839E+02
MP2 Energy                                 R     -2.444575532995206E+02
Total Energy                               R     -2.444575532995206E+02
Post-SCF wavefunction norm                 R      1.539362645582175E+00
RMS Force                                  R      1.920595525945768E-07
RMS Density                                R      1.786055222707244E-09
External E-field                           R   N=          35
  0.00000000E+00  0.00000000E+00  0.00000000E+00  0.00000000E+00  0.00000000E+00
  0.00000000E+00  0.00000000E+00  0.00000000E+00  0.00000000E+00  0.00000000E+00
  0.00000000E+00  0.00000000E+00  0.00000000E+00  0.00000000E+00  0.00000000E+00
  0.00000000E+00  0.00000000E+00  0.00000000E+00  0.00000000E+00  0.00000000E+00
  0.00000000E+00  0.00000000E+00  0.00000000E+00  0.00000000E+00  0.00000000E+00
  0.00000000E+00  0.00000000E+00  0.00000000E+00  0.00000000E+00  0.00000000E+00
  0.00000000E+00  0.00000000E+00  0.00000000E+00  0.00000000E+00  0.00000000E+00
IOpCl                                      I                0
IROHF                                      I                0
Alpha Orbital Energies                     R   N=          66
 -2.06203025E+01 -2.05403877E+01 -1.55993920E+01 -1.14180391E+01 -1.46170817E+00
 -1.35066038E+00 -1.22101127E+00 -8.54846377E-01 -7.50953695E-01 -7.00268097E-01
 -6.60238890E-01 -6.40218153E-01 -5.99135084E-01 -4.98705019E-01 -4.56757336E-01
 -4.30858493E-01  2.05350123E-01  2.28400261E-01  2.51191572E-01  2.79785272E-01
  4.26814381E-01  5.06558910E-01  5.69392338E-01  7.57517490E-01  7.77726616E-01
  8.01953499E-01  8.99197664E-01  9.17173928E-01  9.74742703E-01  1.03189652E+00
  1.08527733E+00  1.13916511E+00  1.16714326E+00  1.18858059E+00  1.21644315E+00
  1.32048818E+00  1.33722225E+00  1.34096193E+00  1.42510989E+00  1.54245053E+00
  1.60439188E+00  1.66088773E+00  1.73892019E+00  1.89735491E+00  2.00764919E+00
  2.01542282E+00  2.08182000E+00  2.10838197E+00  2.12300787E+00  2.17152767E+00
  2.31002613E+00  2.40376704E+00  2.57487981E+00  2.58525994E+00  2.76658897E+00
  2.80014536E+00  2.89712268E+00  3.00945521E+00  3.04110992E+00  3.24491295E+00
  3.36779557E+00  3.45677927E+00  4.19420420E+00  4.22602673E+00  4.51860506E+00
  4.72429471E+00
Alpha MO coefficients                      R   N=        4356
  9.94638226E-01  2.12001506E-02  3.57470903E-04  1.23222066E-03  8.88346691E-06
  4.02299945E-03 -3.07987513E-04 -6.05456107E-04 -3.29066891E-06 -4.15131953E-03
 -4.10302205E-03 -3.92357861E-03  2.53303256E-05 -1.15370792E-06  4.57849478E-07
 -1.90073338E-04  7.16400256E-05 -1.41530038E-05  3.53777931E-05 -3.10544440E-07
 -5.53100731E-04 -5.61407097E-05  1.75610130E-04  1.46443631E-07  8.05386007E-05
 -4.12494278E-05  2.57731497E-05  4.19638671E-05  5.39788577E-07  6.30304468E-07
 -1.97924051E-05 -5.05572156E-05 -2.58709414E-05  4.77500260E-06 -8.02523933E-06
  7.22561041E-04  8.64708720E-05  6.63762537E-05  4.57331740E-05 -1.08373240E-04
 -4.10294281E-05 -4.79125056E-05  3.18562259E-05 -3.53326247E-06  4.96191056E-06
  1.57289904E-06  4.03877179E-04  1.76872191E-04 -2.71329857E-04 -1.16070264E-06
 -1.91221033E-04  5.78676011E-04  4.86998324E-04  7.05545666E-06 -1.45547301E-05
 -3.10239190E-05 -4.36889488E-05  5.64628343E-05  2.54097659E-06  1.85783264E-06
  1.61548652E-05 -1.35890804E-04 -2.37665142E-05 -7.10409202E-05  4.31476401E-04
 -2.79464001E-04  1.98230155E-04 -4.84989614E-05 -6.14468016E-06 -3.64976104E-05
 -7.74239427E-07  2.01126480E-04 -5.27966314E-05  6.79606027E-05  1.09473154E-06
  5.81950811E-05 -9.77410200E-05 -6.50674873E-05 -5.57942584E-05  1.05952737E-06
 -9.53309639E-07  9.94695533E-01  2.10488987E-02 -5.84973067E-04 -1.51848529E-03
 -6.01747309E-06  4.29680502E-03  3.82865953E-05  7.01146289E-05  8.60183224E-07
 -3.86386977E-03 -3.61893432E-03 -4.06121878E-03  1.25817340E-04  1.21891318E-06
  2.24153469E-06 -4.27622785E-06 -2.26560240E-05  1.28221633E-05 -2.94241474E-05
 -2.07189690E-06  8.54351925E-05  1.24202451E-05 -5.84465566E-06  1.51899125E-05
  6.90601545E-05 -5.62971617E-05 -3.33578051E-05 -8.87569455E-05  4.70848728E-06
 -2.03277079E-07  1.69662028E-06  5.44303414E-04 -2.75806169E-05 -4.63712382E-05
 -1.04476079E-06 -5.18946226E-04 -1.54657246E-04 -2.70563985E-04 -5.65723523E-06
 -1.53789528E-04 -7.46570230E-04 -2.24448470E-05 -3.23982676E-04 -1.19062561E-06
 -7.90719717E-06  2.31229639E-05 -6.26154198E-05 -2.27460663E-05 -2.49708249E-05
 -1.61354997E-05 -2.76558352E-05 -2.87732899E-06 -7.75558730E-05  2.90889565E-05
 -3.97463109E-05  2.03827140E-06  1.43910255E-04  1.04608756E-04  2.12628942E-04
 -2.11158268E-05 -3.08735122E-05  2.82982636E-05 -7.70718419E-05  2.00997944E-05
  5.64537722E-07 -5.06157592E-06 -1.58274669E-05 -1.05693504E-04  2.35212947E-06
  1.78649809E-05  2.19347291E-06  5.77967904E-04  2.33128949E-04 -2.55096427E-04
 -3.16451728E-05 -1.02223067E-04  2.17672300E-05 -1.01435816E-04 -5.05658899E-05
  1.03515306E-06  7.76527973E-06  9.94908900E-01  2.52629444E-02  2.75779690E-04
  7.12140425E-05  6.41195272E-04 -2.51225121E-03 -7.76271636E-04 -1.89163726E-04
 -4.23043443E-04 -3.54042131E-03 -3.55552786E-03 -3.43669331E-03  4.84893653E-06
  3.98360485E-06  4.48348810E-06  8.21945748E-06  2.28096401E-04 -2.05810573E-04
 -5.29667746E-05 -3.38855147E-06  1.22763030E-03 -1.41822285E-03 -4.38661469E-04
  7.77634415E-05 -2.25555234E-04 -1.12903649E-04 -7.95835658E-05 -4.95670141E-05
 -7.18966167E-06  9.69531750E-07  2.73501619E-04  3.11895894E-04  2.78449326E-04
  2.98324578E-04 -4.20793842E-05  1.17608924E-04 -1.08385981E-04  4.92290821E-04
  1.83458308E-06  1.69810660E-04  2.95018018E-06 -8.10723408E-04  1.60862589E-05
 -1.40085790E-03 -2.06737921E-05 -1.78922608E-04 -4.22952229E-04  3.95355346E-04
  4.22642586E-04 -6.49763690E-06 -1.60916664E-06 -2.83917075E-04  5.55922014E-04
 -1.07632326E-04 -3.37284727E-04  4.10992779E-06 -2.77712292E-03  1.58291044E-04
  1.52861809E-03 -2.50918908E-05  1.95933097E-04  1.19832594E-04  3.01184754E-04
  1.08964808E-04 -9.93447183E-07  4.31804774E-06 -3.27881165E-04 -1.28564722E-05
 -1.75209961E-04  1.03605150E-05  1.17787781E-05  2.50036768E-03  8.03344626E-04
 -2.88485823E-04 -4.88697970E-05 -6.42716391E-04 -2.12326295E-04 -7.34137471E-05
 -5.46586437E-05 -8.52888850E-06 -2.64501536E-05  9.95824034E-01  2.52845238E-02
  2.57863139E-04 -6.79148159E-04 -4.86770531E-05 -4.39818245E-03  2.36884581E-03
  1.91441889E-03  1.26426780E-04 -1.09639568E-03 -7.20165463E-04 -2.42639143E-03
  1.76340050E-04  2.34995054E-05  1.20867052E-05 -1.14215062E-04  1.73708757E-04
  7.67940967E-05  3.63335152E-04  2.73851708E-04  2.05642959E-04 -1.60195628E-01
  3.60743847E-01 -2.33819198E-03  8.70780309E-02  1.65444612E-04  3.35857271E-01
  1.44567427E-03  5.07596746E-02  3.77314909E-04  1.67492602E-02  1.53917130E-02
 -1.55727602E-03 -1.33567569E-03 -1.51588665E-05 -3.48687955E-05 -9.39842365E-02
  2.06405799E-01 -2.22762167E-02 -7.65727508E-02 -4.46615012E-04  1.82126822E-01
 -4.35873615E-03 -3.28329253E-02 -1.97676386E-04 -1.30144986E-03  1.08161537E-02
 -6.31460137E-04  3.40026998E-03 -1.89369841E-05  9.03767954E-05 -3.99498883E-02
  8.47208586E-02  3.89082236E-02  5.94123102E-03  5.84601858E-03  6.43491809E-02
  1.16246440E-02  8.06845855E-04  3.02821776E-03  9.05439308E-03  2.21013210E-03
 -1.16359836E-03  2.09466598E-03  3.33705867E-04 -1.75151260E-04 -1.16923036E-01
  2.31277058E-01  6.33299668E-02 -6.92674587E-03  3.90906893E-04  3.72176549E-02
 -1.34283609E-02 -8.39162835E-04  5.90827039E-04 -6.85830328E-04  2.08441344E-02
 -1.94934392E-02 -4.88318077E-03  1.22033350E-04  8.99390396E-05  1.74084160E-02
 -9.57634162E-04  1.57047999E-02 -2.32419939E-03  8.51319823E-02 -5.56691771E-03
  1.26289745E-01 -2.83686537E-01 -1.82173103E-02 -3.16989052E-02 -1.68910230E-04
 -2.92381395E-01 -7.82731697E-03 -1.81490302E-02 -5.49475429E-04 -1.43101922E-02
 -1.74231622E-03  1.07391607E-03 -3.93128691E-03  1.78724142E-05 -6.72193943E-06
 -1.66858565E-01  3.62310812E-01 -4.85515747E-02 -9.50089218E-02 -6.99530177E-04
  3.55861611E-01 -2.32738541E-02 -4.06641456E-02  9.87932578E-06  7.37554142E-04
  9.97405538E-03 -3.78333353E-03  8.02934802E-03  5.81042603E-06  1.13501993E-04
 -1.91464497E-02  4.04422498E-02  9.57006561E-03  2.11357353E-02  3.01702029E-03
  3.44567111E-02  1.08903978E-03  1.68671292E-02  1.79974202E-03  2.50321928E-03
  2.41971817E-03 -7.93102366E-04  3.48017446E-03 -2.44407735E-04  9.06234857E-04
 -5.75989849E-02  1.16873015E-01 -1.34950028E-04  2.19050945E-01  6.29473941E-04
  2.46131110E-02 -7.95441649E-05 -2.50585813E-02  2.09354687E-04 -9.51785189E-03
  1.01993611E-02 -9.21148227E-03  3.09933501E-02  7.75236992E-05  3.56132434E-04
  4.54277704E-03 -1.45668261E-03  1.33083452E-02 -6.39012781E-04 -7.21871357E-02
  4.41122812E-03  3.61309191E-02 -8.24081454E-02 -5.14710198E-02 -1.14943648E-02
 -4.76961017E-04 -8.82385799E-02 -2.55040564E-02 -1.02099600E-02  4.11637248E-05
 -3.88293774E-03 -2.35590001E-03  1.23173940E-04 -5.84114234E-03 -4.77989307E-05
  1.51254465E-06  5.82295627E-02 -1.26200470E-01 -1.41992358E-02  2.70739840E-02
 -1.92402655E-04 -1.35324933E-01 -1.01416602E-02  1.31174729E-02  4.59822149E-05
  2.46669625E-03 -4.57622775E-03  1.75918649E-03  1.82765964E-03  3.17127787E-05
 -8.13793028E-05 -1.88506541E-01  3.90983853E-01  3.65227800E-02  6.48198435E-03
  3.47835104E-02  4.20070247E-01  1.58158703E-02  1.48929321E-03  2.14836791E-02
  1.27335446E-02  1.70540754E-02 -8.39962105E-03 -1.72804222E-03 -3.14725904E-03
 -1.51434474E-03 -3.92539367E-02  8.78755352E-02 -1.86275099E-01 -8.35614835E-02
 -2.34857165E-03  1.28503234E-02  1.22023995E-02  2.18262438E-03 -5.56840781E-04
  2.28410619E-02 -1.53286871E-02 -3.79983565E-03  8.17883658E-03  1.88292548E-04
 -1.71734902E-05  1.13125154E-01 -1.32222430E-03  1.10913804E-01 -4.23269219E-04
 -4.01847146E-02 -5.47934784E-03 -3.17179097E-02  7.53476594E-02  3.12085721E-01
 -1.17117234E-01  5.54383638E-03  9.38873867E-02  1.79093872E-01 -6.73966191E-02
  4.04742254E-03  1.92735492E-02 -1.19627088E-02  8.64165576E-04  2.61252039E-02
  1.57196031E-04  5.54988048E-04 -4.28355589E-02  9.40519782E-02  2.68334910E-02
  6.32267211E-02  3.92847609E-03  1.35557074E-01  1.23792198E-02  3.34462272E-02
  3.88152553E-03  1.54883423E-03 -4.88403073E-03 -1.14977826E-03 -2.23100034E-03
 -1.84660746E-04 -7.15056645E-04 -4.98593113E-02  1.04647994E-01 -2.75961462E-01
  4.01106639E-03  3.49346611E-02  1.44862768E-01 -1.36065585E-01  4.87976354E-03
  2.09135672E-02 -9.00460021E-03  1.98686364E-02 -9.96360253E-04 -9.91805485E-03
 -8.81694355E-03  3.27517071E-04  1.12072833E-01 -2.57076194E-01  4.93081212E-02
  1.54898063E-01  1.02991260E-02 -1.30527110E-01  1.11904254E-02  1.62439918E-02
 -3.19222342E-03 -1.86708525E-04 -9.64118120E-03  1.20045584E-02  2.75864284E-03
 -1.92636976E-03 -5.46017591E-04  8.08058087E-02  2.82886546E-02  1.36847802E-01
  4.19105523E-02  1.52281435E-01  4.99611613E-02 -2.84988155E-03  9.18068858E-03
  1.95098305E-01 -5.15975282E-02 -1.14297607E-02 -5.07786368E-04  1.28092886E-01
 -2.90821087E-02 -9.64224547E-03  1.30271740E-02 -5.70457766E-03  3.06505886E-04
  1.26214297E-02  5.13107512E-04 -1.00367366E-03  4.56404182E-02 -1.04311437E-01
 -1.56737475E-01 -7.13228819E-02 -1.13372188E-02 -1.46723439E-01 -9.09886348E-02
 -3.64848321E-02 -7.48825004E-03  4.57672701E-03  2.52423517E-03 -2.19271790E-03
  1.26274977E-02  4.19036760E-04  1.32600450E-03  8.27369927E-03 -1.66319058E-02
  1.42451072E-01  3.67689477E-01 -3.65153694E-02 -3.19207020E-02  7.18811258E-02
  2.25261295E-01 -2.37084342E-02  1.27753657E-02 -1.69918133E-02 -1.10440524E-03
 -5.39643240E-03  2.47896290E-03  1.60243026E-02 -3.93022329E-02  9.81334508E-02
 -1.97936732E-01  1.32493017E-01 -1.94613450E-02  4.16235784E-02 -3.28335584E-02
 -7.77157248E-03 -9.40994820E-04  1.46820217E-02 -1.74979711E-02 -2.64487893E-03
 -2.24408343E-03  1.87350687E-03  6.43313176E-04 -2.22925633E-01 -7.92863703E-02
  8.00916176E-02  2.20010466E-02  9.03318771E-02  2.78874976E-02  4.87837369E-02
 -1.16570519E-01  1.97425510E-02  3.56895264E-01  1.76810074E-02 -1.74818729E-01
  1.30523802E-02  2.35770147E-01  1.17927942E-02 -1.04570114E-02  2.61195579E-02
 -8.64815917E-03  2.36258633E-03 -3.01538898E-06  1.45398633E-03  6.20531553E-02
 -1.37418031E-01  6.14159388E-02 -2.70947444E-01  1.17878841E-02 -2.48467980E-01
  4.59794141E-02 -1.48678709E-01  8.35741903E-03 -8.30186903E-03  2.33058206E-02
 -2.55948989E-03 -9.72164573E-04 -5.02359113E-04 -1.37777509E-03 -2.90195619E-03
  3.70642861E-03 -2.06637009E-01  7.72962658E-02  2.93846004E-02  3.80710878E-02
 -1.21352328E-01  5.38267652E-02  2.28752548E-02 -1.64632954E-03  5.04168434E-03
  5.95427934E-04 -9.52682817E-03 -5.64228152E-03  4.21399665E-03 -4.85247010E-02
  1.16519356E-01  2.84869944E-01  2.85663336E-02  2.30488780E-02  6.16977347E-02
  6.93305518E-02  9.15974160E-03  4.39015022E-03  7.51367703E-04  9.21859181E-05
 -5.81106732E-03 -1.30052662E-02 -1.30381634E-03 -5.62363694E-04 -5.61677850E-03
 -1.03422539E-02  1.15773817E-01  3.82691997E-02  3.23945833E-02  8.28658030E-04
  3.86776723E-02 -8.84530566E-02  3.28749798E-01  7.68532046E-02 -4.92056973E-02
 -1.53824811E-01  2.25910810E-01  5.83536306E-02 -3.41070264E-02  1.53343840E-02
  2.75601621E-03 -4.54000975E-03  2.30173507E-02  2.78257546E-04 -3.14323701E-03
  3.34384128E-02 -7.75904398E-02 -6.22562667E-02 -1.47735310E-01 -3.36717120E-02
 -1.33938207E-01 -3.67461440E-02 -8.56529346E-02 -2.24974462E-02  1.19213090E-03
  6.40785375E-03 -3.35179713E-03  8.96077060E-03  1.25881443E-03  3.24854250E-03
 -9.64094038E-03  1.87460970E-02  2.10540942E-01 -2.83592347E-01 -3.73234657E-02
  5.03792574E-02  1.33835392E-01 -1.80400980E-01 -2.38224625E-02 -3.22392544E-03
  8.20899252E-05 -1.46682924E-03  2.21894542E-02  4.90519067E-03 -1.39755331E-02
 -3.21546340E-02  8.32154566E-02 -8.35756870E-02  1.19885722E-01 -4.39532440E-02
  2.66928986E-02 -4.36028206E-03  2.28531850E-02 -1.60866053E-02  1.11216551E-02
 -1.33829182E-02 -1.99782206E-03  2.57674983E-02  5.78582112E-04  7.18161523E-04
  1.25414262E-01  4.87267678E-02 -2.04995596E-01 -9.66114497E-02  1.63055124E-01
  7.19646429E-02 -7.12063091E-04  2.10622789E-03  3.14179425E-02 -3.92573288E-02
  4.00615599E-01 -9.20933498E-05  2.48204591E-02 -2.65005859E-02  2.84946561E-01
  2.26943072E-03 -2.73242022E-03  8.99735784E-04  1.92851813E-03 -1.73313575E-04
  2.52154305E-02  9.78284933E-03 -2.37851383E-02 -5.46555551E-02 -3.97217068E-02
  2.37191383E-01 -3.39262099E-02 -3.48806798E-02 -2.36121465E-02  1.52989329E-01
  8.65352572E-04  1.17120973E-03 -1.34773315E-03  4.49944555E-03 -7.65625049E-03
 -2.15787409E-02  1.19464175E-02 -2.89271286E-02  4.92725374E-02 -3.10795592E-02
  1.96737046E-01 -4.29068220E-02  3.23450590E-02 -1.50053275E-02  1.35353135E-01
 -3.16218352E-03 -2.14408740E-03  4.68252706E-03  3.91058692E-03  1.22966390E-02
  2.80048523E-04 -1.08131469E-02  2.43448522E-02 -4.01782510E-02  4.42555676E-02
  2.89316351E-01  1.85491552E-02 -1.53382550E-02 -3.78577116E-03  1.30127196E-01
 -1.02224023E-03 -2.24852541E-04 -1.37922654E-03  4.84151026E-03  6.17548639E-03
 -3.02522512E-03  2.45826094E-02  1.33526103E-02 -2.48429618E-02 -1.51511778E-02
  1.14713683E-02  4.59290486E-03  4.24366798E-02 -9.75095695E-02  1.47746756E-01
  3.24719757E-01  5.53400876E-02 -1.72045588E-01  8.97005140E-02  2.26199235E-01
  3.95178905E-02  7.32727777E-03  1.48394460E-02 -7.15008561E-03  1.05926627E-02
  4.86019675E-04  3.35991623E-03 -4.87161563E-02  1.19258850E-01  2.10249111E-01
  3.39501639E-01  2.99350579E-02  1.76664066E-01  1.35402464E-01  2.12523056E-01
  1.91735735E-02  3.97260665E-03 -1.90631786E-02  8.32195344E-03 -1.64771104E-02
 -8.39537034E-04 -2.35873024E-03 -1.48408829E-02  2.61408600E-02  1.34597638E-01
  8.34606353E-02 -2.02217376E-03  1.12366395E-01  1.08512238E-01  3.92980069E-02
  1.08945783E-03  5.98746466E-03 -1.18753049E-02 -1.89944184E-03 -4.27712013E-03
  3.95004487E-03  2.93561839E-03  1.92197605E-02 -4.77662646E-02 -1.02222464E-01
 -2.84857892E-01  2.40354248E-02 -4.47778669E-02  4.63059525E-02  2.76834253E-02
  1.76871673E-02  3.07000611E-02 -2.36145104E-02  2.94340622E-03 -1.33191494E-02
  2.95813538E-03 -3.26717038E-04 -7.01409719E-02 -5.78071053E-02 -4.11986115E-03
  4.79665722E-03  1.11820521E-01  6.09763111E-02 -1.04753975E-03  3.72090923E-03
 -8.07681495E-03 -2.61627105E-02  4.73833982E-01 -5.61098642E-03 -5.41785201E-03
 -2.29364199E-02  3.85407377E-01 -1.85128933E-04 -7.63880974E-04  1.24773158E-03
 -4.52869825E-04  6.30062811E-03  2.08985749E-02  2.83968048E-05 -2.01323748E-03
  4.67135197E-02 -2.91989463E-02 -2.88005053E-01  8.55396889E-03  3.17820849E-02
 -2.23610535E-02 -2.17282243E-01 -2.35026936E-03  1.70463605E-03 -8.11772765E-04
 -1.84236592E-03  8.85518128E-03  2.02168097E-02 -1.45928130E-02  3.66186329E-02
 -1.86559654E-02 -2.98926378E-03 -2.70394988E-01  5.07128761E-02 -2.07491662E-02
  9.19595986E-03 -2.20906281E-01  3.08852290E-03  2.37913800E-03 -5.65769711E-03
 -8.69488790E-05 -7.31958467E-03 -3.81015642E-03  3.62324346E-03 -8.62751458E-03
  1.91296948E-02  1.13056948E-02 -1.39949980E-01 -2.97764109E-03  1.01156076E-02
 -1.71614547E-02 -6.47536056E-02  3.85160368E-04 -1.38634214E-03  1.09438717E-03
  3.79390483E-03  1.87007654E-02 -3.30508225E-02 -1.59980342E-02  2.59742476E-03
 -1.24562404E-02 -1.41501409E-02 -6.44825626E-03 -5.24609009E-04  4.63320398E-03
  5.13932450E-03  2.71754376E-02 -2.39301555E-01 -3.72420703E-02 -1.02459272E-01
  2.06486637E-02 -2.09523640E-01 -3.34304798E-02  9.46563490E-03 -7.31890137E-03