11265                                                                   
Freq      RMP2-FC                                                     6-31G(d)            
Number of atoms                            I               19
Info1-9                                    I   N=           9
          31          29        1002           0           0         100
           6           2           1
Charge                                     I                0
Multiplicity                               I                1
Number of electrons                        I               56
Number of alpha electrons                  I               28
Number of beta electrons                   I               28
Number of basis functions                  I              129
Number of independent functions            I              129
Number of point charges in /Mol/           I                0
Number of translation vectors              I                0
Atomic numbers                             I   N=          19
           8           6           6           6           6           6
           6           1           1           1           1           1
           1           1           1           1           1           1
           1
Nuclear charges                            R   N=          19
  8.00000000E+00  6.00000000E+00  6.00000000E+00  6.00000000E+00  6.00000000E+00
  6.00000000E+00  6.00000000E+00  1.00000000E+00  1.00000000E+00  1.00000000E+00
  1.00000000E+00  1.00000000E+00  1.00000000E+00  1.00000000E+00  1.00000000E+00
  1.00000000E+00  1.00000000E+00  1.00000000E+00  1.00000000E+00
Current cartesian coordinates              R   N=          57
  7.30884858E-01 -2.04239772E+00  1.71071635E+00 -2.11916844E+00  4.54809914E-01
 -7.78206304E-01  4.88441110E-01 -4.21981449E-01  6.24275484E-02  2.75233726E+00
  8.34485143E-01 -1.16309973E+00 -3.02784972E+00  2.47906070E+00  1.08954978E+00
 -3.95833116E+00 -1.76288999E+00 -8.91649891E-01  5.25248064E+00  1.00841754E-01
  5.12772138E-02 -1.94834605E+00  1.31851547E+00 -2.65726665E+00  2.45733865E+00
  2.88859640E+00 -1.11639381E+00  2.71989004E+00  3.25245253E-01 -3.17675484E+00
 -1.72820683E+00  4.08621667E+00  1.17543180E+00 -3.17791038E+00  1.66164977E+00
  2.98241198E+00 -4.88741047E+00  3.18990525E+00  5.31691955E-01 -3.33504166E+00
 -3.18240298E+00 -2.25924622E+00 -4.07550273E+00 -2.67008646E+00  9.58229096E-01
 -5.84256586E+00 -1.11442793E+00 -1.44290414E+00  5.28447729E+00  6.47784481E-01
  2.04112517E+00  5.52784317E+00 -1.94155354E+00 -3.36842965E-02  6.83089785E+00
  1.02378292E+00 -9.10162516E-01
Force Field                                I                0
Int Atom Types                             I   N=          19
           0           0           0           0           0           0
           0           0           0           0           0           0
           0           0           0           0           0           0
           0
MM charges                                 R   N=          19
  0.00000000E+00  0.00000000E+00  0.00000000E+00  0.00000000E+00  0.00000000E+00
  0.00000000E+00  0.00000000E+00  0.00000000E+00  0.00000000E+00  0.00000000E+00
  0.00000000E+00  0.00000000E+00  0.00000000E+00  0.00000000E+00  0.00000000E+00
  0.00000000E+00  0.00000000E+00  0.00000000E+00  0.00000000E+00
Integer atomic weights                     I   N=          19
          16          12          12          12          12          12
          12           1           1           1           1           1
           1           1           1           1           1           1
           1
Real atomic weights                        R   N=          19
  1.59949146E+01  1.20000000E+01  1.20000000E+01  1.20000000E+01  1.20000000E+01
  1.20000000E+01  1.20000000E+01  1.00782504E+00  1.00782504E+00  1.00782504E+00
  1.00782504E+00  1.00782504E+00  1.00782504E+00  1.00782504E+00  1.00782504E+00
  1.00782504E+00  1.00782504E+00  1.00782504E+00  1.00782504E+00
Atom fragment info                         I   N=          19
           0           0           0           0           0           0
           0           0           0           0           0           0
           0           0           0           0           0           0
           0
Atom residue num                           I   N=          19
           0           0           0           0           0           0
           0           0           0           0           0           0
           0           0           0           0           0           0
           0
Nuclear spins                              I   N=          19
           0           0           0           0           0           0
           0           1           1           1           1           1
           1           1           1           1           1           1
           1
Nuclear ZEff                               R   N=          19
 -5.60000000E+00 -3.60000000E+00 -3.60000000E+00 -3.60000000E+00 -3.60000000E+00
 -3.60000000E+00 -3.60000000E+00 -1.00000000E+00 -1.00000000E+00 -1.00000000E+00
 -1.00000000E+00 -1.00000000E+00 -1.00000000E+00 -1.00000000E+00 -1.00000000E+00
 -1.00000000E+00 -1.00000000E+00 -1.00000000E+00 -1.00000000E+00
Nuclear QMom                               R   N=          19
  0.00000000E+00  0.00000000E+00  0.00000000E+00  0.00000000E+00  0.00000000E+00
  0.00000000E+00  0.00000000E+00  0.00000000E+00  0.00000000E+00  0.00000000E+00
  0.00000000E+00  0.00000000E+00  0.00000000E+00  0.00000000E+00  0.00000000E+00
  0.00000000E+00  0.00000000E+00  0.00000000E+00  0.00000000E+00
Nuclear GFac                               R   N=          19
  0.00000000E+00  0.00000000E+00  0.00000000E+00  0.00000000E+00  0.00000000E+00
  0.00000000E+00  0.00000000E+00  2.79284600E+00  2.79284600E+00  2.79284600E+00
  2.79284600E+00  2.79284600E+00  2.79284600E+00  2.79284600E+00  2.79284600E+00
  2.79284600E+00  2.79284600E+00  2.79284600E+00  2.79284600E+00
MicOpt                                     I   N=          19
          -1          -1          -1          -1          -1          -1
          -1          -1          -1          -1          -1          -1
          -1          -1          -1          -1          -1          -1
          -1
Number of contracted shells                I               52
Number of primitive shells                 I              125
Pure/Cartesian d shells                    I                1
Pure/Cartesian f shells                    I                0
Highest angular momentum                   I                2
Largest degree of contraction              I                6
Shell types                                I   N=          52
           0          -1          -1           2           0          -1
          -1           2           0          -1          -1           2
           0          -1          -1           2           0          -1
          -1           2           0          -1          -1           2
           0          -1          -1           2           0           0
           0           0           0           0           0           0
           0           0           0           0           0           0
           0           0           0           0           0           0
           0           0           0           0
Number of primitives per shell             I   N=          52
           6           3           1           1           6           3
           1           1           6           3           1           1
           6           3           1           1           6           3
           1           1           6           3           1           1
           6           3           1           1           3           1
           3           1           3           1           3           1
           3           1           3           1           3           1
           3           1           3           1           3           1
           3           1           3           1
Shell to atom map                          I   N=          52
           1           1           1           1           2           2
           2           2           3           3           3           3
           4           4           4           4           5           5
           5           5           6           6           6           6
           7           7           7           7           8           8
           9           9          10          10          11          11
          12          12          13          13          14          14
          15          15          16          16          17          17
          18          18          19          19
Primitive exponents                        R   N=         125
  5.48467166E+03  8.25234946E+02  1.88046958E+02  5.29645000E+01  1.68975704E+01
  5.79963534E+00  1.55396162E+01  3.59993359E+00  1.01376175E+00  2.70005823E-01
  8.00000000E-01  3.04752488E+03  4.57369518E+02  1.03948685E+02  2.92101553E+01
  9.28666296E+00  3.16392696E+00  7.86827235E+00  1.88128854E+00  5.44249258E-01
  1.68714478E-01  8.00000000E-01  3.04752488E+03  4.57369518E+02  1.03948685E+02
  2.92101553E+01  9.28666296E+00  3.16392696E+00  7.86827235E+00  1.88128854E+00
  5.44249258E-01  1.68714478E-01  8.00000000E-01  3.04752488E+03  4.57369518E+02
  1.03948685E+02  2.92101553E+01  9.28666296E+00  3.16392696E+00  7.86827235E+00
  1.88128854E+00  5.44249258E-01  1.68714478E-01  8.00000000E-01  3.04752488E+03
  4.57369518E+02  1.03948685E+02  2.92101553E+01  9.28666296E+00  3.16392696E+00
  7.86827235E+00  1.88128854E+00  5.44249258E-01  1.68714478E-01  8.00000000E-01
  3.04752488E+03  4.57369518E+02  1.03948685E+02  2.92101553E+01  9.28666296E+00
  3.16392696E+00  7.86827235E+00  1.88128854E+00  5.44249258E-01  1.68714478E-01
  8.00000000E-01  3.04752488E+03  4.57369518E+02  1.03948685E+02  2.92101553E+01
  9.28666296E+00  3.16392696E+00  7.86827235E+00  1.88128854E+00  5.44249258E-01
  1.68714478E-01  8.00000000E-01  1.87311370E+01  2.82539436E+00  6.40121692E-01
  1.61277759E-01  1.87311370E+01  2.82539436E+00  6.40121692E-01  1.61277759E-01
  1.87311370E+01  2.82539436E+00  6.40121692E-01  1.61277759E-01  1.87311370E+01
  2.82539436E+00  6.40121692E-01  1.61277759E-01  1.87311370E+01  2.82539436E+00
  6.40121692E-01  1.61277759E-01  1.87311370E+01  2.82539436E+00  6.40121692E-01
  1.61277759E-01  1.87311370E+01  2.82539436E+00  6.40121692E-01  1.61277759E-01
  1.87311370E+01  2.82539436E+00  6.40121692E-01  1.61277759E-01  1.87311370E+01
  2.82539436E+00  6.40121692E-01  1.61277759E-01  1.87311370E+01  2.82539436E+00
  6.40121692E-01  1.61277759E-01  1.87311370E+01  2.82539436E+00  6.40121692E-01
  1.61277759E-01  1.87311370E+01  2.82539436E+00  6.40121692E-01  1.61277759E-01
Contraction coefficients                   R   N=         125
  1.83107443E-03  1.39501722E-02  6.84450781E-02  2.32714336E-01  4.70192898E-01
  3.58520853E-01 -1.10777550E-01 -1.48026263E-01  1.13076702E+00  1.00000000E+00
  1.00000000E+00  1.83473713E-03  1.40373228E-02  6.88426223E-02  2.32184443E-01
  4.67941348E-01  3.62311985E-01 -1.19332420E-01 -1.60854152E-01  1.14345644E+00
  1.00000000E+00  1.00000000E+00  1.83473713E-03  1.40373228E-02  6.88426223E-02
  2.32184443E-01  4.67941348E-01  3.62311985E-01 -1.19332420E-01 -1.60854152E-01
  1.14345644E+00  1.00000000E+00  1.00000000E+00  1.83473713E-03  1.40373228E-02
  6.88426223E-02  2.32184443E-01  4.67941348E-01  3.62311985E-01 -1.19332420E-01
 -1.60854152E-01  1.14345644E+00  1.00000000E+00  1.00000000E+00  1.83473713E-03
  1.40373228E-02  6.88426223E-02  2.32184443E-01  4.67941348E-01  3.62311985E-01
 -1.19332420E-01 -1.60854152E-01  1.14345644E+00  1.00000000E+00  1.00000000E+00
  1.83473713E-03  1.40373228E-02  6.88426223E-02  2.32184443E-01  4.67941348E-01
  3.62311985E-01 -1.19332420E-01 -1.60854152E-01  1.14345644E+00  1.00000000E+00
  1.00000000E+00  1.83473713E-03  1.40373228E-02  6.88426223E-02  2.32184443E-01
  4.67941348E-01  3.62311985E-01 -1.19332420E-01 -1.60854152E-01  1.14345644E+00
  1.00000000E+00  1.00000000E+00  3.34946043E-02  2.34726953E-01  8.13757326E-01
  1.00000000E+00  3.34946043E-02  2.34726953E-01  8.13757326E-01  1.00000000E+00
  3.34946043E-02  2.34726953E-01  8.13757326E-01  1.00000000E+00  3.34946043E-02
  2.34726953E-01  8.13757326E-01  1.00000000E+00  3.34946043E-02  2.34726953E-01
  8.13757326E-01  1.00000000E+00  3.34946043E-02  2.34726953E-01  8.13757326E-01
  1.00000000E+00  3.34946043E-02  2.34726953E-01  8.13757326E-01  1.00000000E+00
  3.34946043E-02  2.34726953E-01  8.13757326E-01  1.00000000E+00  3.34946043E-02
  2.34726953E-01  8.13757326E-01  1.00000000E+00  3.34946043E-02  2.34726953E-01
  8.13757326E-01  1.00000000E+00  3.34946043E-02  2.34726953E-01  8.13757326E-01
  1.00000000E+00  3.34946043E-02  2.34726953E-01  8.13757326E-01  1.00000000E+00
P(S=P) Contraction coefficients            R   N=         125
  0.00000000E+00  0.00000000E+00  0.00000000E+00  0.00000000E+00  0.00000000E+00
  0.00000000E+00  7.08742682E-02  3.39752839E-01  7.27158577E-01  1.00000000E+00
  0.00000000E+00  0.00000000E+00  0.00000000E+00  0.00000000E+00  0.00000000E+00
  0.00000000E+00  0.00000000E+00  6.89990666E-02  3.16423961E-01  7.44308291E-01
  1.00000000E+00  0.00000000E+00  0.00000000E+00  0.00000000E+00  0.00000000E+00
  0.00000000E+00  0.00000000E+00  0.00000000E+00  6.89990666E-02  3.16423961E-01
  7.44308291E-01  1.00000000E+00  0.00000000E+00  0.00000000E+00  0.00000000E+00
  0.00000000E+00  0.00000000E+00  0.00000000E+00  0.00000000E+00  6.89990666E-02
  3.16423961E-01  7.44308291E-01  1.00000000E+00  0.00000000E+00  0.00000000E+00
  0.00000000E+00  0.00000000E+00  0.00000000E+00  0.00000000E+00  0.00000000E+00
  6.89990666E-02  3.16423961E-01  7.44308291E-01  1.00000000E+00  0.00000000E+00
  0.00000000E+00  0.00000000E+00  0.00000000E+00  0.00000000E+00  0.00000000E+00
  0.00000000E+00  6.89990666E-02  3.16423961E-01  7.44308291E-01  1.00000000E+00
  0.00000000E+00  0.00000000E+00  0.00000000E+00  0.00000000E+00  0.00000000E+00
  0.00000000E+00  0.00000000E+00  6.89990666E-02  3.16423961E-01  7.44308291E-01
  1.00000000E+00  0.00000000E+00  0.00000000E+00  0.00000000E+00  0.00000000E+00
  0.00000000E+00  0.00000000E+00  0.00000000E+00  0.00000000E+00  0.00000000E+00
  0.00000000E+00  0.00000000E+00  0.00000000E+00  0.00000000E+00  0.00000000E+00
  0.00000000E+00  0.00000000E+00  0.00000000E+00  0.00000000E+00  0.00000000E+00
  0.00000000E+00  0.00000000E+00  0.00000000E+00  0.00000000E+00  0.00000000E+00
  0.00000000E+00  0.00000000E+00  0.00000000E+00  0.00000000E+00  0.00000000E+00
  0.00000000E+00  0.00000000E+00  0.00000000E+00  0.00000000E+00  0.00000000E+00
  0.00000000E+00  0.00000000E+00  0.00000000E+00  0.00000000E+00  0.00000000E+00
  0.00000000E+00  0.00000000E+00  0.00000000E+00  0.00000000E+00  0.00000000E+00
  0.00000000E+00  0.00000000E+00  0.00000000E+00  0.00000000E+00  0.00000000E+00
Coordinates of each shell                  R   N=         156
  7.30884858E-01 -2.04239772E+00  1.71071635E+00  7.30884858E-01 -2.04239772E+00
  1.71071635E+00  7.30884858E-01 -2.04239772E+00  1.71071635E+00  7.30884858E-01
 -2.04239772E+00  1.71071635E+00 -2.11916844E+00  4.54809914E-01 -7.78206304E-01
 -2.11916844E+00  4.54809914E-01 -7.78206304E-01 -2.11916844E+00  4.54809914E-01
 -7.78206304E-01 -2.11916844E+00  4.54809914E-01 -7.78206304E-01  4.88441110E-01
 -4.21981449E-01  6.24275484E-02  4.88441110E-01 -4.21981449E-01  6.24275484E-02
  4.88441110E-01 -4.21981449E-01  6.24275484E-02  4.88441110E-01 -4.21981449E-01
  6.24275484E-02  2.75233726E+00  8.34485143E-01 -1.16309973E+00  2.75233726E+00
  8.34485143E-01 -1.16309973E+00  2.75233726E+00  8.34485143E-01 -1.16309973E+00
  2.75233726E+00  8.34485143E-01 -1.16309973E+00 -3.02784972E+00  2.47906070E+00
  1.08954978E+00 -3.02784972E+00  2.47906070E+00  1.08954978E+00 -3.02784972E+00
  2.47906070E+00  1.08954978E+00 -3.02784972E+00  2.47906070E+00  1.08954978E+00
 -3.95833116E+00 -1.76288999E+00 -8.91649891E-01 -3.95833116E+00 -1.76288999E+00
 -8.91649891E-01 -3.95833116E+00 -1.76288999E+00 -8.91649891E-01 -3.95833116E+00
 -1.76288999E+00 -8.91649891E-01  5.25248064E+00  1.00841754E-01  5.12772138E-02
  5.25248064E+00  1.00841754E-01  5.12772138E-02  5.25248064E+00  1.00841754E-01
  5.12772138E-02  5.25248064E+00  1.00841754E-01  5.12772138E-02 -1.94834605E+00
  1.31851547E+00 -2.65726665E+00 -1.94834605E+00  1.31851547E+00 -2.65726665E+00
  2.45733865E+00  2.88859640E+00 -1.11639381E+00  2.45733865E+00  2.88859640E+00
 -1.11639381E+00  2.71989004E+00  3.25245253E-01 -3.17675484E+00  2.71989004E+00
  3.25245253E-01 -3.17675484E+00 -1.72820683E+00  4.08621667E+00  1.17543180E+00
 -1.72820683E+00  4.08621667E+00  1.17543180E+00 -3.17791038E+00  1.66164977E+00
  2.98241198E+00 -3.17791038E+00  1.66164977E+00  2.98241198E+00 -4.88741047E+00
  3.18990525E+00  5.31691955E-01 -4.88741047E+00  3.18990525E+00  5.31691955E-01
 -3.33504166E+00 -3.18240298E+00 -2.25924622E+00 -3.33504166E+00 -3.18240298E+00
 -2.25924622E+00 -4.07550273E+00 -2.67008646E+00  9.58229096E-01 -4.07550273E+00
 -2.67008646E+00  9.58229096E-01 -5.84256586E+00 -1.11442793E+00 -1.44290414E+00
 -5.84256586E+00 -1.11442793E+00 -1.44290414E+00  5.28447729E+00  6.47784481E-01
  2.04112517E+00  5.28447729E+00  6.47784481E-01  2.04112517E+00  5.52784317E+00
 -1.94155354E+00 -3.36842965E-02  5.52784317E+00 -1.94155354E+00 -3.36842965E-02
  6.83089785E+00  1.02378292E+00 -9.10162516E-01  6.83089785E+00  1.02378292E+00
 -9.10162516E-01
Constraint Structure                       R   N=          57
  7.30884858E-01 -2.04239772E+00  1.71071635E+00 -2.11916844E+00  4.54809914E-01
 -7.78206304E-01  4.88441110E-01 -4.21981449E-01  6.24275484E-02  2.75233726E+00
  8.34485143E-01 -1.16309973E+00 -3.02784972E+00  2.47906070E+00  1.08954978E+00
 -3.95833116E+00 -1.76288999E+00 -8.91649891E-01  5.25248064E+00  1.00841754E-01
  5.12772138E-02 -1.94834605E+00  1.31851547E+00 -2.65726665E+00  2.45733865E+00
  2.88859640E+00 -1.11639381E+00  2.71989004E+00  3.25245253E-01 -3.17675484E+00
 -1.72820683E+00  4.08621667E+00  1.17543180E+00 -3.17791038E+00  1.66164977E+00
  2.98241198E+00 -4.88741047E+00  3.18990525E+00  5.31691955E-01 -3.33504166E+00
 -3.18240298E+00 -2.25924622E+00 -4.07550273E+00 -2.67008646E+00  9.58229096E-01
 -5.84256586E+00 -1.11442793E+00 -1.44290414E+00  5.28447729E+00  6.47784481E-01
  2.04112517E+00  5.52784317E+00 -1.94155354E+00 -3.36842965E-02  6.83089785E+00
  1.02378292E+00 -9.10162516E-01
Num ILSW                                   I              100
ILSW                                       I   N=         100
           0           1           0           0           2           0
           0           0           0           0           0          -1
           0           0           0           0           0           0
           0           0           0           0           1           0
           1           0           0           0           0           0
           0           0      100000           0          -1           0
           0           0           0           0           0           0
           0           0           0           1           1           0
           0           0           1           0           0           0
           0           0           4          40           0           0
           0           0           0           0           0           0
           0           0           0           0           0           0
           0           0           0           0           0           0
           0           0           0           0           0           0
           0           0           0           0           0           0
           0           0           0           0           0           0
           0           0           0           0
Num RLSW                                   I               40
RLSW                                       R   N=          40
  1.00000000E+00  1.00000000E+00  1.00000000E+00  1.00000000E+00  1.00000000E+00
  0.00000000E+00  0.00000000E+00  1.00000000E+00  0.00000000E+00  0.00000000E+00
  0.00000000E+00  0.00000000E+00  1.00000000E+00  0.00000000E+00  0.00000000E+00
  0.00000000E+00  0.00000000E+00  1.00000000E+00  0.00000000E+00  0.00000000E+00
  0.00000000E+00  0.00000000E+00  1.00000000E+00  0.00000000E+00  0.00000000E+00
  0.00000000E+00  0.00000000E+00  1.00000000E+00  0.00000000E+00  0.00000000E+00
  0.00000000E+00  0.00000000E+00  0.00000000E+00  0.00000000E+00  0.00000000E+00
  0.00000000E+00  0.00000000E+00  0.00000000E+00  1.00000000E+00  1.00000000E+00
MxBond                                     I                4
NBond                                      I   N=          19
           1           4           3           4           4           4
           4           1           1           1           1           1
           1           1           1           1           1           1
           1
IBond                                      I   N=          76
           3           0           0           0           3           5
           6           8           1           2           4           0
           3           7           9          10           2          11
          12          13           2          14          15          16
           4          17          18          19           2           0
           0           0           4           0           0           0
           4           0           0           0           5           0
           0           0           5           0           0           0
           5           0           0           0           6           0
           0           0           6           0           0           0
           6           0           0           0           7           0
           0           0           7           0           0           0
           7           0           0           0
RBond                                      R   N=          76
  2.00000000E+00  0.00000000E+00  0.00000000E+00  0.00000000E+00  1.00000000E+00
  1.00000000E+00  1.00000000E+00  1.00000000E+00  2.00000000E+00  1.00000000E+00
  1.00000000E+00  0.00000000E+00  1.00000000E+00  1.00000000E+00  1.00000000E+00
  1.00000000E+00  1.00000000E+00  1.00000000E+00  1.00000000E+00  1.00000000E+00
  1.00000000E+00  1.00000000E+00  1.00000000E+00  1.00000000E+00  1.00000000E+00
  1.00000000E+00  1.00000000E+00  1.00000000E+00  1.00000000E+00  0.00000000E+00
  0.00000000E+00  0.00000000E+00  1.00000000E+00  0.00000000E+00  0.00000000E+00
  0.00000000E+00  1.00000000E+00  0.00000000E+00  0.00000000E+00  0.00000000E+00
  1.00000000E+00  0.00000000E+00  0.00000000E+00  0.00000000E+00  1.00000000E+00
  0.00000000E+00  0.00000000E+00  0.00000000E+00  1.00000000E+00  0.00000000E+00
  0.00000000E+00  0.00000000E+00  1.00000000E+00  0.00000000E+00  0.00000000E+00
  0.00000000E+00  1.00000000E+00  0.00000000E+00  0.00000000E+00  0.00000000E+00
  1.00000000E+00  0.00000000E+00  0.00000000E+00  0.00000000E+00  1.00000000E+00
  0.00000000E+00  0.00000000E+00  0.00000000E+00  1.00000000E+00  0.00000000E+00
  0.00000000E+00  0.00000000E+00  1.00000000E+00  0.00000000E+00  0.00000000E+00
  0.00000000E+00
Virial Ratio                               R      2.001828615605176E+00
SCF Energy                                 R     -3.090640047558887E+02
MP2 Energy                                 R     -3.100247017116207E+02
Total Energy                               R     -3.100247017116207E+02
Post-SCF wavefunction norm                 R      1.621637067182616E+00
RMS Force                                  R      6.609905663588274E-08
RMS Density                                R      2.471152891235206E-09
External E-field                           R   N=          35
  0.00000000E+00  0.00000000E+00  0.00000000E+00  0.00000000E+00  0.00000000E+00
  0.00000000E+00  0.00000000E+00  0.00000000E+00  0.00000000E+00  0.00000000E+00
  0.00000000E+00  0.00000000E+00  0.00000000E+00  0.00000000E+00  0.00000000E+00
  0.00000000E+00  0.00000000E+00  0.00000000E+00  0.00000000E+00  0.00000000E+00
  0.00000000E+00  0.00000000E+00  0.00000000E+00  0.00000000E+00  0.00000000E+00
  0.00000000E+00  0.00000000E+00  0.00000000E+00  0.00000000E+00  0.00000000E+00
  0.00000000E+00  0.00000000E+00  0.00000000E+00  0.00000000E+00  0.00000000E+00
IOpCl                                      I                0
IROHF                                      I                0
Alpha Orbital Energies                     R   N=         129
 -2.05489840E+01 -1.13265812E+01 -1.12414815E+01 -1.12393400E+01 -1.12286029E+01
 -1.12172252E+01 -1.12165040E+01 -1.37088147E+00 -1.09043902E+00 -1.04654623E+00
 -9.37754131E-01 -9.06901058E-01 -8.21992784E-01 -7.18960490E-01 -6.70587228E-01
 -6.31368103E-01 -6.21685307E-01 -6.03590639E-01 -5.68455336E-01 -5.52895731E-01
 -5.44349647E-01 -5.18933995E-01 -5.11989872E-01 -5.04643513E-01 -4.91543308E-01
 -4.81240423E-01 -4.65559522E-01 -3.97642487E-01  1.59374840E-01  2.12391523E-01
  2.59395259E-01  2.69875083E-01  2.72986843E-01  2.96006841E-01  3.10178841E-01
  3.19739799E-01  3.23187673E-01  3.29416556E-01  3.42851084E-01  3.50614583E-01
  3.69126432E-01  3.78323620E-01  4.08859788E-01  4.21302764E-01  4.46895412E-01
  4.92987866E-01  5.22489153E-01  6.94724830E-01  7.10454741E-01  7.33712297E-01
  7.45614944E-01  7.63868621E-01  7.78286243E-01  8.17312030E-01  8.70997376E-01
  8.85009578E-01  8.97360502E-01  9.29644003E-01  9.63336579E-01  9.74781484E-01
  9.90061773E-01  1.01437784E+00  1.04010403E+00  1.08724340E+00  1.10935273E+00
  1.11082829E+00  1.13391985E+00  1.14340134E+00  1.14700004E+00  1.16759480E+00
  1.17617410E+00  1.18668641E+00  1.19142414E+00  1.21511497E+00  1.21980483E+00
  1.23136209E+00  1.24859953E+00  1.26433891E+00  1.31101907E+00  1.35055858E+00
  1.36081074E+00  1.43434658E+00  1.55042770E+00  1.61049118E+00  1.66054137E+00
  1.75418496E+00  1.77824968E+00  1.81844469E+00  1.87090537E+00  1.95016311E+00
  1.98451943E+00  2.03352610E+00  2.08653695E+00  2.09074750E+00  2.13240272E+00
  2.16586785E+00  2.20492328E+00  2.20990415E+00  2.26612554E+00  2.28515711E+00
  2.31616823E+00  2.33848023E+00  2.35788785E+00  2.40396393E+00  2.46890460E+00
  2.49994134E+00  2.58415898E+00  2.58852349E+00  2.62558937E+00  2.64286433E+00
  2.66176199E+00  2.69017277E+00  2.71454246E+00  2.78733195E+00  2.83928014E+00
  2.85759714E+00  2.92871076E+00  3.02520727E+00  3.07196944E+00  3.16542646E+00
  3.36445982E+00  3.37697233E+00  4.46598025E+00  4.54344131E+00  4.63579149E+00
  4.72115679E+00  4.75015971E+00  4.93039740E+00  5.03966043E+00
Alpha MO coefficients                      R   N=       16641
  9.94699600E-01  2.09399112E-02 -1.62505296E-04  1.03774832E-03 -1.05001495E-03
  4.44192742E-03  2.08065709E-05 -5.76163877E-05  4.03776635E-05 -3.87323349E-03
 -3.90658255E-03 -3.89631181E-03 -1.04666333E-05  2.58163051E-05 -3.07293710E-04
 -6.27487135E-06 -1.06008455E-05 -2.12531899E-05  2.05604340E-05 -2.15083627E-05
  4.86222926E-05 -1.44875954E-04 -2.13764483E-06  5.77777454E-05 -4.95506358E-07
 -3.34849825E-05 -3.73224283E-05  2.70425696E-05 -2.49063568E-05  1.86368492E-05
 -1.00353149E-05  4.42344002E-04  3.33556982E-06  7.54893593E-06 -1.58191798E-05
 -5.55197829E-05 -8.64992503E-05  4.22383723E-04 -3.93394402E-04 -7.17281675E-05
 -3.85700957E-04 -3.95837887E-04  5.46562593E-05 -5.66757833E-05  3.85659545E-04
 -2.98322652E-06 -8.14920584E-07  5.65172344E-06  2.04833840E-05 -1.87108814E-05
 -3.40858249E-05  1.77835503E-04 -2.23793362E-05  1.47989833E-05  2.52474941E-05
 -3.87393502E-05 -3.75691557E-05 -1.33022014E-05  1.91696902E-05  1.57037508E-05
  8.07891633E-06  2.34459582E-05  1.83630353E-05 -6.85559340E-06  1.40936999E-08
 -1.62790069E-04 -8.82191366E-05  7.38002270E-05  2.49153044E-05  1.60305215E-05
  1.17828383E-05  1.59971562E-05 -2.16308740E-06  4.41721480E-06 -5.42078944E-06
  2.51790078E-06  1.16189133E-05  1.66473421E-05 -7.55276957E-06 -3.67622799E-06
 -3.92056758E-05 -9.39640924E-05 -3.53122111E-05  1.38568052E-05  6.07365759E-06
 -7.32212780E-06  2.25924366E-06 -4.50003132E-06 -4.21151518E-06 -2.52400426E-06
  2.85296913E-06  2.17140103E-05 -9.33247036E-06 -8.78500531E-06  1.29372749E-05
 -7.40886404E-05  1.12123916E-04  3.28937579E-06  9.32337472E-08 -3.12244370E-06
 -1.92821022E-06 -5.62322186E-06  4.13487520E-06 -8.61203189E-06  5.49547562E-06
 -5.74416440E-07  5.85515658E-06  7.72140622E-06 -4.92638208E-06  8.61297286E-06
 -2.79127948E-05  1.40527551E-05  1.66997360E-05  2.04163400E-05  4.11891862E-06
 -2.58695675E-06 -3.84266240E-05  1.18783929E-05  1.50504499E-05  2.68649641E-05
 -9.22718456E-05 -5.89726450E-06 -4.04012859E-05  2.34718847E-05 -2.42747864E-05
  2.74896829E-05 -5.01614013E-05 -3.66199956E-06 -4.92096270E-05 -2.62248661E-04
  6.26990908E-04 -1.04218722E-05  1.36345412E-04 -1.68690270E-04 -3.19915908E-03
  1.61386837E-04 -1.11030565E-03  1.32672827E-03  2.00651019E-04  1.73473917E-04
  1.06563781E-04  7.27983423E-06 -3.43001783E-05  3.42236144E-04  3.60578169E-03
  5.15972339E-04  2.66778666E-05 -2.48032779E-05  1.07522922E-04  1.58986412E-03
  2.27238936E-03  8.02720112E-05 -1.69562193E-03 -3.11715183E-04 -1.86581033E-04
 -1.11781715E-04  1.59551514E-04 -1.70563275E-04  1.81823242E-05  9.95911394E-01
  2.68552967E-02  4.32878948E-06 -3.05439640E-04  4.51453586E-04 -1.03809452E-02
  7.38701551E-05 -3.73940384E-03  3.34890348E-03 -1.49275085E-03 -1.32678869E-03
 -1.34498415E-03 -9.15105228E-05  5.28876835E-05 -9.06968429E-04  3.47748259E-03
  1.71518618E-04  4.83496060E-05  3.57201377E-05 -8.42162210E-05  3.98019325E-03
 -2.60962131E-03 -2.82485155E-04  7.10520090E-04 -3.54762714E-04 -2.47331572E-04
 -2.61664244E-04 -1.67559853E-04  1.22768383E-04  2.04180392E-04 -1.17232860E-04
 -4.45108352E-04 -1.57362057E-04  4.95473852E-05 -4.52798200E-05  2.06652543E-03