81130                                                                   
Freq      RMP2-FC                                                     6-31G(d)            
Number of atoms                            I               23
Info1-9                                    I   N=           9
          35          33        1002           0           0         100
           6           2           1
Charge                                     I                0
Multiplicity                               I                1
Number of electrons                        I               90
Number of alpha electrons                  I               45
Number of beta electrons                   I               45
Number of basis functions                  I              215
Number of independent functions            I              215
Number of point charges in /Mol/           I                0
Number of translation vectors              I                0
Atomic numbers                             I   N=          23
           7           7           6           6           6           6
           6           6           6           6           6           6
           6           1           1           1           1           1
           1           1           1           1           1
Nuclear charges                            R   N=          23
  7.00000000E+00  7.00000000E+00  6.00000000E+00  6.00000000E+00  6.00000000E+00
  6.00000000E+00  6.00000000E+00  6.00000000E+00  6.00000000E+00  6.00000000E+00
  6.00000000E+00  6.00000000E+00  6.00000000E+00  1.00000000E+00  1.00000000E+00
  1.00000000E+00  1.00000000E+00  1.00000000E+00  1.00000000E+00  1.00000000E+00
  1.00000000E+00  1.00000000E+00  1.00000000E+00
Current cartesian coordinates              R   N=          69
  6.77908828E-02 -1.85168403E+00  6.13994708E-01  2.60514412E+00  1.71671821E+00
 -1.52324629E-01 -2.33302919E+00 -7.66987962E-01  2.59592553E-01  2.43295625E+00
 -7.83439533E-01  2.27732189E-01 -4.31512517E+00 -2.39912842E+00 -4.14534229E-01
 -2.86025498E+00  1.79396812E+00  7.11158849E-01  4.57247097E+00 -2.37425503E+00
  3.09863383E-01 -6.77165208E+00 -1.49227549E+00 -6.76729863E-01 -5.32440214E+00
  2.68166068E+00  4.05044960E-01 -7.29379648E+00  1.06164811E+00 -2.69531669E-01
  6.94190038E+00 -1.31648057E+00 -3.45953203E-02  7.14502428E+00  1.28845763E+00
 -4.43833694E-01  4.93111032E+00  2.69862857E+00 -4.80643919E-01  6.49854032E-02
 -3.76696558E+00  5.49477477E-01 -3.91572349E+00 -4.38802817E+00 -7.68616934E-01
 -1.34697800E+00  3.06210613E+00  1.23871076E+00  4.35827216E+00 -4.39344593E+00
  6.33394128E-01 -8.27582156E+00 -2.78922560E+00 -1.20498866E+00 -5.70727941E+00
  4.67278955E+00  7.42649760E-01 -9.20546275E+00  1.77988151E+00 -4.88525256E-01
  8.61561271E+00 -2.50769474E+00  1.36555097E-02  8.96582896E+00  2.19227224E+00
 -7.18778466E-01  4.98480800E+00  4.73229477E+00 -7.89808310E-01
Force Field                                I                0
Int Atom Types                             I   N=          23
           0           0           0           0           0           0
           0           0           0           0           0           0
           0           0           0           0           0           0
           0           0           0           0           0
MM charges                                 R   N=          23
  0.00000000E+00  0.00000000E+00  0.00000000E+00  0.00000000E+00  0.00000000E+00
  0.00000000E+00  0.00000000E+00  0.00000000E+00  0.00000000E+00  0.00000000E+00
  0.00000000E+00  0.00000000E+00  0.00000000E+00  0.00000000E+00  0.00000000E+00
  0.00000000E+00  0.00000000E+00  0.00000000E+00  0.00000000E+00  0.00000000E+00
  0.00000000E+00  0.00000000E+00  0.00000000E+00
Integer atomic weights                     I   N=          23
          14          14          12          12          12          12
          12          12          12          12          12          12
          12           1           1           1           1           1
           1           1           1           1           1
Real atomic weights                        R   N=          23
  1.40030740E+01  1.40030740E+01  1.20000000E+01  1.20000000E+01  1.20000000E+01
  1.20000000E+01  1.20000000E+01  1.20000000E+01  1.20000000E+01  1.20000000E+01
  1.20000000E+01  1.20000000E+01  1.20000000E+01  1.00782504E+00  1.00782504E+00
  1.00782504E+00  1.00782504E+00  1.00782504E+00  1.00782504E+00  1.00782504E+00
  1.00782504E+00  1.00782504E+00  1.00782504E+00
Atom fragment info                         I   N=          23
           0           0           0           0           0           0
           0           0           0           0           0           0
           0           0           0           0           0           0
           0           0           0           0           0
Atom residue num                           I   N=          23
           0           0           0           0           0           0
           0           0           0           0           0           0
           0           0           0           0           0           0
           0           0           0           0           0
Nuclear spins                              I   N=          23
           2           2           0           0           0           0
           0           0           0           0           0           0
           0           1           1           1           1           1
           1           1           1           1           1
Nuclear ZEff                               R   N=          23
 -4.55000000E+00 -4.55000000E+00 -3.60000000E+00 -3.60000000E+00 -3.60000000E+00
 -3.60000000E+00 -3.60000000E+00 -3.60000000E+00 -3.60000000E+00 -3.60000000E+00
 -3.60000000E+00 -3.60000000E+00 -3.60000000E+00 -1.00000000E+00 -1.00000000E+00
 -1.00000000E+00 -1.00000000E+00 -1.00000000E+00 -1.00000000E+00 -1.00000000E+00
 -1.00000000E+00 -1.00000000E+00 -1.00000000E+00
Nuclear QMom                               R   N=          23
  2.04400000E+00  2.04400000E+00  0.00000000E+00  0.00000000E+00  0.00000000E+00
  0.00000000E+00  0.00000000E+00  0.00000000E+00  0.00000000E+00  0.00000000E+00
  0.00000000E+00  0.00000000E+00  0.00000000E+00  0.00000000E+00  0.00000000E+00
  0.00000000E+00  0.00000000E+00  0.00000000E+00  0.00000000E+00  0.00000000E+00
  0.00000000E+00  0.00000000E+00  0.00000000E+00
Nuclear GFac                               R   N=          23
  4.03761000E-01  4.03761000E-01  0.00000000E+00  0.00000000E+00  0.00000000E+00
  0.00000000E+00  0.00000000E+00  0.00000000E+00  0.00000000E+00  0.00000000E+00
  0.00000000E+00  0.00000000E+00  0.00000000E+00  2.79284600E+00  2.79284600E+00
  2.79284600E+00  2.79284600E+00  2.79284600E+00  2.79284600E+00  2.79284600E+00
  2.79284600E+00  2.79284600E+00  2.79284600E+00
MicOpt                                     I   N=          23
          -1          -1          -1          -1          -1          -1
          -1          -1          -1          -1          -1          -1
          -1          -1          -1          -1          -1          -1
          -1          -1          -1          -1          -1
Number of contracted shells                I               72
Number of primitive shells                 I              183
Pure/Cartesian d shells                    I                1
Pure/Cartesian f shells                    I                0
Highest angular momentum                   I                2
Largest degree of contraction              I                6
Shell types                                I   N=          72
           0          -1          -1           2           0          -1
          -1           2           0          -1          -1           2
           0          -1          -1           2           0          -1
          -1           2           0          -1          -1           2
           0          -1          -1           2           0          -1
          -1           2           0          -1          -1           2
           0          -1          -1           2           0          -1
          -1           2           0          -1          -1           2
           0          -1          -1           2           0           0
           0           0           0           0           0           0
           0           0           0           0           0           0
           0           0           0           0           0           0
Number of primitives per shell             I   N=          72
           6           3           1           1           6           3
           1           1           6           3           1           1
           6           3           1           1           6           3
           1           1           6           3           1           1
           6           3           1           1           6           3
           1           1           6           3           1           1
           6           3           1           1           6           3
           1           1           6           3           1           1
           6           3           1           1           3           1
           3           1           3           1           3           1
           3           1           3           1           3           1
           3           1           3           1           3           1
Shell to atom map                          I   N=          72
           1           1           1           1           2           2
           2           2           3           3           3           3
           4           4           4           4           5           5
           5           5           6           6           6           6
           7           7           7           7           8           8
           8           8           9           9           9           9
          10          10          10          10          11          11
          11          11          12          12          12          12
          13          13          13          13          14          14
          15          15          16          16          17          17
          18          18          19          19          20          20
          21          21          22          22          23          23
Primitive exponents                        R   N=         183
  4.17351146E+03  6.27457911E+02  1.42902093E+02  4.02343293E+01  1.28202129E+01
  4.39043701E+00  1.16263619E+01  2.71627981E+00  7.72218397E-01  2.12031498E-01
  8.00000000E-01  4.17351146E+03  6.27457911E+02  1.42902093E+02  4.02343293E+01
  1.28202129E+01  4.39043701E+00  1.16263619E+01  2.71627981E+00  7.72218397E-01
  2.12031498E-01  8.00000000E-01  3.04752488E+03  4.57369518E+02  1.03948685E+02
  2.92101553E+01  9.28666296E+00  3.16392696E+00  7.86827235E+00  1.88128854E+00
  5.44249258E-01  1.68714478E-01  8.00000000E-01  3.04752488E+03  4.57369518E+02
  1.03948685E+02  2.92101553E+01  9.28666296E+00  3.16392696E+00  7.86827235E+00
  1.88128854E+00  5.44249258E-01  1.68714478E-01  8.00000000E-01  3.04752488E+03
  4.57369518E+02  1.03948685E+02  2.92101553E+01  9.28666296E+00  3.16392696E+00
  7.86827235E+00  1.88128854E+00  5.44249258E-01  1.68714478E-01  8.00000000E-01
  3.04752488E+03  4.57369518E+02  1.03948685E+02  2.92101553E+01  9.28666296E+00
  3.16392696E+00  7.86827235E+00  1.88128854E+00  5.44249258E-01  1.68714478E-01
  8.00000000E-01  3.04752488E+03  4.57369518E+02  1.03948685E+02  2.92101553E+01
  9.28666296E+00  3.16392696E+00  7.86827235E+00  1.88128854E+00  5.44249258E-01
  1.68714478E-01  8.00000000E-01  3.04752488E+03  4.57369518E+02  1.03948685E+02
  2.92101553E+01  9.28666296E+00  3.16392696E+00  7.86827235E+00  1.88128854E+00
  5.44249258E-01  1.68714478E-01  8.00000000E-01  3.04752488E+03  4.57369518E+02
  1.03948685E+02  2.92101553E+01  9.28666296E+00  3.16392696E+00  7.86827235E+00
  1.88128854E+00  5.44249258E-01  1.68714478E-01  8.00000000E-01  3.04752488E+03
  4.57369518E+02  1.03948685E+02  2.92101553E+01  9.28666296E+00  3.16392696E+00
  7.86827235E+00  1.88128854E+00  5.44249258E-01  1.68714478E-01  8.00000000E-01
  3.04752488E+03  4.57369518E+02  1.03948685E+02  2.92101553E+01  9.28666296E+00
  3.16392696E+00  7.86827235E+00  1.88128854E+00  5.44249258E-01  1.68714478E-01
  8.00000000E-01  3.04752488E+03  4.57369518E+02  1.03948685E+02  2.92101553E+01
  9.28666296E+00  3.16392696E+00  7.86827235E+00  1.88128854E+00  5.44249258E-01
  1.68714478E-01  8.00000000E-01  3.04752488E+03  4.57369518E+02  1.03948685E+02
  2.92101553E+01  9.28666296E+00  3.16392696E+00  7.86827235E+00  1.88128854E+00
  5.44249258E-01  1.68714478E-01  8.00000000E-01  1.87311370E+01  2.82539436E+00
  6.40121692E-01  1.61277759E-01  1.87311370E+01  2.82539436E+00  6.40121692E-01
  1.61277759E-01  1.87311370E+01  2.82539436E+00  6.40121692E-01  1.61277759E-01
  1.87311370E+01  2.82539436E+00  6.40121692E-01  1.61277759E-01  1.87311370E+01
  2.82539436E+00  6.40121692E-01  1.61277759E-01  1.87311370E+01  2.82539436E+00
  6.40121692E-01  1.61277759E-01  1.87311370E+01  2.82539436E+00  6.40121692E-01
  1.61277759E-01  1.87311370E+01  2.82539436E+00  6.40121692E-01  1.61277759E-01
  1.87311370E+01  2.82539436E+00  6.40121692E-01  1.61277759E-01  1.87311370E+01
  2.82539436E+00  6.40121692E-01  1.61277759E-01
Contraction coefficients                   R   N=         183
  1.83477216E-03  1.39946270E-02  6.85865518E-02  2.32240873E-01  4.69069948E-01
  3.60455199E-01 -1.14961182E-01 -1.69117479E-01  1.14585195E+00  1.00000000E+00
  1.00000000E+00  1.83477216E-03  1.39946270E-02  6.85865518E-02  2.32240873E-01
  4.69069948E-01  3.60455199E-01 -1.14961182E-01 -1.69117479E-01  1.14585195E+00
  1.00000000E+00  1.00000000E+00  1.83473713E-03  1.40373228E-02  6.88426223E-02
  2.32184443E-01  4.67941348E-01  3.62311985E-01 -1.19332420E-01 -1.60854152E-01
  1.14345644E+00  1.00000000E+00  1.00000000E+00  1.83473713E-03  1.40373228E-02
  6.88426223E-02  2.32184443E-01  4.67941348E-01  3.62311985E-01 -1.19332420E-01
 -1.60854152E-01  1.14345644E+00  1.00000000E+00  1.00000000E+00  1.83473713E-03
  1.40373228E-02  6.88426223E-02  2.32184443E-01  4.67941348E-01  3.62311985E-01
 -1.19332420E-01 -1.60854152E-01  1.14345644E+00  1.00000000E+00  1.00000000E+00
  1.83473713E-03  1.40373228E-02  6.88426223E-02  2.32184443E-01  4.67941348E-01
  3.62311985E-01 -1.19332420E-01 -1.60854152E-01  1.14345644E+00  1.00000000E+00
  1.00000000E+00  1.83473713E-03  1.40373228E-02  6.88426223E-02  2.32184443E-01
  4.67941348E-01  3.62311985E-01 -1.19332420E-01 -1.60854152E-01  1.14345644E+00
  1.00000000E+00  1.00000000E+00  1.83473713E-03  1.40373228E-02  6.88426223E-02
  2.32184443E-01  4.67941348E-01  3.62311985E-01 -1.19332420E-01 -1.60854152E-01
  1.14345644E+00  1.00000000E+00  1.00000000E+00  1.83473713E-03  1.40373228E-02
  6.88426223E-02  2.32184443E-01  4.67941348E-01  3.62311985E-01 -1.19332420E-01
 -1.60854152E-01  1.14345644E+00  1.00000000E+00  1.00000000E+00  1.83473713E-03
  1.40373228E-02  6.88426223E-02  2.32184443E-01  4.67941348E-01  3.62311985E-01
 -1.19332420E-01 -1.60854152E-01  1.14345644E+00  1.00000000E+00  1.00000000E+00
  1.83473713E-03  1.40373228E-02  6.88426223E-02  2.32184443E-01  4.67941348E-01
  3.62311985E-01 -1.19332420E-01 -1.60854152E-01  1.14345644E+00  1.00000000E+00
  1.00000000E+00  1.83473713E-03  1.40373228E-02  6.88426223E-02  2.32184443E-01
  4.67941348E-01  3.62311985E-01 -1.19332420E-01 -1.60854152E-01  1.14345644E+00
  1.00000000E+00  1.00000000E+00  1.83473713E-03  1.40373228E-02  6.88426223E-02
  2.32184443E-01  4.67941348E-01  3.62311985E-01 -1.19332420E-01 -1.60854152E-01
  1.14345644E+00  1.00000000E+00  1.00000000E+00  3.34946043E-02  2.34726953E-01
  8.13757326E-01  1.00000000E+00  3.34946043E-02  2.34726953E-01  8.13757326E-01
  1.00000000E+00  3.34946043E-02  2.34726953E-01  8.13757326E-01  1.00000000E+00
  3.34946043E-02  2.34726953E-01  8.13757326E-01  1.00000000E+00  3.34946043E-02
  2.34726953E-01  8.13757326E-01  1.00000000E+00  3.34946043E-02  2.34726953E-01
  8.13757326E-01  1.00000000E+00  3.34946043E-02  2.34726953E-01  8.13757326E-01
  1.00000000E+00  3.34946043E-02  2.34726953E-01  8.13757326E-01  1.00000000E+00
  3.34946043E-02  2.34726953E-01  8.13757326E-01  1.00000000E+00  3.34946043E-02
  2.34726953E-01  8.13757326E-01  1.00000000E+00
P(S=P) Contraction coefficients            R   N=         183
  0.00000000E+00  0.00000000E+00  0.00000000E+00  0.00000000E+00  0.00000000E+00
  0.00000000E+00  6.75797439E-02  3.23907296E-01  7.40895140E-01  1.00000000E+00
  0.00000000E+00  0.00000000E+00  0.00000000E+00  0.00000000E+00  0.00000000E+00
  0.00000000E+00  0.00000000E+00  6.75797439E-02  3.23907296E-01  7.40895140E-01
  1.00000000E+00  0.00000000E+00  0.00000000E+00  0.00000000E+00  0.00000000E+00
  0.00000000E+00  0.00000000E+00  0.00000000E+00  6.89990666E-02  3.16423961E-01
  7.44308291E-01  1.00000000E+00  0.00000000E+00  0.00000000E+00  0.00000000E+00
  0.00000000E+00  0.00000000E+00  0.00000000E+00  0.00000000E+00  6.89990666E-02
  3.16423961E-01  7.44308291E-01  1.00000000E+00  0.00000000E+00  0.00000000E+00
  0.00000000E+00  0.00000000E+00  0.00000000E+00  0.00000000E+00  0.00000000E+00
  6.89990666E-02  3.16423961E-01  7.44308291E-01  1.00000000E+00  0.00000000E+00
  0.00000000E+00  0.00000000E+00  0.00000000E+00  0.00000000E+00  0.00000000E+00
  0.00000000E+00  6.89990666E-02  3.16423961E-01  7.44308291E-01  1.00000000E+00
  0.00000000E+00  0.00000000E+00  0.00000000E+00  0.00000000E+00  0.00000000E+00
  0.00000000E+00  0.00000000E+00  6.89990666E-02  3.16423961E-01  7.44308291E-01
  1.00000000E+00  0.00000000E+00  0.00000000E+00  0.00000000E+00  0.00000000E+00
  0.00000000E+00  0.00000000E+00  0.00000000E+00  6.89990666E-02  3.16423961E-01
  7.44308291E-01  1.00000000E+00  0.00000000E+00  0.00000000E+00  0.00000000E+00
  0.00000000E+00  0.00000000E+00  0.00000000E+00  0.00000000E+00  6.89990666E-02
  3.16423961E-01  7.44308291E-01  1.00000000E+00  0.00000000E+00  0.00000000E+00
  0.00000000E+00  0.00000000E+00  0.00000000E+00  0.00000000E+00  0.00000000E+00
  6.89990666E-02  3.16423961E-01  7.44308291E-01  1.00000000E+00  0.00000000E+00
  0.00000000E+00  0.00000000E+00  0.00000000E+00  0.00000000E+00  0.00000000E+00
  0.00000000E+00  6.89990666E-02  3.16423961E-01  7.44308291E-01  1.00000000E+00
  0.00000000E+00  0.00000000E+00  0.00000000E+00  0.00000000E+00  0.00000000E+00
  0.00000000E+00  0.00000000E+00  6.89990666E-02  3.16423961E-01  7.44308291E-01
  1.00000000E+00  0.00000000E+00  0.00000000E+00  0.00000000E+00  0.00000000E+00
  0.00000000E+00  0.00000000E+00  0.00000000E+00  6.89990666E-02  3.16423961E-01
  7.44308291E-01  1.00000000E+00  0.00000000E+00  0.00000000E+00  0.00000000E+00
  0.00000000E+00  0.00000000E+00  0.00000000E+00  0.00000000E+00  0.00000000E+00
  0.00000000E+00  0.00000000E+00  0.00000000E+00  0.00000000E+00  0.00000000E+00
  0.00000000E+00  0.00000000E+00  0.00000000E+00  0.00000000E+00  0.00000000E+00
  0.00000000E+00  0.00000000E+00  0.00000000E+00  0.00000000E+00  0.00000000E+00
  0.00000000E+00  0.00000000E+00  0.00000000E+00  0.00000000E+00  0.00000000E+00
  0.00000000E+00  0.00000000E+00  0.00000000E+00  0.00000000E+00  0.00000000E+00
  0.00000000E+00  0.00000000E+00  0.00000000E+00  0.00000000E+00  0.00000000E+00
  0.00000000E+00  0.00000000E+00  0.00000000E+00
Coordinates of each shell                  R   N=         216
  6.77908828E-02 -1.85168403E+00  6.13994708E-01  6.77908828E-02 -1.85168403E+00
  6.13994708E-01  6.77908828E-02 -1.85168403E+00  6.13994708E-01  6.77908828E-02
 -1.85168403E+00  6.13994708E-01  2.60514412E+00  1.71671821E+00 -1.52324629E-01
  2.60514412E+00  1.71671821E+00 -1.52324629E-01  2.60514412E+00  1.71671821E+00
 -1.52324629E-01  2.60514412E+00  1.71671821E+00 -1.52324629E-01 -2.33302919E+00
 -7.66987962E-01  2.59592553E-01 -2.33302919E+00 -7.66987962E-01  2.59592553E-01
 -2.33302919E+00 -7.66987962E-01  2.59592553E-01 -2.33302919E+00 -7.66987962E-01
  2.59592553E-01  2.43295625E+00 -7.83439533E-01  2.27732189E-01  2.43295625E+00
 -7.83439533E-01  2.27732189E-01  2.43295625E+00 -7.83439533E-01  2.27732189E-01
  2.43295625E+00 -7.83439533E-01  2.27732189E-01 -4.31512517E+00 -2.39912842E+00
 -4.14534229E-01 -4.31512517E+00 -2.39912842E+00 -4.14534229E-01 -4.31512517E+00
 -2.39912842E+00 -4.14534229E-01 -4.31512517E+00 -2.39912842E+00 -4.14534229E-01
 -2.86025498E+00  1.79396812E+00  7.11158849E-01 -2.86025498E+00  1.79396812E+00
  7.11158849E-01 -2.86025498E+00  1.79396812E+00  7.11158849E-01 -2.86025498E+00
  1.79396812E+00  7.11158849E-01  4.57247097E+00 -2.37425503E+00  3.09863383E-01
  4.57247097E+00 -2.37425503E+00  3.09863383E-01  4.57247097E+00 -2.37425503E+00
  3.09863383E-01  4.57247097E+00 -2.37425503E+00  3.09863383E-01 -6.77165208E+00
 -1.49227549E+00 -6.76729863E-01 -6.77165208E+00 -1.49227549E+00 -6.76729863E-01
 -6.77165208E+00 -1.49227549E+00 -6.76729863E-01 -6.77165208E+00 -1.49227549E+00
 -6.76729863E-01 -5.32440214E+00  2.68166068E+00  4.05044960E-01 -5.32440214E+00
  2.68166068E+00  4.05044960E-01 -5.32440214E+00  2.68166068E+00  4.05044960E-01
 -5.32440214E+00  2.68166068E+00  4.05044960E-01 -7.29379648E+00  1.06164811E+00
 -2.69531669E-01 -7.29379648E+00  1.06164811E+00 -2.69531669E-01 -7.29379648E+00
  1.06164811E+00 -2.69531669E-01 -7.29379648E+00  1.06164811E+00 -2.69531669E-01
  6.94190038E+00 -1.31648057E+00 -3.45953203E-02  6.94190038E+00 -1.31648057E+00
 -3.45953203E-02  6.94190038E+00 -1.31648057E+00 -3.45953203E-02  6.94190038E+00
 -1.31648057E+00 -3.45953203E-02  7.14502428E+00  1.28845763E+00 -4.43833694E-01
  7.14502428E+00  1.28845763E+00 -4.43833694E-01  7.14502428E+00  1.28845763E+00
 -4.43833694E-01  7.14502428E+00  1.28845763E+00 -4.43833694E-01  4.93111032E+00
  2.69862857E+00 -4.80643919E-01  4.93111032E+00  2.69862857E+00 -4.80643919E-01
  4.93111032E+00  2.69862857E+00 -4.80643919E-01  4.93111032E+00  2.69862857E+00
 -4.80643919E-01  6.49854032E-02 -3.76696558E+00  5.49477477E-01  6.49854032E-02
 -3.76696558E+00  5.49477477E-01 -3.91572349E+00 -4.38802817E+00 -7.68616934E-01
 -3.91572349E+00 -4.38802817E+00 -7.68616934E-01 -1.34697800E+00  3.06210613E+00
  1.23871076E+00 -1.34697800E+00  3.06210613E+00  1.23871076E+00  4.35827216E+00
 -4.39344593E+00  6.33394128E-01  4.35827216E+00 -4.39344593E+00  6.33394128E-01
 -8.27582156E+00 -2.78922560E+00 -1.20498866E+00 -8.27582156E+00 -2.78922560E+00
 -1.20498866E+00 -5.70727941E+00  4.67278955E+00  7.42649760E-01 -5.70727941E+00
  4.67278955E+00  7.42649760E-01 -9.20546275E+00  1.77988151E+00 -4.88525256E-01
 -9.20546275E+00  1.77988151E+00 -4.88525256E-01  8.61561271E+00 -2.50769474E+00
  1.36555097E-02  8.61561271E+00 -2.50769474E+00  1.36555097E-02  8.96582896E+00
  2.19227224E+00 -7.18778466E-01  8.96582896E+00  2.19227224E+00 -7.18778466E-01
  4.98480800E+00  4.73229477E+00 -7.89808310E-01  4.98480800E+00  4.73229477E+00
 -7.89808310E-01
Constraint Structure                       R   N=          69
  6.77908828E-02 -1.85168403E+00  6.13994708E-01  2.60514412E+00  1.71671821E+00
 -1.52324629E-01 -2.33302919E+00 -7.66987962E-01  2.59592553E-01  2.43295625E+00
 -7.83439533E-01  2.27732189E-01 -4.31512517E+00 -2.39912842E+00 -4.14534229E-01
 -2.86025498E+00  1.79396812E+00  7.11158849E-01  4.57247097E+00 -2.37425503E+00
  3.09863383E-01 -6.77165208E+00 -1.49227549E+00 -6.76729863E-01 -5.32440214E+00
  2.68166068E+00  4.05044960E-01 -7.29379648E+00  1.06164811E+00 -2.69531669E-01
  6.94190038E+00 -1.31648057E+00 -3.45953203E-02  7.14502428E+00  1.28845763E+00
 -4.43833694E-01  4.93111032E+00  2.69862857E+00 -4.80643919E-01  6.49854032E-02
 -3.76696558E+00  5.49477477E-01 -3.91572349E+00 -4.38802817E+00 -7.68616934E-01
 -1.34697800E+00  3.06210613E+00  1.23871076E+00  4.35827216E+00 -4.39344593E+00
  6.33394128E-01 -8.27582156E+00 -2.78922560E+00 -1.20498866E+00 -5.70727941E+00
  4.67278955E+00  7.42649760E-01 -9.20546275E+00  1.77988151E+00 -4.88525256E-01
  8.61561271E+00 -2.50769474E+00  1.36555097E-02  8.96582896E+00  2.19227224E+00
 -7.18778466E-01  4.98480800E+00  4.73229477E+00 -7.89808310E-01
Num ILSW                                   I              100
ILSW                                       I   N=         100
           0           1           0           1           2           0
           0           0           0           0           0          -1
           0           0           0           0           0           0
           0           0           0           0           1           0
           1           0           0           0           0           0
           0           0      100000           0          -1           0
           0           0           0           0           0           0
           0           0           0           1           1           0
           0           0           1           0           0           0
           0           0           4          40           0           0
           0           0           0           0           0           0
           0           0           0           0           0           0
           0           0           0           0           0           0
           0           0           0           0           0           0
           0           0           0           0           0           0
           0           0           0           0           0           0
           0           0           0           0
Num RLSW                                   I               40
RLSW                                       R   N=          40
  1.00000000E+00  1.00000000E+00  1.00000000E+00  1.00000000E+00  1.00000000E+00
  0.00000000E+00  0.00000000E+00  1.00000000E+00  0.00000000E+00  0.00000000E+00
  0.00000000E+00  0.00000000E+00  1.00000000E+00  0.00000000E+00  0.00000000E+00
  0.00000000E+00  0.00000000E+00  1.00000000E+00  0.00000000E+00  0.00000000E+00
  0.00000000E+00  0.00000000E+00  1.00000000E+00  0.00000000E+00  0.00000000E+00
  0.00000000E+00  0.00000000E+00  1.00000000E+00  0.00000000E+00  0.00000000E+00
  0.00000000E+00  0.00000000E+00  0.00000000E+00  0.00000000E+00  0.00000000E+00
  0.00000000E+00  0.00000000E+00  0.00000000E+00  1.00000000E+00  1.00000000E+00
MxBond                                     I                3
NBond                                      I   N=          23
           3           2           3           3           3           3
           3           3           3           3           3           3
           3           1           1           1           1           1
           1           1           1           1           1
IBond                                      I   N=          69
           3           4          14           4          13           0
           1           5           6           1           2           7
           3           8          15           3           9          16
           4          11          17           5          10          18
           6          10          19           8           9          20
           7          12          21          11          13          22
           2          12          23           1           0           0
           5           0           0           6           0           0
           7           0           0           8           0           0
           9           0           0          10           0           0
          11           0           0          12           0           0
          13           0           0
RBond                                      R   N=          69
  1.00000000E+00  1.00000000E+00  1.00000000E+00  1.50000000E+00  1.50000000E+00
  0.00000000E+00  1.00000000E+00  1.50000000E+00  1.50000000E+00  1.00000000E+00
  1.50000000E+00  1.50000000E+00  1.50000000E+00  1.50000000E+00  1.00000000E+00
  1.50000000E+00  1.50000000E+00  1.00000000E+00  1.50000000E+00  1.50000000E+00
  1.00000000E+00  1.50000000E+00  1.50000000E+00  1.00000000E+00  1.50000000E+00
  1.50000000E+00  1.00000000E+00  1.50000000E+00  1.50000000E+00  1.00000000E+00
  1.50000000E+00  1.50000000E+00  1.00000000E+00  1.50000000E+00  1.50000000E+00
  1.00000000E+00  1.50000000E+00  1.50000000E+00  1.00000000E+00  1.00000000E+00
  0.00000000E+00  0.00000000E+00  1.00000000E+00  0.00000000E+00  0.00000000E+00
  1.00000000E+00  0.00000000E+00  0.00000000E+00  1.00000000E+00  0.00000000E+00
  0.00000000E+00  1.00000000E+00  0.00000000E+00  0.00000000E+00  1.00000000E+00
  0.00000000E+00  0.00000000E+00  1.00000000E+00  0.00000000E+00  0.00000000E+00
  1.00000000E+00  0.00000000E+00  0.00000000E+00  1.00000000E+00  0.00000000E+00
  0.00000000E+00  1.00000000E+00  0.00000000E+00  0.00000000E+00
Virial Ratio                               R      2.002328997720406E+00
SCF Energy                                 R     -5.312707807020775E+02
MP2 Energy                                 R     -5.329814813269317E+02
Total Energy                               R     -5.329814813269317E+02
Post-SCF wavefunction norm                 R      1.796919952062438E+00
RMS Force                                  R      5.533243902755363E-08
RMS Density                                R      1.636153421685702E-09
External E-field                           R   N=          35
  0.00000000E+00  0.00000000E+00  0.00000000E+00  0.00000000E+00  0.00000000E+00
  0.00000000E+00  0.00000000E+00  0.00000000E+00  0.00000000E+00  0.00000000E+00
  0.00000000E+00  0.00000000E+00  0.00000000E+00  0.00000000E+00  0.00000000E+00
  0.00000000E+00  0.00000000E+00  0.00000000E+00  0.00000000E+00  0.00000000E+00
  0.00000000E+00  0.00000000E+00  0.00000000E+00  0.00000000E+00  0.00000000E+00
  0.00000000E+00  0.00000000E+00  0.00000000E+00  0.00000000E+00  0.00000000E+00
  0.00000000E+00  0.00000000E+00  0.00000000E+00  0.00000000E+00  0.00000000E+00