152_RiboseP Gaussian SP Calculation on g2-node38.bme.utexas.edu         
Freq      RMP2-FC                                                     6-31G(d)            
Number of atoms                            I               25
Info1-9                                    I   N=           9
          36          35        1002           0           0         100
           6           2           1
Charge                                     I                0
Multiplicity                               I                1
Number of electrons                        I              120
Number of alpha electrons                  I               60
Number of beta electrons                   I               60
Number of basis functions                  I              236
Number of independent functions            I              236
Number of point charges in /Mol/           I                0
Number of translation vectors              I                0
Atomic numbers                             I   N=          25
          15           8           8           8           8           8
           8           8           8           6           6           6
           6           6           1           1           1           1
           1           1           1           1           1           1
           1
Nuclear charges                            R   N=          25
  1.50000000E+01  8.00000000E+00  8.00000000E+00  8.00000000E+00  8.00000000E+00
  8.00000000E+00  8.00000000E+00  8.00000000E+00  8.00000000E+00  6.00000000E+00
  6.00000000E+00  6.00000000E+00  6.00000000E+00  6.00000000E+00  1.00000000E+00
  1.00000000E+00  1.00000000E+00  1.00000000E+00  1.00000000E+00  1.00000000E+00
  1.00000000E+00  1.00000000E+00  1.00000000E+00  1.00000000E+00  1.00000000E+00
Current cartesian coordinates              R   N=          75
  4.93476666E+00  8.19975733E-02 -3.58651221E-01 -1.40152590E+00 -9.75890585E-01
 -1.65577943E+00 -5.94769754E+00  3.31137967E+00  3.50625418E-01 -6.72257457E+00
 -1.04491474E+00 -1.80597649E+00 -1.74907134E+00 -3.20741420E+00  2.17438456E+00
  2.83696154E+00  2.31187390E+00 -6.05190414E-01  3.29038037E+00 -2.45541791E+00
 -6.73678068E-01  5.59201279E+00 -1.23851570E-01  2.62845795E+00  7.13395050E+00
  5.37406365E-01 -2.01376829E+00 -4.11715597E+00  1.45381826E+00  1.02472165E+00
 -1.69123489E+00  1.53749910E+00 -5.98352176E-01 -5.25832486E+00 -1.14542259E+00
  4.22020295E-01 -2.90383006E+00 -2.66246493E+00 -1.57908952E-01  6.09325718E-01
  2.25334650E+00  9.60001306E-01 -3.66173563E+00  1.56640128E+00  3.04552357E+00
 -1.92155709E+00  2.82661306E+00 -2.19768496E+00 -6.31336089E+00 -1.93281431E+00
  2.02407800E+00 -3.22657870E+00 -4.33645086E+00 -1.32798425E+00  8.34299672E-01
  9.38884184E-01  2.53815556E+00  3.73107645E-01  4.16580931E+00  1.71857074E+00
 -5.46433136E+00  4.92220049E+00  1.08753118E+00 -7.64008987E+00  5.54092976E-01
 -1.74883729E+00 -7.75900810E-02 -3.91777153E+00  1.83811844E+00  1.71468225E+00
 -2.04409515E+00 -1.61290511E+00  7.26948771E+00  5.81141378E-01  2.91970786E+00
Force Field                                I                0
Int Atom Types                             I   N=          25
           0           0           0           0           0           0
           0           0           0           0           0           0
           0           0           0           0           0           0
           0           0           0           0           0           0
           0
MM charges                                 R   N=          25
  0.00000000E+00  0.00000000E+00  0.00000000E+00  0.00000000E+00  0.00000000E+00
  0.00000000E+00  0.00000000E+00  0.00000000E+00  0.00000000E+00  0.00000000E+00
  0.00000000E+00  0.00000000E+00  0.00000000E+00  0.00000000E+00  0.00000000E+00
  0.00000000E+00  0.00000000E+00  0.00000000E+00  0.00000000E+00  0.00000000E+00
  0.00000000E+00  0.00000000E+00  0.00000000E+00  0.00000000E+00  0.00000000E+00
Integer atomic weights                     I   N=          25
          31          16          16          16          16          16
          16          16          16          12          12          12
          12          12           1           1           1           1
           1           1           1           1           1           1
           1
Real atomic weights                        R   N=          25
  3.09737634E+01  1.59949146E+01  1.59949146E+01  1.59949146E+01  1.59949146E+01
  1.59949146E+01  1.59949146E+01  1.59949146E+01  1.59949146E+01  1.20000000E+01
  1.20000000E+01  1.20000000E+01  1.20000000E+01  1.20000000E+01  1.00782504E+00
  1.00782504E+00  1.00782504E+00  1.00782504E+00  1.00782504E+00  1.00782504E+00
  1.00782504E+00  1.00782504E+00  1.00782504E+00  1.00782504E+00  1.00782504E+00
Atom fragment info                         I   N=          25
           0           0           0           0           0           0
           0           0           0           0           0           0
           0           0           0           0           0           0
           0           0           0           0           0           0
           0
Atom residue num                           I   N=          25
           0           0           0           0           0           0
           0           0           0           0           0           0
           0           0           0           0           0           0
           0           0           0           0           0           0
           0
Nuclear spins                              I   N=          25
           1           0           0           0           0           0
           0           0           0           0           0           0
           0           0           1           1           1           1
           1           1           1           1           1           1
           1
Nuclear ZEff                               R   N=          25
 -1.29400000E+01 -5.60000000E+00 -5.60000000E+00 -5.60000000E+00 -5.60000000E+00
 -5.60000000E+00 -5.60000000E+00 -5.60000000E+00 -5.60000000E+00 -3.60000000E+00
 -3.60000000E+00 -3.60000000E+00 -3.60000000E+00 -3.60000000E+00 -1.00000000E+00
 -1.00000000E+00 -1.00000000E+00 -1.00000000E+00 -1.00000000E+00 -1.00000000E+00
 -1.00000000E+00 -1.00000000E+00 -1.00000000E+00 -1.00000000E+00 -1.00000000E+00
Nuclear QMom                               R   N=          25
  0.00000000E+00  0.00000000E+00  0.00000000E+00  0.00000000E+00  0.00000000E+00
  0.00000000E+00  0.00000000E+00  0.00000000E+00  0.00000000E+00  0.00000000E+00
  0.00000000E+00  0.00000000E+00  0.00000000E+00  0.00000000E+00  0.00000000E+00
  0.00000000E+00  0.00000000E+00  0.00000000E+00  0.00000000E+00  0.00000000E+00
  0.00000000E+00  0.00000000E+00  0.00000000E+00  0.00000000E+00  0.00000000E+00
Nuclear GFac                               R   N=          25
  1.13160000E+00  0.00000000E+00  0.00000000E+00  0.00000000E+00  0.00000000E+00
  0.00000000E+00  0.00000000E+00  0.00000000E+00  0.00000000E+00  0.00000000E+00
  0.00000000E+00  0.00000000E+00  0.00000000E+00  0.00000000E+00  2.79284600E+00
  2.79284600E+00  2.79284600E+00  2.79284600E+00  2.79284600E+00  2.79284600E+00
  2.79284600E+00  2.79284600E+00  2.79284600E+00  2.79284600E+00  2.79284600E+00
MicOpt                                     I   N=          25
          -1          -1          -1          -1          -1          -1
          -1          -1          -1          -1          -1          -1
          -1          -1          -1          -1          -1          -1
          -1          -1          -1          -1          -1          -1
          -1
Number of contracted shells                I               79
Number of primitive shells                 I              204
Pure/Cartesian d shells                    I                1
Pure/Cartesian f shells                    I                0
Highest angular momentum                   I                2
Largest degree of contraction              I                6
Shell types                                I   N=          79
           0          -1          -1          -1           2           0
          -1          -1           2           0          -1          -1
           2           0          -1          -1           2           0
          -1          -1           2           0          -1          -1
           2           0          -1          -1           2           0
          -1          -1           2           0          -1          -1
           2           0          -1          -1           2           0
          -1          -1           2           0          -1          -1
           2           0          -1          -1           2           0
          -1          -1           2           0           0           0
           0           0           0           0           0           0
           0           0           0           0           0           0
           0           0           0           0           0           0
           0
Number of primitives per shell             I   N=          79
           6           6           3           1           1           6
           3           1           1           6           3           1
           1           6           3           1           1           6
           3           1           1           6           3           1
           1           6           3           1           1           6
           3           1           1           6           3           1
           1           6           3           1           1           6
           3           1           1           6           3           1
           1           6           3           1           1           6
           3           1           1           3           1           3
           1           3           1           3           1           3
           1           3           1           3           1           3
           1           3           1           3           1           3
           1
Shell to atom map                          I   N=          79
           1           1           1           1           1           2
           2           2           2           3           3           3
           3           4           4           4           4           5
           5           5           5           6           6           6
           6           7           7           7           7           8
           8           8           8           9           9           9
           9          10          10          10          10          11
          11          11          11          12          12          12
          12          13          13          13          13          14
          14          14          14          15          15          16
          16          17          17          18          18          19
          19          20          20          21          21          22
          22          23          23          24          24          25
          25
Primitive exponents                        R   N=         204
  1.94133000E+04  2.90942000E+03  6.61364000E+02  1.85759000E+02  5.91943000E+01
  2.00310000E+01  3.39478000E+02  8.10101000E+01  2.58780000E+01  9.45221000E+00
  3.66566000E+00  1.46746000E+00  2.15623000E+00  7.48997000E-01  2.83145000E-01
  9.98317000E-02  5.50000000E-01  5.48467166E+03  8.25234946E+02  1.88046958E+02
  5.29645000E+01  1.68975704E+01  5.79963534E+00  1.55396162E+01  3.59993359E+00
  1.01376175E+00  2.70005823E-01  8.00000000E-01  5.48467166E+03  8.25234946E+02
  1.88046958E+02  5.29645000E+01  1.68975704E+01  5.79963534E+00  1.55396162E+01
  3.59993359E+00  1.01376175E+00  2.70005823E-01  8.00000000E-01  5.48467166E+03
  8.25234946E+02  1.88046958E+02  5.29645000E+01  1.68975704E+01  5.79963534E+00
  1.55396162E+01  3.59993359E+00  1.01376175E+00  2.70005823E-01  8.00000000E-01
  5.48467166E+03  8.25234946E+02  1.88046958E+02  5.29645000E+01  1.68975704E+01
  5.79963534E+00  1.55396162E+01  3.59993359E+00  1.01376175E+00  2.70005823E-01
  8.00000000E-01  5.48467166E+03  8.25234946E+02  1.88046958E+02  5.29645000E+01
  1.68975704E+01  5.79963534E+00  1.55396162E+01  3.59993359E+00  1.01376175E+00
  2.70005823E-01  8.00000000E-01  5.48467166E+03  8.25234946E+02  1.88046958E+02
  5.29645000E+01  1.68975704E+01  5.79963534E+00  1.55396162E+01  3.59993359E+00
  1.01376175E+00  2.70005823E-01  8.00000000E-01  5.48467166E+03  8.25234946E+02
  1.88046958E+02  5.29645000E+01  1.68975704E+01  5.79963534E+00  1.55396162E+01
  3.59993359E+00  1.01376175E+00  2.70005823E-01  8.00000000E-01  5.48467166E+03
  8.25234946E+02  1.88046958E+02  5.29645000E+01  1.68975704E+01  5.79963534E+00
  1.55396162E+01  3.59993359E+00  1.01376175E+00  2.70005823E-01  8.00000000E-01
  3.04752488E+03  4.57369518E+02  1.03948685E+02  2.92101553E+01  9.28666296E+00
  3.16392696E+00  7.86827235E+00  1.88128854E+00  5.44249258E-01  1.68714478E-01
  8.00000000E-01  3.04752488E+03  4.57369518E+02  1.03948685E+02  2.92101553E+01
  9.28666296E+00  3.16392696E+00  7.86827235E+00  1.88128854E+00  5.44249258E-01
  1.68714478E-01  8.00000000E-01  3.04752488E+03  4.57369518E+02  1.03948685E+02
  2.92101553E+01  9.28666296E+00  3.16392696E+00  7.86827235E+00  1.88128854E+00
  5.44249258E-01  1.68714478E-01  8.00000000E-01  3.04752488E+03  4.57369518E+02
  1.03948685E+02  2.92101553E+01  9.28666296E+00  3.16392696E+00  7.86827235E+00
  1.88128854E+00  5.44249258E-01  1.68714478E-01  8.00000000E-01  3.04752488E+03
  4.57369518E+02  1.03948685E+02  2.92101553E+01  9.28666296E+00  3.16392696E+00
  7.86827235E+00  1.88128854E+00  5.44249258E-01  1.68714478E-01  8.00000000E-01
  1.87311370E+01  2.82539436E+00  6.40121692E-01  1.61277759E-01  1.87311370E+01
  2.82539436E+00  6.40121692E-01  1.61277759E-01  1.87311370E+01  2.82539436E+00
  6.40121692E-01  1.61277759E-01  1.87311370E+01  2.82539436E+00  6.40121692E-01
  1.61277759E-01  1.87311370E+01  2.82539436E+00  6.40121692E-01  1.61277759E-01
  1.87311370E+01  2.82539436E+00  6.40121692E-01  1.61277759E-01  1.87311370E+01
  2.82539436E+00  6.40121692E-01  1.61277759E-01  1.87311370E+01  2.82539436E+00
  6.40121692E-01  1.61277759E-01  1.87311370E+01  2.82539436E+00  6.40121692E-01
  1.61277759E-01  1.87311370E+01  2.82539436E+00  6.40121692E-01  1.61277759E-01
  1.87311370E+01  2.82539436E+00  6.40121692E-01  1.61277759E-01
Contraction coefficients                   R   N=         204
  1.85159892E-03  1.42061917E-02  6.99994593E-02  2.40078860E-01  4.84761718E-01
  3.35199805E-01 -2.78217010E-03 -3.60499014E-02 -1.16631004E-01  9.68328036E-02
  6.14418023E-01  4.03798015E-01 -2.52924114E-01  3.28518447E-02  1.08125476E+00
  1.00000000E+00  1.00000000E+00  1.83107443E-03  1.39501722E-02  6.84450781E-02
  2.32714336E-01  4.70192898E-01  3.58520853E-01 -1.10777550E-01 -1.48026263E-01
  1.13076702E+00  1.00000000E+00  1.00000000E+00  1.83107443E-03  1.39501722E-02
  6.84450781E-02  2.32714336E-01  4.70192898E-01  3.58520853E-01 -1.10777550E-01
 -1.48026263E-01  1.13076702E+00  1.00000000E+00  1.00000000E+00  1.83107443E-03
  1.39501722E-02  6.84450781E-02  2.32714336E-01  4.70192898E-01  3.58520853E-01
 -1.10777550E-01 -1.48026263E-01  1.13076702E+00  1.00000000E+00  1.00000000E+00
  1.83107443E-03  1.39501722E-02  6.84450781E-02  2.32714336E-01  4.70192898E-01
  3.58520853E-01 -1.10777550E-01 -1.48026263E-01  1.13076702E+00  1.00000000E+00
  1.00000000E+00  1.83107443E-03  1.39501722E-02  6.84450781E-02  2.32714336E-01
  4.70192898E-01  3.58520853E-01 -1.10777550E-01 -1.48026263E-01  1.13076702E+00
  1.00000000E+00  1.00000000E+00  1.83107443E-03  1.39501722E-02  6.84450781E-02
  2.32714336E-01  4.70192898E-01  3.58520853E-01 -1.10777550E-01 -1.48026263E-01
  1.13076702E+00  1.00000000E+00  1.00000000E+00  1.83107443E-03  1.39501722E-02
  6.84450781E-02  2.32714336E-01  4.70192898E-01  3.58520853E-01 -1.10777550E-01
 -1.48026263E-01  1.13076702E+00  1.00000000E+00  1.00000000E+00  1.83107443E-03
  1.39501722E-02  6.84450781E-02  2.32714336E-01  4.70192898E-01  3.58520853E-01
 -1.10777550E-01 -1.48026263E-01  1.13076702E+00  1.00000000E+00  1.00000000E+00
  1.83473713E-03  1.40373228E-02  6.88426223E-02  2.32184443E-01  4.67941348E-01
  3.62311985E-01 -1.19332420E-01 -1.60854152E-01  1.14345644E+00  1.00000000E+00
  1.00000000E+00  1.83473713E-03  1.40373228E-02  6.88426223E-02  2.32184443E-01
  4.67941348E-01  3.62311985E-01 -1.19332420E-01 -1.60854152E-01  1.14345644E+00
  1.00000000E+00  1.00000000E+00  1.83473713E-03  1.40373228E-02  6.88426223E-02
  2.32184443E-01  4.67941348E-01  3.62311985E-01 -1.19332420E-01 -1.60854152E-01
  1.14345644E+00  1.00000000E+00  1.00000000E+00  1.83473713E-03  1.40373228E-02
  6.88426223E-02  2.32184443E-01  4.67941348E-01  3.62311985E-01 -1.19332420E-01
 -1.60854152E-01  1.14345644E+00  1.00000000E+00  1.00000000E+00  1.83473713E-03
  1.40373228E-02  6.88426223E-02  2.32184443E-01  4.67941348E-01  3.62311985E-01
 -1.19332420E-01 -1.60854152E-01  1.14345644E+00  1.00000000E+00  1.00000000E+00
  3.34946043E-02  2.34726953E-01  8.13757326E-01  1.00000000E+00  3.34946043E-02
  2.34726953E-01  8.13757326E-01  1.00000000E+00  3.34946043E-02  2.34726953E-01
  8.13757326E-01  1.00000000E+00  3.34946043E-02  2.34726953E-01  8.13757326E-01
  1.00000000E+00  3.34946043E-02  2.34726953E-01  8.13757326E-01  1.00000000E+00
  3.34946043E-02  2.34726953E-01  8.13757326E-01  1.00000000E+00  3.34946043E-02
  2.34726953E-01  8.13757326E-01  1.00000000E+00  3.34946043E-02  2.34726953E-01
  8.13757326E-01  1.00000000E+00  3.34946043E-02  2.34726953E-01  8.13757326E-01
  1.00000000E+00  3.34946043E-02  2.34726953E-01  8.13757326E-01  1.00000000E+00
  3.34946043E-02  2.34726953E-01  8.13757326E-01  1.00000000E+00
P(S=P) Contraction coefficients            R   N=         204
  0.00000000E+00  0.00000000E+00  0.00000000E+00  0.00000000E+00  0.00000000E+00
  0.00000000E+00  4.56461619E-03  3.36935719E-02  1.39754883E-01  3.39361717E-01
  4.50920624E-01  2.38585801E-01 -1.77653127E-02  2.74058196E-01  7.85421563E-01
  1.00000000E+00  0.00000000E+00  0.00000000E+00  0.00000000E+00  0.00000000E+00
  0.00000000E+00  0.00000000E+00  0.00000000E+00  7.08742682E-02  3.39752839E-01
  7.27158577E-01  1.00000000E+00  0.00000000E+00  0.00000000E+00  0.00000000E+00
  0.00000000E+00  0.00000000E+00  0.00000000E+00  0.00000000E+00  7.08742682E-02
  3.39752839E-01  7.27158577E-01  1.00000000E+00  0.00000000E+00  0.00000000E+00
  0.00000000E+00  0.00000000E+00  0.00000000E+00  0.00000000E+00  0.00000000E+00
  7.08742682E-02  3.39752839E-01  7.27158577E-01  1.00000000E+00  0.00000000E+00
  0.00000000E+00  0.00000000E+00  0.00000000E+00  0.00000000E+00  0.00000000E+00
  0.00000000E+00  7.08742682E-02  3.39752839E-01  7.27158577E-01  1.00000000E+00
  0.00000000E+00  0.00000000E+00  0.00000000E+00  0.00000000E+00  0.00000000E+00
  0.00000000E+00  0.00000000E+00  7.08742682E-02  3.39752839E-01  7.27158577E-01
  1.00000000E+00  0.00000000E+00  0.00000000E+00  0.00000000E+00  0.00000000E+00
  0.00000000E+00  0.00000000E+00  0.00000000E+00  7.08742682E-02  3.39752839E-01
  7.27158577E-01  1.00000000E+00  0.00000000E+00  0.00000000E+00  0.00000000E+00
  0.00000000E+00  0.00000000E+00  0.00000000E+00  0.00000000E+00  7.08742682E-02
  3.39752839E-01  7.27158577E-01  1.00000000E+00  0.00000000E+00  0.00000000E+00
  0.00000000E+00  0.00000000E+00  0.00000000E+00  0.00000000E+00  0.00000000E+00
  7.08742682E-02  3.39752839E-01  7.27158577E-01  1.00000000E+00  0.00000000E+00
  0.00000000E+00  0.00000000E+00  0.00000000E+00  0.00000000E+00  0.00000000E+00
  0.00000000E+00  6.89990666E-02  3.16423961E-01  7.44308291E-01  1.00000000E+00
  0.00000000E+00  0.00000000E+00  0.00000000E+00  0.00000000E+00  0.00000000E+00
  0.00000000E+00  0.00000000E+00  6.89990666E-02  3.16423961E-01  7.44308291E-01
  1.00000000E+00  0.00000000E+00  0.00000000E+00  0.00000000E+00  0.00000000E+00
  0.00000000E+00  0.00000000E+00  0.00000000E+00  6.89990666E-02  3.16423961E-01
  7.44308291E-01  1.00000000E+00  0.00000000E+00  0.00000000E+00  0.00000000E+00
  0.00000000E+00  0.00000000E+00  0.00000000E+00  0.00000000E+00  6.89990666E-02
  3.16423961E-01  7.44308291E-01  1.00000000E+00  0.00000000E+00  0.00000000E+00
  0.00000000E+00  0.00000000E+00  0.00000000E+00  0.00000000E+00  0.00000000E+00
  6.89990666E-02  3.16423961E-01  7.44308291E-01  1.00000000E+00  0.00000000E+00
  0.00000000E+00  0.00000000E+00  0.00000000E+00  0.00000000E+00  0.00000000E+00
  0.00000000E+00  0.00000000E+00  0.00000000E+00  0.00000000E+00  0.00000000E+00
  0.00000000E+00  0.00000000E+00  0.00000000E+00  0.00000000E+00  0.00000000E+00
  0.00000000E+00  0.00000000E+00  0.00000000E+00  0.00000000E+00  0.00000000E+00
  0.00000000E+00  0.00000000E+00  0.00000000E+00  0.00000000E+00  0.00000000E+00
  0.00000000E+00  0.00000000E+00  0.00000000E+00  0.00000000E+00  0.00000000E+00
  0.00000000E+00  0.00000000E+00  0.00000000E+00  0.00000000E+00  0.00000000E+00
  0.00000000E+00  0.00000000E+00  0.00000000E+00  0.00000000E+00  0.00000000E+00
  0.00000000E+00  0.00000000E+00  0.00000000E+00  0.00000000E+00
Coordinates of each shell                  R   N=         237
  4.93476666E+00  8.19975733E-02 -3.58651221E-01  4.93476666E+00  8.19975733E-02
 -3.58651221E-01  4.93476666E+00  8.19975733E-02 -3.58651221E-01  4.93476666E+00
  8.19975733E-02 -3.58651221E-01  4.93476666E+00  8.19975733E-02 -3.58651221E-01
 -1.40152590E+00 -9.75890585E-01 -1.65577943E+00 -1.40152590E+00 -9.75890585E-01
 -1.65577943E+00 -1.40152590E+00 -9.75890585E-01 -1.65577943E+00 -1.40152590E+00
 -9.75890585E-01 -1.65577943E+00 -5.94769754E+00  3.31137967E+00  3.50625418E-01
 -5.94769754E+00  3.31137967E+00  3.50625418E-01 -5.94769754E+00  3.31137967E+00
  3.50625418E-01 -5.94769754E+00  3.31137967E+00  3.50625418E-01 -6.72257457E+00
 -1.04491474E+00 -1.80597649E+00 -6.72257457E+00 -1.04491474E+00 -1.80597649E+00
 -6.72257457E+00 -1.04491474E+00 -1.80597649E+00 -6.72257457E+00 -1.04491474E+00
 -1.80597649E+00 -1.74907134E+00 -3.20741420E+00  2.17438456E+00 -1.74907134E+00
 -3.20741420E+00  2.17438456E+00 -1.74907134E+00 -3.20741420E+00  2.17438456E+00
 -1.74907134E+00 -3.20741420E+00  2.17438456E+00  2.83696154E+00  2.31187390E+00
 -6.05190414E-01  2.83696154E+00  2.31187390E+00 -6.05190414E-01  2.83696154E+00
  2.31187390E+00 -6.05190414E-01  2.83696154E+00  2.31187390E+00 -6.05190414E-01
  3.29038037E+00 -2.45541791E+00 -6.73678068E-01  3.29038037E+00 -2.45541791E+00
 -6.73678068E-01  3.29038037E+00 -2.45541791E+00 -6.73678068E-01  3.29038037E+00
 -2.45541791E+00 -6.73678068E-01  5.59201279E+00 -1.23851570E-01  2.62845795E+00
  5.59201279E+00 -1.23851570E-01  2.62845795E+00  5.59201279E+00 -1.23851570E-01
  2.62845795E+00  5.59201279E+00 -1.23851570E-01  2.62845795E+00  7.13395050E+00
  5.37406365E-01 -2.01376829E+00  7.13395050E+00  5.37406365E-01 -2.01376829E+00
  7.13395050E+00  5.37406365E-01 -2.01376829E+00  7.13395050E+00  5.37406365E-01
 -2.01376829E+00 -4.11715597E+00  1.45381826E+00  1.02472165E+00 -4.11715597E+00
  1.45381826E+00  1.02472165E+00 -4.11715597E+00  1.45381826E+00  1.02472165E+00
 -4.11715597E+00  1.45381826E+00  1.02472165E+00 -1.69123489E+00  1.53749910E+00
 -5.98352176E-01 -1.69123489E+00  1.53749910E+00 -5.98352176E-01 -1.69123489E+00
  1.53749910E+00 -5.98352176E-01 -1.69123489E+00  1.53749910E+00 -5.98352176E-01
 -5.25832486E+00 -1.14542259E+00  4.22020295E-01 -5.25832486E+00 -1.14542259E+00
  4.22020295E-01 -5.25832486E+00 -1.14542259E+00  4.22020295E-01 -5.25832486E+00
 -1.14542259E+00  4.22020295E-01 -2.90383006E+00 -2.66246493E+00 -1.57908952E-01
 -2.90383006E+00 -2.66246493E+00 -1.57908952E-01 -2.90383006E+00 -2.66246493E+00
 -1.57908952E-01 -2.90383006E+00 -2.66246493E+00 -1.57908952E-01  6.09325718E-01
  2.25334650E+00  9.60001306E-01  6.09325718E-01  2.25334650E+00  9.60001306E-01
  6.09325718E-01  2.25334650E+00  9.60001306E-01  6.09325718E-01  2.25334650E+00
  9.60001306E-01 -3.66173563E+00  1.56640128E+00  3.04552357E+00 -3.66173563E+00
  1.56640128E+00  3.04552357E+00 -1.92155709E+00  2.82661306E+00 -2.19768496E+00
 -1.92155709E+00  2.82661306E+00 -2.19768496E+00 -6.31336089E+00 -1.93281431E+00
  2.02407800E+00 -6.31336089E+00 -1.93281431E+00  2.02407800E+00 -3.22657870E+00
 -4.33645086E+00 -1.32798425E+00 -3.22657870E+00 -4.33645086E+00 -1.32798425E+00
  8.34299672E-01  9.38884184E-01  2.53815556E+00  8.34299672E-01  9.38884184E-01
  2.53815556E+00  3.73107645E-01  4.16580931E+00  1.71857074E+00  3.73107645E-01
  4.16580931E+00  1.71857074E+00 -5.46433136E+00  4.92220049E+00  1.08753118E+00
 -5.46433136E+00  4.92220049E+00  1.08753118E+00 -7.64008987E+00  5.54092976E-01
 -1.74883729E+00 -7.64008987E+00  5.54092976E-01 -1.74883729E+00 -7.75900810E-02
 -3.91777153E+00  1.83811844E+00 -7.75900810E-02 -3.91777153E+00  1.83811844E+00
  1.71468225E+00 -2.04409515E+00 -1.61290511E+00  1.71468225E+00 -2.04409515E+00
 -1.61290511E+00  7.26948771E+00  5.81141378E-01  2.91970786E+00  7.26948771E+00
  5.81141378E-01  2.91970786E+00
Constraint Structure                       R   N=          75
  4.93476666E+00  8.19975733E-02 -3.58651221E-01 -1.40152590E+00 -9.75890585E-01
 -1.65577943E+00 -5.94769754E+00  3.31137967E+00  3.50625418E-01 -6.72257457E+00
 -1.04491474E+00 -1.80597649E+00 -1.74907134E+00 -3.20741420E+00  2.17438456E+00
  2.83696154E+00  2.31187390E+00 -6.05190414E-01  3.29038037E+00 -2.45541791E+00
 -6.73678068E-01  5.59201279E+00 -1.23851570E-01  2.62845795E+00  7.13395050E+00
  5.37406365E-01 -2.01376829E+00 -4.11715597E+00  1.45381826E+00  1.02472165E+00
 -1.69123489E+00  1.53749910E+00 -5.98352176E-01 -5.25832486E+00 -1.14542259E+00
  4.22020295E-01 -2.90383006E+00 -2.66246493E+00 -1.57908952E-01  6.09325718E-01
  2.25334650E+00  9.60001306E-01 -3.66173563E+00  1.56640128E+00  3.04552357E+00
 -1.92155709E+00  2.82661306E+00 -2.19768496E+00 -6.31336089E+00 -1.93281431E+00
  2.02407800E+00 -3.22657870E+00 -4.33645086E+00 -1.32798425E+00  8.34299672E-01
  9.38884184E-01  2.53815556E+00  3.73107645E-01  4.16580931E+00  1.71857074E+00
 -5.46433136E+00  4.92220049E+00  1.08753118E+00 -7.64008987E+00  5.54092976E-01
 -1.74883729E+00 -7.75900810E-02 -3.91777153E+00  1.83811844E+00  1.71468225E+00
 -2.04409515E+00 -1.61290511E+00  7.26948771E+00  5.81141378E-01  2.91970786E+00
Num ILSW                                   I              100
ILSW                                       I   N=         100
           0           1           0           1           2           0
           0           0           0           0           0          -1
           0           0           0           0           0           0
           0           0           0           0           1           0
           1           0           0           0           0           0
           0           0      100000           0          -1           0
           0           0           0           0           0           0
           0           0           0           1           1           0
           0           0           1           0           0           0
           0           0           4          40           0           0
           0           0           0           0           0           0
           0           0           0           0           0           0
           0           0           0           0           0           0
           0           0           0           0           0           0
           0           0           0           0           0           0
           0           0           0           0           0           0
           0           0           0           0
Num RLSW                                   I               40
RLSW                                       R   N=          40
  1.00000000E+00  1.00000000E+00  1.00000000E+00  1.00000000E+00  1.00000000E+00
  0.00000000E+00  0.00000000E+00  1.00000000E+00  0.00000000E+00  0.00000000E+00
  0.00000000E+00  0.00000000E+00  1.00000000E+00  0.00000000E+00  0.00000000E+00
  0.00000000E+00  0.00000000E+00  1.00000000E+00  0.00000000E+00  0.00000000E+00
  0.00000000E+00  0.00000000E+00  1.00000000E+00  0.00000000E+00  0.00000000E+00
  0.00000000E+00  0.00000000E+00  1.00000000E+00  0.00000000E+00  0.00000000E+00
  0.00000000E+00  0.00000000E+00  0.00000000E+00  0.00000000E+00  0.00000000E+00
  0.00000000E+00  0.00000000E+00  0.00000000E+00  1.00000000E+00  1.00000000E+00
MxBond                                     I                4
NBond                                      I   N=          25
           4           2           2           2           2           2
           2           2           1           4           4           4
           4           4           1           1           1           1
           1           1           1           1           1           1
           1
IBond                                      I   N=         100
           6           7           8           9          11          13
           0           0          10          21           0           0
          12          22           0           0          13          23
           0           0           1          14           0           0
           1          24           0           0           1          25
           0           0           1           0           0           0
           3          11          12          15           2          10
          14          16           4          10          13          17
           2           5          12          18           6          11
          19          20          10           0           0           0
          11           0           0           0          12           0
           0           0          13           0           0           0
          14           0           0           0          14           0