
    -----------------------------------------------------------------------
          Psi4: An Open-Source Ab Initio Electronic Structure Package
                               Psi4 1.3.2 release

                         Git: Rev {HEAD} ecbda83 


    R. M. Parrish, L. A. Burns, D. G. A. Smith, A. C. Simmonett,
    A. E. DePrince III, E. G. Hohenstein, U. Bozkaya, A. Yu. Sokolov,
    R. Di Remigio, R. M. Richard, J. F. Gonthier, A. M. James,
    H. R. McAlexander, A. Kumar, M. Saitow, X. Wang, B. P. Pritchard,
    P. Verma, H. F. Schaefer III, K. Patkowski, R. A. King, E. F. Valeev,
    F. A. Evangelista, J. M. Turney, T. D. Crawford, and C. D. Sherrill,
    J. Chem. Theory Comput. 13(7) pp 3185--3197 (2017).
    (doi: 10.1021/acs.jctc.7b00174)


                         Additional Contributions by
    P. Kraus, H. Kruse, M. H. Lechner, M. C. Schieber, R. A. Shaw,
    A. Alenaizan, R. Galvelis, Z. L. Glick, S. Lehtola, and J. P. Misiewicz

    -----------------------------------------------------------------------


    Psi4 started on: Wednesday, 04 November 2020 09:12PM

    Process ID: 93333
    Host:       node35.bme.utexas.edu
    PSIDATADIR: /home/xy3866/psi4conda/share/psi4
    Memory:     500.0 MiB
    Threads:    8
    
  ==> Input File <==

--------------------------------------------------------------------------
#psi4
#
memory 32 gb

molecule  {
0 1
  N       -0.0001600     0.0106870     1.4539870
  C        0.0000110    -0.0087070    -1.1889250
  C        0.0001510     0.0027862     0.3743013
  H       -0.6838220    -0.7758470    -1.5576010
  H        1.0038610    -0.2217700    -1.5616520
  H       -0.3198320     0.9627440    -1.5709320
units angstrom
no_reorient  #important for SAPT in psi4, default
symmetry c1  #important for SAPT in psi4, default
}

set PROPERTIES_ORIGIN ["COM"]
properties('MP2/aug-cc-pvtz', properties = ['dipole'])
--------------------------------------------------------------------------

  Memory set to  29.802 GiB by Python driver.
    SCF Algorithm Type (re)set to DF.

*** tstart() called on node35.bme.utexas.edu
*** at Wed Nov  4 21:12:06 2020

   => Loading Basis Set <=

    Name: AUG-CC-PVTZ
    Role: ORBITAL
    Keyword: BASIS
    atoms 1   entry N          line   281 file /home/xy3866/psi4conda/share/psi4/basis/aug-cc-pvtz.gbs 
    atoms 2-3 entry C          line   235 file /home/xy3866/psi4conda/share/psi4/basis/aug-cc-pvtz.gbs 
    atoms 4-6 entry H          line    36 file /home/xy3866/psi4conda/share/psi4/basis/aug-cc-pvtz.gbs 


         ---------------------------------------------------------
                                   SCF
               by Justin Turney, Rob Parrish, Andy Simmonett
                          and Daniel G. A. Smith
                              RHF Reference
                        8 Threads,  30517 MiB Core
         ---------------------------------------------------------

  ==> Geometry <==

    Molecular point group: c1
    Full point group: C1

    Geometry (in Angstrom), charge = 0, multiplicity = 1:

       Center              X                  Y                   Z               Mass       
    ------------   -----------------  -----------------  -----------------  -----------------
         N           -0.000157858166     0.009627798812     1.311203425899    14.003074004430
         C            0.000013141834    -0.009766201188    -1.331708574101    12.000000000000
         C            0.000153141834     0.001726998812     0.231517725899    12.000000000000
         H           -0.683819858166    -0.776906201188    -1.700384574101     1.007825032230
         H            1.003863141834    -0.222829201188    -1.704435574101     1.007825032230
         H           -0.319829858166     0.961684798812    -1.713715574101     1.007825032230

  Running in c1 symmetry.

  Rotational constants: A =      5.30111  B =      0.29893  C =      0.29893 [cm^-1]
  Rotational constants: A = 158923.34870  B =   8961.59780  C =   8961.59108 [MHz]
  Nuclear repulsion =   58.629634704245426

  Charge       = 0
  Multiplicity = 1
  Electrons    = 22
  Nalpha       = 11
  Nbeta        = 11

  ==> Algorithm <==

  SCF Algorithm Type is DF.
  DIIS enabled.
  MOM disabled.
  Fractional occupation disabled.
  Guess Type is SAD.
  Energy threshold   = 1.00e-10
  Density threshold  = 1.00e-10
  Integral threshold = 0.00e+00

  ==> Primary Basis <==

  Basis Set: AUG-CC-PVTZ
    Blend: AUG-CC-PVTZ
    Number of shells: 69
    Number of basis function: 207
    Number of Cartesian functions: 240
    Spherical Harmonics?: true
    Max angular momentum: 3

   => Loading Basis Set <=

    Name: (AUG-CC-PVTZ AUX)
    Role: JKFIT
    Keyword: DF_BASIS_SCF
    atoms 1   entry N          line   224 file /home/xy3866/psi4conda/share/psi4/basis/aug-cc-pvtz-jkfit.gbs 
    atoms 2-3 entry C          line   162 file /home/xy3866/psi4conda/share/psi4/basis/aug-cc-pvtz-jkfit.gbs 
    atoms 4-6 entry H          line    70 file /home/xy3866/psi4conda/share/psi4/basis/aug-cc-pvtz-jkfit.gbs 

  ==> Pre-Iterations <==

   -------------------------------------------------------
    Irrep   Nso     Nmo     Nalpha   Nbeta   Ndocc  Nsocc
   -------------------------------------------------------
     A        207     207       0       0       0       0
   -------------------------------------------------------
    Total     207     207      11      11      11       0
   -------------------------------------------------------

  ==> Integral Setup <==

  DFHelper Memory: AOs need 0.156 GiB; user supplied 22.352 GiB. Using in-core AOs.

  ==> MemDFJK: Density-Fitted J/K Matrices <==

    J tasked:                   Yes
    K tasked:                   Yes
    wK tasked:                   No
    OpenMP threads:               8
    Memory [MiB]:             22888
    Algorithm:                 Core
    Schwarz Cutoff:           1E-12
    Mask sparsity (%):       0.0093
    Fitting Condition:        1E-10

   => Auxiliary Basis Set <=

  Basis Set: (AUG-CC-PVTZ AUX)
    Blend: AUG-CC-PVTZ-JKFIT
    Number of shells: 132
    Number of basis function: 450
    Number of Cartesian functions: 558
    Spherical Harmonics?: true
    Max angular momentum: 4

  Minimum eigenvalue in the overlap matrix is 2.4551872545E-05.
  Using Symmetric Orthogonalization.

  SCF Guess: Superposition of Atomic Densities via on-the-fly atomic UHF.

  ==> Iterations <==

                           Total Energy        Delta E     RMS |[F,P]|

   @DF-RHF iter SAD:  -130.91705970223171   -1.30917e+02   0.00000e+00 
   @DF-RHF iter   1:  -131.85656226470249   -9.39503e-01   2.22751e-03 DIIS
   @DF-RHF iter   2:  -131.93117154112332   -7.46093e-02   1.39199e-03 DIIS
   @DF-RHF iter   3:  -131.96223687930708   -3.10653e-02   2.53234e-04 DIIS
   @DF-RHF iter   4:  -131.96407624390514   -1.83936e-03   8.99366e-05 DIIS
   @DF-RHF iter   5:  -131.96436393510959   -2.87691e-04   1.43601e-05 DIIS
   @DF-RHF iter   6:  -131.96437368412552   -9.74902e-06   3.67334e-06 DIIS
   @DF-RHF iter   7:  -131.96437404415053   -3.60025e-07   1.18622e-06 DIIS
   @DF-RHF iter   8:  -131.96437409698444   -5.28339e-08   1.80011e-07 DIIS
   @DF-RHF iter   9:  -131.96437409896237   -1.97792e-09   2.79820e-08 DIIS
   @DF-RHF iter  10:  -131.96437409900420   -4.18368e-11   3.91844e-09 DIIS
   @DF-RHF iter  11:  -131.96437409900545   -1.25056e-12   8.91785e-10 DIIS
   @DF-RHF iter  12:  -131.96437409900525    1.98952e-13   1.52381e-10 DIIS
   @DF-RHF iter  13:  -131.96437409900520    5.68434e-14   2.80406e-11 DIIS
  Energy and wave function converged.


  ==> Post-Iterations <==

    Orbital Energies [Eh]
    ---------------------

    Doubly Occupied:                                                      

       1A    -15.546573     2A    -11.295858     3A    -11.256104  
       4A     -1.254494     5A     -1.018115     6A     -0.672116  
       7A     -0.622919     8A     -0.622904     9A     -0.551837  
      10A     -0.489689    11A     -0.489682  

    Virtual:                                                              

      12A      0.021727    13A      0.041742    14A      0.041747  
      15A      0.062139    16A      0.099139    17A      0.104878  
      18A      0.104879    19A      0.120319    20A      0.120338  
      21A      0.123660    22A      0.172470    23A      0.172488  
      24A      0.179426    25A      0.192955    26A      0.192977  
      27A      0.198852    28A      0.247170    29A      0.247195  
      30A      0.262462    31A      0.294567    32A      0.310856  
      33A      0.310880    34A      0.333920    35A      0.337023  
      36A      0.337053    37A      0.339149    38A      0.353938  
      39A      0.353967    40A      0.357361    41A      0.408295  
      42A      0.408898    43A      0.408926    44A      0.435338  
      45A      0.435363    46A      0.441708    47A      0.484486  
      48A      0.484497    49A      0.494996    50A      0.512298  
      51A      0.512348    52A      0.629390    53A      0.629473  
      54A      0.636536    55A      0.675981    56A      0.675993  
      57A      0.687066    58A      0.710007    59A      0.710090  
      60A      0.771991    61A      0.790300    62A      0.790326  
      63A      0.814433    64A      0.853919    65A      0.853957  
      66A      0.859013    67A      0.888972    68A      0.933932  
      69A      0.933972    70A      0.950164    71A      0.959633  
      72A      0.959651    73A      0.980462    74A      1.036377  
      75A      1.036428    76A      1.060395    77A      1.080738  
      78A      1.080814    79A      1.105166    80A      1.118112  
      81A      1.118119    82A      1.142714    83A      1.142778  
      84A      1.145857    85A      1.194723    86A      1.194773  
      87A      1.202237    88A      1.202267    89A      1.240575  
      90A      1.284486    91A      1.333206    92A      1.400525  
      93A      1.400538    94A      1.410911    95A      1.468340  
      96A      1.507042    97A      1.507097    98A      1.551359  
      99A      1.551413   100A      1.596876   101A      1.606560  
     102A      1.652879   103A      1.652931   104A      1.680145  
     105A      1.700242   106A      1.728508   107A      1.728599  
     108A      1.737107   109A      1.844442   110A      1.886217  
     111A      1.886274   112A      1.920624   113A      1.920709  
     114A      1.949414   115A      1.949456   116A      1.969774  
     117A      2.030235   118A      2.044159   119A      2.110427  
     120A      2.110587   121A      2.149058   122A      2.149127  
     123A      2.247572   124A      2.247641   125A      2.273266  
     126A      2.396038   127A      2.396097   128A      2.535487  
     129A      2.535523   130A      2.681931   131A      2.757003  
     132A      2.954772   133A      3.022579   134A      3.039901  
     135A      3.039935   136A      3.262491   137A      3.262680  
     138A      3.385844   139A      3.385928   140A      3.432412  
     141A      3.454013   142A      3.454043   143A      3.457441  
     144A      3.519870   145A      3.542043   146A      3.542190  
     147A      3.587378   148A      3.673784   149A      3.718791  
     150A      3.718894   151A      3.770318   152A      3.797879  
     153A      3.797924   154A      3.903317   155A      3.903356  
     156A      3.954998   157A      3.998616   158A      3.998643  
     159A      4.028655   160A      4.028753   161A      4.038290  
     162A      4.181248   163A      4.244178   164A      4.244285  
     165A      4.291324   166A      4.291571   167A      4.412253  
     168A      4.518950   169A      4.519175   170A      4.548660  
     171A      4.739451   172A      4.739509   173A      4.843178  
     174A      4.865224   175A      4.865425   176A      4.893223  
     177A      4.958544   178A      5.012688   179A      5.012779  
     180A      5.042388   181A      5.053915   182A      5.236117  
     183A      5.311064   184A      5.331918   185A      5.332309  
     186A      5.376748   187A      5.376835   188A      5.540623  
     189A      5.592846   190A      5.592997   191A      5.756986  
     192A      5.757031   193A      5.796113   194A      5.796172  
     195A      5.859911   196A      5.941733   197A      6.075905  
     198A      6.075944   199A      6.629190   200A      6.629272  
     201A      6.699577   202A      6.899923   203A      6.900119  
     204A      7.085010   205A     13.531608   206A     16.900547  
     207A     21.989379  

    Final Occupation by Irrep:
              A 
    DOCC [    11 ]

  @DF-RHF Final Energy:  -131.96437409900520

   => Energetics <=

    Nuclear Repulsion Energy =             58.6296347042454258
    One-Electron Energy =                -293.5474405410307099
    Two-Electron Energy =                 102.9534317377800789
    Total Energy =                       -131.9643740990051981

Computation Completed

*** tstop() called on node35.bme.utexas.edu at Wed Nov  4 21:12:12 2020
Module time:
	user time   =      29.51 seconds =       0.49 minutes
	system time =       2.53 seconds =       0.04 minutes
	total time  =          6 seconds =       0.10 minutes
Total time:
	user time   =      29.51 seconds =       0.49 minutes
	system time =       2.53 seconds =       0.04 minutes
	total time  =          6 seconds =       0.10 minutes
   => Loading Basis Set <=

    Name: (AUG-CC-PVTZ AUX)
    Role: RIFIT
    Keyword: DF_BASIS_MP2
    atoms 1   entry N          line   206 file /home/xy3866/psi4conda/share/psi4/basis/aug-cc-pvtz-ri.gbs 
    atoms 2-3 entry C          line   148 file /home/xy3866/psi4conda/share/psi4/basis/aug-cc-pvtz-ri.gbs 
    atoms 4-6 entry H          line    30 file /home/xy3866/psi4conda/share/psi4/basis/aug-cc-pvtz-ri.gbs 


*** tstart() called on node35.bme.utexas.edu
*** at Wed Nov  4 21:12:13 2020


  //>>>>>>>>>>>>>>>>>>>>>>>>>>>>>>>>>>>//
  //               DFMP2               //
  //<<<<<<<<<<<<<<<<<<<<<<<<<<<<<<<<<<<//

	 --------------------------------------------------------
	                          DF-MP2                         
	      2nd-Order Density-Fitted Moller-Plesset Theory     
	              RMP2 Wavefunction,   8 Threads             
	                                                         
	        Rob Parrish, Justin Turney, Andy Simmonett,      
	           Ed Hohenstein, and C. David Sherrill          
	 --------------------------------------------------------

   => Auxiliary Basis Set <=

  Basis Set: (AUG-CC-PVTZ AUX)
    Blend: AUG-CC-PVTZ-RI
    Number of shells: 126
    Number of basis function: 456
    Number of Cartesian functions: 573
    Spherical Harmonics?: true
    Max angular momentum: 4

	 --------------------------------------------------------
	                 NBF =   207, NAUX =   456
	 --------------------------------------------------------
	   CLASS    FOCC     OCC    AOCC    AVIR     VIR    FVIR
	   PAIRS       0      11      11     196     196       0
	 --------------------------------------------------------

  DFHelper Memory: AOs need 0.156 GiB; user supplied 22.352 GiB. Using in-core AOs.


         ------------------------------------------------------------
                                     CPHF                           
                                  Rob Parrish                       
         ------------------------------------------------------------

  ==> Geometry <==

    Molecular point group: c1
    Full point group: C1

    Geometry (in Angstrom), charge = 0, multiplicity = 1:

       Center              X                  Y                   Z               Mass       
    ------------   -----------------  -----------------  -----------------  -----------------
         N           -0.000157858166     0.009627798812     1.311203425899    14.003074004430
         C            0.000013141834    -0.009766201188    -1.331708574101    12.000000000000
         C            0.000153141834     0.001726998812     0.231517725899    12.000000000000
         H           -0.683819858166    -0.776906201188    -1.700384574101     1.007825032230
         H            1.003863141834    -0.222829201188    -1.704435574101     1.007825032230
         H           -0.319829858166     0.961684798812    -1.713715574101     1.007825032230

  Nuclear repulsion =   58.629634704245426
  Reference energy  = -131.964374099005198

  ==> Basis Set <==

  Basis Set: AUG-CC-PVTZ
    Blend: AUG-CC-PVTZ
    Number of shells: 69
    Number of basis function: 207
    Number of Cartesian functions: 240
    Spherical Harmonics?: true
    Max angular momentum: 3

  ==> CGRSolver (by Rob Parrish) <==

   Number of roots    =         1
   Preconditioning    =    JACOBI
   Convergence cutoff =     1E-06
   Maximum iterations =       100

  ==> CPHFRHamiltonian (by Rob Parrish) <== 

  ==> MemDFJK: Density-Fitted J/K Matrices <==

    J tasked:                   Yes
    K tasked:                   Yes
    wK tasked:                   No
    OpenMP threads:               8
    Memory [MiB]:             22888
    Algorithm:                 Core
    Schwarz Cutoff:           1E-12
    Mask sparsity (%):       0.0093
    Fitting Condition:        1E-10

   => Auxiliary Basis Set <=

  Basis Set: (AUG-CC-PVTZ AUX)
    Blend: AUG-CC-PVTZ-JKFIT
    Number of shells: 132
    Number of basis function: 450
    Number of Cartesian functions: 558
    Spherical Harmonics?: true
    Max angular momentum: 4

  ==> CPHF Iterations <==

  => Iterations <=

             Iter  Converged  Remaining    Residual
  CGR           1          0          1   7.337E-02
  CGR           2          0          1   2.091E-02
  CGR           3          0          1   7.476E-03
  CGR           4          0          1   1.606E-03
  CGR           5          0          1   4.006E-04
  CGR           6          0          1   1.175E-04
  CGR           7          0          1   1.699E-05
  CGR           8          0          1   3.056E-06
  CGR           9          1          0   4.252E-07

    CGRSolver converged.

	-----------------------------------------------------------
	 ==================> DF-MP2 Energies <==================== 
	-----------------------------------------------------------
	 Reference Energy          =    -131.9643740990051981 [Eh]
	 Singles Energy            =      -0.0000000000000000 [Eh]
	 Same-Spin Energy          =      -0.1271988044047318 [Eh]
	 Opposite-Spin Energy      =      -0.4334681599175277 [Eh]
	 Correlation Energy        =      -0.5606669643222596 [Eh]
	 Total Energy              =    -132.5250410633274498 [Eh]
	-----------------------------------------------------------
	 ================> DF-SCS-MP2 Energies <================== 
	-----------------------------------------------------------
	 SCS Same-Spin Scale       =       0.3333333333333333 [-]
	 SCS Opposite-Spin Scale   =       1.2000000000000000 [-]
	 SCS Same-Spin Energy      =      -0.0423996014682439 [Eh]
	 SCS Opposite-Spin Energy  =      -0.5201617919010333 [Eh]
	 SCS Correlation Energy    =      -0.5625613933692772 [Eh]
	 SCS Total Energy          =    -132.5269354923744629 [Eh]
	-----------------------------------------------------------



Properties will be evaluated at   0.000000,   0.000000,   0.000000 [a0]

Properties computed using the MP2 density matrix

  Nuclear Dipole Moment: [e a0]
     X:     0.0002      Y:    -0.0357      Z:    -4.8023

  Electronic Dipole Moment: [e a0]
     X:    -0.0000      Y:     0.0242      Z:     3.2385

  Dipole Moment: [e a0]
     X:     0.0002      Y:    -0.0115      Z:    -1.5637     Total:     1.5638

  Dipole Moment: [D]
     X:     0.0004      Y:    -0.0293      Z:    -3.9747     Total:     3.9748


*** tstop() called on node35.bme.utexas.edu at Wed Nov  4 21:12:26 2020
Module time:
	user time   =      48.65 seconds =       0.81 minutes
	system time =       3.96 seconds =       0.07 minutes
	total time  =         13 seconds =       0.22 minutes
Total time:
	user time   =      79.13 seconds =       1.32 minutes
	system time =       6.58 seconds =       0.11 minutes
	total time  =         20 seconds =       0.33 minutes

    Psi4 stopped on: Wednesday, 04 November 2020 09:12PM
    Psi4 wall time for execution: 0:00:19.84

*** Psi4 exiting successfully. Buy a developer a beer!
