opt=Tight                                                               
Freq      RMP2-FC                                                     6-31G(d)            
Number of atoms                            I               19
Info1-9                                    I   N=           9
          28          28        1002           0           0         100
           6           2           1
Charge                                     I               -1
Multiplicity                               I                1
Number of electrons                        I               82
Number of alpha electrons                  I               41
Number of beta electrons                   I               41
Number of basis functions                  I              159
Number of independent functions            I              159
Number of point charges in /Mol/           I                0
Number of translation vectors              I                0
Atomic numbers                             I   N=          19
          15           8           8           8           8           6
           6           6           6           1           1           1
           1           1           1           1           1           1
           1
Nuclear charges                            R   N=          19
  1.50000000E+01  8.00000000E+00  8.00000000E+00  8.00000000E+00  8.00000000E+00
  6.00000000E+00  6.00000000E+00  6.00000000E+00  6.00000000E+00  1.00000000E+00
  1.00000000E+00  1.00000000E+00  1.00000000E+00  1.00000000E+00  1.00000000E+00
  1.00000000E+00  1.00000000E+00  1.00000000E+00  1.00000000E+00
Current cartesian coordinates              R   N=          57
  1.62558760E-07  2.05469576E+00 -4.52584064E-08 -2.18532098E+00  5.77935977E-02
 -1.03489337E+00  2.18532092E+00  5.77933069E-02  1.03489338E+00  9.30586237E-01
  3.41884305E+00 -2.31996395E+00 -9.30585253E-01  3.41884334E+00  2.31996395E+00
 -3.39960068E+00 -1.50122074E+00  8.33435635E-01  3.39960028E+00 -1.50122128E+00
 -8.33435626E-01 -5.11424891E+00 -3.33463768E+00 -5.37523239E-01  5.11424821E+00
 -3.33463845E+00  5.37523294E-01 -1.96279553E+00 -2.51387119E+00  1.92853193E+00
 -4.47303551E+00 -3.05751906E-01  2.13748409E+00  1.96279489E+00 -2.51387150E+00
 -1.92853182E+00  4.47303526E+00 -3.05752659E-01 -2.13748416E+00 -6.09200861E+00
 -4.55250654E+00  8.17317831E-01 -6.52969048E+00 -2.31049197E+00 -1.63859990E+00
 -4.01761515E+00 -4.52553354E+00 -1.81964811E+00  6.09200764E+00 -4.55250754E+00
 -8.17317770E-01  6.52969000E+00 -2.31049296E+00  1.63859987E+00  4.01761429E+00
 -4.52553408E+00  1.81964825E+00
Force Field                                I                0
Int Atom Types                             I   N=          19
           0           0           0           0           0           0
           0           0           0           0           0           0
           0           0           0           0           0           0
           0
MM charges                                 R   N=          19
  0.00000000E+00  0.00000000E+00  0.00000000E+00  0.00000000E+00  0.00000000E+00
  0.00000000E+00  0.00000000E+00  0.00000000E+00  0.00000000E+00  0.00000000E+00
  0.00000000E+00  0.00000000E+00  0.00000000E+00  0.00000000E+00  0.00000000E+00
  0.00000000E+00  0.00000000E+00  0.00000000E+00  0.00000000E+00
Integer atomic weights                     I   N=          19
          31          16          16          16          16          12
          12          12          12           1           1           1
           1           1           1           1           1           1
           1
Real atomic weights                        R   N=          19
  3.09737634E+01  1.59949146E+01  1.59949146E+01  1.59949146E+01  1.59949146E+01
  1.20000000E+01  1.20000000E+01  1.20000000E+01  1.20000000E+01  1.00782504E+00
  1.00782504E+00  1.00782504E+00  1.00782504E+00  1.00782504E+00  1.00782504E+00
  1.00782504E+00  1.00782504E+00  1.00782504E+00  1.00782504E+00
Atom fragment info                         I   N=          19
           0           0           0           0           0           0
           0           0           0           0           0           0
           0           0           0           0           0           0
           0
Atom residue num                           I   N=          19
           0           0           0           0           0           0
           0           0           0           0           0           0
           0           0           0           0           0           0
           0
Nuclear spins                              I   N=          19
           1           0           0           0           0           0
           0           0           0           1           1           1
           1           1           1           1           1           1
           1
Nuclear ZEff                               R   N=          19
 -1.29400000E+01 -5.60000000E+00 -5.60000000E+00 -5.60000000E+00 -5.60000000E+00
 -3.60000000E+00 -3.60000000E+00 -3.60000000E+00 -3.60000000E+00 -1.00000000E+00
 -1.00000000E+00 -1.00000000E+00 -1.00000000E+00 -1.00000000E+00 -1.00000000E+00
 -1.00000000E+00 -1.00000000E+00 -1.00000000E+00 -1.00000000E+00
Nuclear QMom                               R   N=          19
  0.00000000E+00  0.00000000E+00  0.00000000E+00  0.00000000E+00  0.00000000E+00
  0.00000000E+00  0.00000000E+00  0.00000000E+00  0.00000000E+00  0.00000000E+00
  0.00000000E+00  0.00000000E+00  0.00000000E+00  0.00000000E+00  0.00000000E+00
  0.00000000E+00  0.00000000E+00  0.00000000E+00  0.00000000E+00
Nuclear GFac                               R   N=          19
  1.13160000E+00  0.00000000E+00  0.00000000E+00  0.00000000E+00  0.00000000E+00
  0.00000000E+00  0.00000000E+00  0.00000000E+00  0.00000000E+00  2.79284600E+00
  2.79284600E+00  2.79284600E+00  2.79284600E+00  2.79284600E+00  2.79284600E+00
  2.79284600E+00  2.79284600E+00  2.79284600E+00  2.79284600E+00
MicOpt                                     I   N=          19
          -1          -1          -1          -1          -1          -1
          -1          -1          -1          -1          -1          -1
          -1          -1          -1          -1          -1          -1
          -1
Number of contracted shells                I               57
Number of primitive shells                 I              145
Pure/Cartesian d shells                    I                1
Pure/Cartesian f shells                    I                0
Highest angular momentum                   I                2
Largest degree of contraction              I                6
Shell types                                I   N=          57
           0          -1          -1          -1           2           0
          -1          -1           2           0          -1          -1
           2           0          -1          -1           2           0
          -1          -1           2           0          -1          -1
           2           0          -1          -1           2           0
          -1          -1           2           0          -1          -1
           2           0           0           0           0           0
           0           0           0           0           0           0
           0           0           0           0           0           0
           0           0           0
Number of primitives per shell             I   N=          57
           6           6           3           1           1           6
           3           1           1           6           3           1
           1           6           3           1           1           6
           3           1           1           6           3           1
           1           6           3           1           1           6
           3           1           1           6           3           1
           1           3           1           3           1           3
           1           3           1           3           1           3
           1           3           1           3           1           3
           1           3           1
Shell to atom map                          I   N=          57
           1           1           1           1           1           2
           2           2           2           3           3           3
           3           4           4           4           4           5
           5           5           5           6           6           6
           6           7           7           7           7           8
           8           8           8           9           9           9
           9          10          10          11          11          12
          12          13          13          14          14          15
          15          16          16          17          17          18
          18          19          19
Primitive exponents                        R   N=         145
  1.94133000E+04  2.90942000E+03  6.61364000E+02  1.85759000E+02  5.91943000E+01
  2.00310000E+01  3.39478000E+02  8.10101000E+01  2.58780000E+01  9.45221000E+00
  3.66566000E+00  1.46746000E+00  2.15623000E+00  7.48997000E-01  2.83145000E-01
  9.98317000E-02  5.50000000E-01  5.48467166E+03  8.25234946E+02  1.88046958E+02
  5.29645000E+01  1.68975704E+01  5.79963534E+00  1.55396162E+01  3.59993359E+00
  1.01376175E+00  2.70005823E-01  8.00000000E-01  5.48467166E+03  8.25234946E+02
  1.88046958E+02  5.29645000E+01  1.68975704E+01  5.79963534E+00  1.55396162E+01
  3.59993359E+00  1.01376175E+00  2.70005823E-01  8.00000000E-01  5.48467166E+03
  8.25234946E+02  1.88046958E+02  5.29645000E+01  1.68975704E+01  5.79963534E+00
  1.55396162E+01  3.59993359E+00  1.01376175E+00  2.70005823E-01  8.00000000E-01
  5.48467166E+03  8.25234946E+02  1.88046958E+02  5.29645000E+01  1.68975704E+01
  5.79963534E+00  1.55396162E+01  3.59993359E+00  1.01376175E+00  2.70005823E-01
  8.00000000E-01  3.04752488E+03  4.57369518E+02  1.03948685E+02  2.92101553E+01
  9.28666296E+00  3.16392696E+00  7.86827235E+00  1.88128854E+00  5.44249258E-01
  1.68714478E-01  8.00000000E-01  3.04752488E+03  4.57369518E+02  1.03948685E+02
  2.92101553E+01  9.28666296E+00  3.16392696E+00  7.86827235E+00  1.88128854E+00
  5.44249258E-01  1.68714478E-01  8.00000000E-01  3.04752488E+03  4.57369518E+02
  1.03948685E+02  2.92101553E+01  9.28666296E+00  3.16392696E+00  7.86827235E+00
  1.88128854E+00  5.44249258E-01  1.68714478E-01  8.00000000E-01  3.04752488E+03
  4.57369518E+02  1.03948685E+02  2.92101553E+01  9.28666296E+00  3.16392696E+00
  7.86827235E+00  1.88128854E+00  5.44249258E-01  1.68714478E-01  8.00000000E-01
  1.87311370E+01  2.82539436E+00  6.40121692E-01  1.61277759E-01  1.87311370E+01
  2.82539436E+00  6.40121692E-01  1.61277759E-01  1.87311370E+01  2.82539436E+00
  6.40121692E-01  1.61277759E-01  1.87311370E+01  2.82539436E+00  6.40121692E-01
  1.61277759E-01  1.87311370E+01  2.82539436E+00  6.40121692E-01  1.61277759E-01
  1.87311370E+01  2.82539436E+00  6.40121692E-01  1.61277759E-01  1.87311370E+01
  2.82539436E+00  6.40121692E-01  1.61277759E-01  1.87311370E+01  2.82539436E+00
  6.40121692E-01  1.61277759E-01  1.87311370E+01  2.82539436E+00  6.40121692E-01
  1.61277759E-01  1.87311370E+01  2.82539436E+00  6.40121692E-01  1.61277759E-01
Contraction coefficients                   R   N=         145
  1.85159892E-03  1.42061917E-02  6.99994593E-02  2.40078860E-01  4.84761718E-01
  3.35199805E-01 -2.78217010E-03 -3.60499014E-02 -1.16631004E-01  9.68328036E-02
  6.14418023E-01  4.03798015E-01 -2.52924114E-01  3.28518447E-02  1.08125476E+00
  1.00000000E+00  1.00000000E+00  1.83107443E-03  1.39501722E-02  6.84450781E-02
  2.32714336E-01  4.70192898E-01  3.58520853E-01 -1.10777550E-01 -1.48026263E-01
  1.13076702E+00  1.00000000E+00  1.00000000E+00  1.83107443E-03  1.39501722E-02
  6.84450781E-02  2.32714336E-01  4.70192898E-01  3.58520853E-01 -1.10777550E-01
 -1.48026263E-01  1.13076702E+00  1.00000000E+00  1.00000000E+00  1.83107443E-03
  1.39501722E-02  6.84450781E-02  2.32714336E-01  4.70192898E-01  3.58520853E-01
 -1.10777550E-01 -1.48026263E-01  1.13076702E+00  1.00000000E+00  1.00000000E+00
  1.83107443E-03  1.39501722E-02  6.84450781E-02  2.32714336E-01  4.70192898E-01
  3.58520853E-01 -1.10777550E-01 -1.48026263E-01  1.13076702E+00  1.00000000E+00
  1.00000000E+00  1.83473713E-03  1.40373228E-02  6.88426223E-02  2.32184443E-01
  4.67941348E-01  3.62311985E-01 -1.19332420E-01 -1.60854152E-01  1.14345644E+00
  1.00000000E+00  1.00000000E+00  1.83473713E-03  1.40373228E-02  6.88426223E-02
  2.32184443E-01  4.67941348E-01  3.62311985E-01 -1.19332420E-01 -1.60854152E-01
  1.14345644E+00  1.00000000E+00  1.00000000E+00  1.83473713E-03  1.40373228E-02
  6.88426223E-02  2.32184443E-01  4.67941348E-01  3.62311985E-01 -1.19332420E-01
 -1.60854152E-01  1.14345644E+00  1.00000000E+00  1.00000000E+00  1.83473713E-03
  1.40373228E-02  6.88426223E-02  2.32184443E-01  4.67941348E-01  3.62311985E-01
 -1.19332420E-01 -1.60854152E-01  1.14345644E+00  1.00000000E+00  1.00000000E+00
  3.34946043E-02  2.34726953E-01  8.13757326E-01  1.00000000E+00  3.34946043E-02
  2.34726953E-01  8.13757326E-01  1.00000000E+00  3.34946043E-02  2.34726953E-01
  8.13757326E-01  1.00000000E+00  3.34946043E-02  2.34726953E-01  8.13757326E-01
  1.00000000E+00  3.34946043E-02  2.34726953E-01  8.13757326E-01  1.00000000E+00
  3.34946043E-02  2.34726953E-01  8.13757326E-01  1.00000000E+00  3.34946043E-02
  2.34726953E-01  8.13757326E-01  1.00000000E+00  3.34946043E-02  2.34726953E-01
  8.13757326E-01  1.00000000E+00  3.34946043E-02  2.34726953E-01  8.13757326E-01
  1.00000000E+00  3.34946043E-02  2.34726953E-01  8.13757326E-01  1.00000000E+00
P(S=P) Contraction coefficients            R   N=         145
  0.00000000E+00  0.00000000E+00  0.00000000E+00  0.00000000E+00  0.00000000E+00
  0.00000000E+00  4.56461619E-03  3.36935719E-02  1.39754883E-01  3.39361717E-01
  4.50920624E-01  2.38585801E-01 -1.77653127E-02  2.74058196E-01  7.85421563E-01
  1.00000000E+00  0.00000000E+00  0.00000000E+00  0.00000000E+00  0.00000000E+00
  0.00000000E+00  0.00000000E+00  0.00000000E+00  7.08742682E-02  3.39752839E-01
  7.27158577E-01  1.00000000E+00  0.00000000E+00  0.00000000E+00  0.00000000E+00
  0.00000000E+00  0.00000000E+00  0.00000000E+00  0.00000000E+00  7.08742682E-02
  3.39752839E-01  7.27158577E-01  1.00000000E+00  0.00000000E+00  0.00000000E+00
  0.00000000E+00  0.00000000E+00  0.00000000E+00  0.00000000E+00  0.00000000E+00
  7.08742682E-02  3.39752839E-01  7.27158577E-01  1.00000000E+00  0.00000000E+00
  0.00000000E+00  0.00000000E+00  0.00000000E+00  0.00000000E+00  0.00000000E+00
  0.00000000E+00  7.08742682E-02  3.39752839E-01  7.27158577E-01  1.00000000E+00
  0.00000000E+00  0.00000000E+00  0.00000000E+00  0.00000000E+00  0.00000000E+00
  0.00000000E+00  0.00000000E+00  6.89990666E-02  3.16423961E-01  7.44308291E-01
  1.00000000E+00  0.00000000E+00  0.00000000E+00  0.00000000E+00  0.00000000E+00
  0.00000000E+00  0.00000000E+00  0.00000000E+00  6.89990666E-02  3.16423961E-01
  7.44308291E-01  1.00000000E+00  0.00000000E+00  0.00000000E+00  0.00000000E+00
  0.00000000E+00  0.00000000E+00  0.00000000E+00  0.00000000E+00  6.89990666E-02
  3.16423961E-01  7.44308291E-01  1.00000000E+00  0.00000000E+00  0.00000000E+00
  0.00000000E+00  0.00000000E+00  0.00000000E+00  0.00000000E+00  0.00000000E+00
  6.89990666E-02  3.16423961E-01  7.44308291E-01  1.00000000E+00  0.00000000E+00
  0.00000000E+00  0.00000000E+00  0.00000000E+00  0.00000000E+00  0.00000000E+00
  0.00000000E+00  0.00000000E+00  0.00000000E+00  0.00000000E+00  0.00000000E+00
  0.00000000E+00  0.00000000E+00  0.00000000E+00  0.00000000E+00  0.00000000E+00
  0.00000000E+00  0.00000000E+00  0.00000000E+00  0.00000000E+00  0.00000000E+00
  0.00000000E+00  0.00000000E+00  0.00000000E+00  0.00000000E+00  0.00000000E+00
  0.00000000E+00  0.00000000E+00  0.00000000E+00  0.00000000E+00  0.00000000E+00
  0.00000000E+00  0.00000000E+00  0.00000000E+00  0.00000000E+00  0.00000000E+00
  0.00000000E+00  0.00000000E+00  0.00000000E+00  0.00000000E+00  0.00000000E+00
Coordinates of each shell                  R   N=         171
  1.62558760E-07  2.05469576E+00 -4.52584064E-08  1.62558760E-07  2.05469576E+00
 -4.52584064E-08  1.62558760E-07  2.05469576E+00 -4.52584064E-08  1.62558760E-07
  2.05469576E+00 -4.52584064E-08  1.62558760E-07  2.05469576E+00 -4.52584064E-08
 -2.18532098E+00  5.77935977E-02 -1.03489337E+00 -2.18532098E+00  5.77935977E-02
 -1.03489337E+00 -2.18532098E+00  5.77935977E-02 -1.03489337E+00 -2.18532098E+00
  5.77935977E-02 -1.03489337E+00  2.18532092E+00  5.77933069E-02  1.03489338E+00
  2.18532092E+00  5.77933069E-02  1.03489338E+00  2.18532092E+00  5.77933069E-02
  1.03489338E+00  2.18532092E+00  5.77933069E-02  1.03489338E+00  9.30586237E-01
  3.41884305E+00 -2.31996395E+00  9.30586237E-01  3.41884305E+00 -2.31996395E+00
  9.30586237E-01  3.41884305E+00 -2.31996395E+00  9.30586237E-01  3.41884305E+00
 -2.31996395E+00 -9.30585253E-01  3.41884334E+00  2.31996395E+00 -9.30585253E-01
  3.41884334E+00  2.31996395E+00 -9.30585253E-01  3.41884334E+00  2.31996395E+00
 -9.30585253E-01  3.41884334E+00  2.31996395E+00 -3.39960068E+00 -1.50122074E+00
  8.33435635E-01 -3.39960068E+00 -1.50122074E+00  8.33435635E-01 -3.39960068E+00
 -1.50122074E+00  8.33435635E-01 -3.39960068E+00 -1.50122074E+00  8.33435635E-01
  3.39960028E+00 -1.50122128E+00 -8.33435626E-01  3.39960028E+00 -1.50122128E+00
 -8.33435626E-01  3.39960028E+00 -1.50122128E+00 -8.33435626E-01  3.39960028E+00
 -1.50122128E+00 -8.33435626E-01 -5.11424891E+00 -3.33463768E+00 -5.37523239E-01
 -5.11424891E+00 -3.33463768E+00 -5.37523239E-01 -5.11424891E+00 -3.33463768E+00
 -5.37523239E-01 -5.11424891E+00 -3.33463768E+00 -5.37523239E-01  5.11424821E+00
 -3.33463845E+00  5.37523294E-01  5.11424821E+00 -3.33463845E+00  5.37523294E-01
  5.11424821E+00 -3.33463845E+00  5.37523294E-01  5.11424821E+00 -3.33463845E+00
  5.37523294E-01 -1.96279553E+00 -2.51387119E+00  1.92853193E+00 -1.96279553E+00
 -2.51387119E+00  1.92853193E+00 -4.47303551E+00 -3.05751906E-01  2.13748409E+00
 -4.47303551E+00 -3.05751906E-01  2.13748409E+00  1.96279489E+00 -2.51387150E+00
 -1.92853182E+00  1.96279489E+00 -2.51387150E+00 -1.92853182E+00  4.47303526E+00
 -3.05752659E-01 -2.13748416E+00  4.47303526E+00 -3.05752659E-01 -2.13748416E+00
 -6.09200861E+00 -4.55250654E+00  8.17317831E-01 -6.09200861E+00 -4.55250654E+00
  8.17317831E-01 -6.52969048E+00 -2.31049197E+00 -1.63859990E+00 -6.52969048E+00
 -2.31049197E+00 -1.63859990E+00 -4.01761515E+00 -4.52553354E+00 -1.81964811E+00
 -4.01761515E+00 -4.52553354E+00 -1.81964811E+00  6.09200764E+00 -4.55250754E+00
 -8.17317770E-01  6.09200764E+00 -4.55250754E+00 -8.17317770E-01  6.52969000E+00
 -2.31049296E+00  1.63859987E+00  6.52969000E+00 -2.31049296E+00  1.63859987E+00
  4.01761429E+00 -4.52553408E+00  1.81964825E+00  4.01761429E+00 -4.52553408E+00
  1.81964825E+00
Constraint Structure                       R   N=          57
  1.62558760E-07  2.05469576E+00 -4.52584064E-08 -2.18532098E+00  5.77935977E-02
 -1.03489337E+00  2.18532092E+00  5.77933069E-02  1.03489338E+00  9.30586237E-01
  3.41884305E+00 -2.31996395E+00 -9.30585253E-01  3.41884334E+00  2.31996395E+00
 -3.39960068E+00 -1.50122074E+00  8.33435635E-01  3.39960028E+00 -1.50122128E+00
 -8.33435626E-01 -5.11424891E+00 -3.33463768E+00 -5.37523239E-01  5.11424821E+00
 -3.33463845E+00  5.37523294E-01 -1.96279553E+00 -2.51387119E+00  1.92853193E+00
 -4.47303551E+00 -3.05751906E-01  2.13748409E+00  1.96279489E+00 -2.51387150E+00
 -1.92853182E+00  4.47303526E+00 -3.05752659E-01 -2.13748416E+00 -6.09200861E+00
 -4.55250654E+00  8.17317831E-01 -6.52969048E+00 -2.31049197E+00 -1.63859990E+00
 -4.01761515E+00 -4.52553354E+00 -1.81964811E+00  6.09200764E+00 -4.55250754E+00
 -8.17317770E-01  6.52969000E+00 -2.31049296E+00  1.63859987E+00  4.01761429E+00
 -4.52553408E+00  1.81964825E+00
Num ILSW                                   I              100
ILSW                                       I   N=         100
           0           1           0           0           2           0
           0           0           0           0           0          -1
           0           0           0           0           0           0
           0           0           0           0           1           0
           1           0           0           0           0           0
           0           0      100000           0          -1           0
           0           0           0           0           0           0
           0           0           0           1           1           0
           0           0           1           0           0           0
           0           0           4          40           0           0
           0           0           0           0           0           0
           0           0           0           0           0           0
           0           0           0           0           0           0
           0           0           0           0           0           0
           0           0           0           0           0           0
           0           0           0           0           0           0
           0           0           0           0
Num RLSW                                   I               40
RLSW                                       R   N=          40
  1.00000000E+00  1.00000000E+00  1.00000000E+00  1.00000000E+00  1.00000000E+00
  0.00000000E+00  0.00000000E+00  1.00000000E+00  0.00000000E+00  0.00000000E+00
  0.00000000E+00  0.00000000E+00  1.00000000E+00  0.00000000E+00  0.00000000E+00
  0.00000000E+00  0.00000000E+00  1.00000000E+00  0.00000000E+00  0.00000000E+00
  0.00000000E+00  0.00000000E+00  1.00000000E+00  0.00000000E+00  0.00000000E+00
  0.00000000E+00  0.00000000E+00  1.00000000E+00  0.00000000E+00  0.00000000E+00
  0.00000000E+00  0.00000000E+00  0.00000000E+00  0.00000000E+00  0.00000000E+00
  0.00000000E+00  0.00000000E+00  0.00000000E+00  1.00000000E+00  1.00000000E+00
MxBond                                     I                4
NBond                                      I   N=          19
           4           2           2           1           1           4
           4           4           4           1           1           1
           1           1           1           1           1           1
           1
IBond                                      I   N=          76
           2           3           4           5           1           6
           0           0           1           7           0           0
           1           0           0           0           1           0
           0           0           2           8          10          11
           3           9          12          13           6          14
          15          16           7          17          18          19
           6           0           0           0           6           0
           0           0           7           0           0           0
           7           0           0           0           8           0
           0           0           8           0           0           0
           8           0           0           0           9           0
           0           0           9           0           0           0
           9           0           0           0
RBond                                      R   N=          76
  1.00000000E+00  1.00000000E+00  2.00000000E+00  2.00000000E+00  1.00000000E+00
  1.00000000E+00  0.00000000E+00  0.00000000E+00  1.00000000E+00  1.00000000E+00
  0.00000000E+00  0.00000000E+00  2.00000000E+00  0.00000000E+00  0.00000000E+00
  0.00000000E+00  2.00000000E+00  0.00000000E+00  0.00000000E+00  0.00000000E+00
  1.00000000E+00  1.00000000E+00  1.00000000E+00  1.00000000E+00  1.00000000E+00
  1.00000000E+00  1.00000000E+00  1.00000000E+00  1.00000000E+00  1.00000000E+00
  1.00000000E+00  1.00000000E+00  1.00000000E+00  1.00000000E+00  1.00000000E+00
  1.00000000E+00  1.00000000E+00  0.00000000E+00  0.00000000E+00  0.00000000E+00
  1.00000000E+00  0.00000000E+00  0.00000000E+00  0.00000000E+00  1.00000000E+00
  0.00000000E+00  0.00000000E+00  0.00000000E+00  1.00000000E+00  0.00000000E+00
  0.00000000E+00  0.00000000E+00  1.00000000E+00  0.00000000E+00  0.00000000E+00
  0.00000000E+00  1.00000000E+00  0.00000000E+00  0.00000000E+00  0.00000000E+00
  1.00000000E+00  0.00000000E+00  0.00000000E+00  0.00000000E+00  1.00000000E+00
  0.00000000E+00  0.00000000E+00  0.00000000E+00  1.00000000E+00  0.00000000E+00
  0.00000000E+00  0.00000000E+00  1.00000000E+00  0.00000000E+00  0.00000000E+00
  0.00000000E+00
Virial Ratio                               R      2.002257821313617E+00
SCF Energy                                 R     -7.976995620836392E+02
MP2 Energy                                 R     -7.990554877505908E+02
Total Energy                               R     -7.990554877505908E+02
Post-SCF wavefunction norm                 R      1.680394409221362E+00
RMS Force                                  R      2.715286537541492E-06
RMS Density                                R      7.469599740979812E-10
External E-field                           R   N=          35
  0.00000000E+00  0.00000000E+00  0.00000000E+00  0.00000000E+00  0.00000000E+00
  0.00000000E+00  0.00000000E+00  0.00000000E+00  0.00000000E+00  0.00000000E+00
  0.00000000E+00  0.00000000E+00  0.00000000E+00  0.00000000E+00  0.00000000E+00
  0.00000000E+00  0.00000000E+00  0.00000000E+00  0.00000000E+00  0.00000000E+00
  0.00000000E+00  0.00000000E+00  0.00000000E+00  0.00000000E+00  0.00000000E+00
  0.00000000E+00  0.00000000E+00  0.00000000E+00  0.00000000E+00  0.00000000E+00
  0.00000000E+00  0.00000000E+00  0.00000000E+00  0.00000000E+00  0.00000000E+00
IOpCl                                      I                0
IROHF                                      I                0
Alpha Orbital Energies                     R   N=         159
 -8.00514065E+01 -2.05571583E+01 -2.05571440E+01 -2.04789827E+01 -2.04789666E+01
 -1.12720080E+01 -1.12720075E+01 -1.12126860E+01 -1.12126859E+01 -7.57144536E+00
 -5.47034737E+00 -5.46971232E+00 -5.46894519E+00 -1.38357771E+00 -1.33089138E+00
 -1.26300616E+00 -1.22678982E+00 -1.01279513E+00 -1.00764175E+00 -8.37570681E-01
 -8.35587500E-01 -7.43743760E-01 -6.76739431E-01 -6.58339448E-01 -6.29267542E-01
 -5.94958682E-01 -5.93199615E-01 -5.76226790E-01 -5.40759959E-01 -5.38574498E-01
 -5.26615406E-01 -5.23837826E-01 -5.08818885E-01 -4.92359955E-01 -4.76345816E-01
 -4.48291225E-01 -4.42564866E-01 -4.41028179E-01 -4.23764529E-01 -4.15408582E-01
 -4.00082873E-01  2.28287427E-01  2.66463340E-01  2.71610409E-01  2.93016615E-01
  2.98561013E-01  3.12873089E-01  3.15489600E-01  3.21135302E-01  3.35924350E-01
  3.36358485E-01  3.47356141E-01  3.63314306E-01  3.88637069E-01  3.90477520E-01
  4.09010395E-01  4.16895936E-01  4.45606572E-01  4.54982643E-01  5.53186088E-01
  5.74318810E-01  6.16803577E-01  6.60584158E-01  7.48757172E-01  7.61209473E-01
  7.61273698E-01  7.67484117E-01  7.89121374E-01  8.00105110E-01  8.19882817E-01
  8.66964570E-01  8.75138097E-01  9.33294148E-01  9.57233751E-01  9.67032355E-01
  9.92113150E-01  1.03406813E+00  1.09982046E+00  1.10527634E+00  1.12053779E+00
  1.13113055E+00  1.16025236E+00  1.16295203E+00  1.16901186E+00  1.17637537E+00
  1.19277616E+00  1.19423504E+00  1.22744953E+00  1.23137969E+00  1.25363892E+00
  1.27905120E+00  1.29953651E+00  1.33014392E+00  1.34542884E+00  1.37343716E+00
  1.38324036E+00  1.40635054E+00  1.42351165E+00  1.46102115E+00  1.50634904E+00
  1.50952916E+00  1.54138344E+00  1.58594798E+00  1.63583537E+00  1.69018673E+00
  1.72027359E+00  1.72051214E+00  1.75205881E+00  1.81328791E+00  1.81485192E+00
  1.86276758E+00  1.87027744E+00  1.97759371E+00  2.02083690E+00  2.08309196E+00
  2.09419884E+00  2.11765953E+00  2.15348864E+00  2.16291486E+00  2.16420296E+00
  2.20488719E+00  2.21506867E+00  2.25823479E+00  2.28266991E+00  2.29056142E+00
  2.31219627E+00  2.34167388E+00  2.36144042E+00  2.41042114E+00  2.44747070E+00
  2.46547981E+00  2.49117727E+00  2.51074159E+00  2.57210612E+00  2.59691954E+00
  2.64002753E+00  2.68753909E+00  2.68976981E+00  2.71571000E+00  2.72588854E+00
  2.75349100E+00  2.76906259E+00  2.90640373E+00  2.97908801E+00  3.01215823E+00
  3.05529321E+00  3.14057197E+00  3.18443635E+00  3.25560832E+00  3.29378061E+00
  3.93027173E+00  4.19466318E+00  4.24917900E+00  4.48469473E+00  4.49677119E+00
  4.63764186E+00  4.63814572E+00  4.83349108E+00  4.86849897E+00
Alpha MO coefficients                      R   N=       25281
  9.96427250E-01  1.34885424E-02 -9.60855124E-12 -5.10532174E-05 -1.81995562E-12
 -2.20050663E-02 -2.91277763E-11  8.06295248E-05 -1.32675809E-11  2.21732310E-03
 -9.92830221E-11 -1.79186517E-04 -3.19851282E-12  7.46551223E-03  7.44776957E-03
  7.44664746E-03 -1.66760916E-11  3.68235121E-05 -8.89682805E-12 -1.56495078E-05
 -7.82904333E-05 -3.40920971E-05 -3.20227869E-05 -5.15921228E-05  7.36060305E-04
  2.01591057E-04  1.80916755E-04  2.85659837E-04 -1.16335273E-04 -9.91604605E-05
 -4.12472902E-05 -5.67996955E-05 -5.44408249E-05 -5.50460126E-05 -1.56495056E-05
 -7.82904352E-05  3.40920925E-05 -3.20227965E-05  5.15921257E-05  7.36060339E-04
 -2.01591010E-04  1.80916795E-04 -2.85659839E-04 -1.16335254E-04 -9.91604654E-05
 -4.12472921E-05  5.67997065E-05 -5.44408197E-05  5.50460261E-05 -6.79903632E-06
 -9.77427513E-05  4.81667839E-05  6.29810718E-05 -1.29630905E-04  7.06736726E-04
 -1.49935568E-04 -1.94421746E-04  4.10910699E-04 -3.27976955E-05 -4.80497619E-05
 -1.06487283E-04 -3.03763901E-05  4.36461099E-05  6.37287997E-05 -6.79903331E-06
 -9.77427401E-05 -4.81667553E-05  6.29810859E-05  1.29630911E-04  7.06736667E-04
  1.49935495E-04 -1.94421782E-04 -4.10910702E-04 -3.27976580E-05 -4.80497695E-05
 -1.06487286E-04  3.03763796E-05  4.36460769E-05 -6.37288164E-05 -7.25275884E-06