opt=Tight                                                               
Freq      RMP2-FC                                                     6-31G(d)            
Number of atoms                            I               10
Info1-9                                    I   N=           9
          19          19        1002           0           0         100
           6           2           1
Charge                                     I               -1
Multiplicity                               I                1
Number of electrons                        I               40
Number of alpha electrons                  I               20
Number of beta electrons                   I               20
Number of basis functions                  I               85
Number of independent functions            I               85
Number of point charges in /Mol/           I                0
Number of translation vectors              I                0
Atomic numbers                             I   N=          10
           8           8           6           6           6           1
           1           1           1           1
Nuclear charges                            R   N=          10
  8.00000000E+00  8.00000000E+00  6.00000000E+00  6.00000000E+00  6.00000000E+00
  1.00000000E+00  1.00000000E+00  1.00000000E+00  1.00000000E+00  1.00000000E+00
Current cartesian coordinates              R   N=          30
 -3.32427538E+00 -1.18234487E+00 -2.00286779E-02 -1.12020247E+00  2.50081119E+00
  1.16972517E-02  1.17813814E+00 -1.42379819E+00  2.61271110E-02  3.58051575E+00
  1.58282327E-01 -1.97500012E-02 -1.30668422E+00  1.13050775E-01  1.56187900E-03
  1.14580562E+00 -2.64059398E+00  1.70595553E+00  1.13183199E+00 -2.72127035E+00
 -1.59115502E+00  3.64195642E+00  1.34043621E+00 -1.71154829E+00  3.65020468E+00
  1.42045893E+00  1.61221534E+00  5.27420603E+00 -1.03197085E+00  3.54991059E-03
Force Field                                I                0
Int Atom Types                             I   N=          10
           0           0           0           0           0           0
           0           0           0           0
MM charges                                 R   N=          10
  0.00000000E+00  0.00000000E+00  0.00000000E+00  0.00000000E+00  0.00000000E+00
  0.00000000E+00  0.00000000E+00  0.00000000E+00  0.00000000E+00  0.00000000E+00
Integer atomic weights                     I   N=          10
          16          16          12          12          12           1
           1           1           1           1
Real atomic weights                        R   N=          10
  1.59949146E+01  1.59949146E+01  1.20000000E+01  1.20000000E+01  1.20000000E+01
  1.00782504E+00  1.00782504E+00  1.00782504E+00  1.00782504E+00  1.00782504E+00
Atom fragment info                         I   N=          10
           0           0           0           0           0           0
           0           0           0           0
Atom residue num                           I   N=          10
           0           0           0           0           0           0
           0           0           0           0
Nuclear spins                              I   N=          10
           0           0           0           0           0           1
           1           1           1           1
Nuclear ZEff                               R   N=          10
 -5.60000000E+00 -5.60000000E+00 -3.60000000E+00 -3.60000000E+00 -3.60000000E+00
 -1.00000000E+00 -1.00000000E+00 -1.00000000E+00 -1.00000000E+00 -1.00000000E+00
Nuclear QMom                               R   N=          10
  0.00000000E+00  0.00000000E+00  0.00000000E+00  0.00000000E+00  0.00000000E+00
  0.00000000E+00  0.00000000E+00  0.00000000E+00  0.00000000E+00  0.00000000E+00
Nuclear GFac                               R   N=          10
  0.00000000E+00  0.00000000E+00  0.00000000E+00  0.00000000E+00  0.00000000E+00
  2.79284600E+00  2.79284600E+00  2.79284600E+00  2.79284600E+00  2.79284600E+00
MicOpt                                     I   N=          10
          -1          -1          -1          -1          -1          -1
          -1          -1          -1          -1
Number of contracted shells                I               30
Number of primitive shells                 I               75
Pure/Cartesian d shells                    I                1
Pure/Cartesian f shells                    I                0
Highest angular momentum                   I                2
Largest degree of contraction              I                6
Shell types                                I   N=          30
           0          -1          -1           2           0          -1
          -1           2           0          -1          -1           2
           0          -1          -1           2           0          -1
          -1           2           0           0           0           0
           0           0           0           0           0           0
Number of primitives per shell             I   N=          30
           6           3           1           1           6           3
           1           1           6           3           1           1
           6           3           1           1           6           3
           1           1           3           1           3           1
           3           1           3           1           3           1
Shell to atom map                          I   N=          30
           1           1           1           1           2           2
           2           2           3           3           3           3
           4           4           4           4           5           5
           5           5           6           6           7           7
           8           8           9           9          10          10
Primitive exponents                        R   N=          75
  5.48467166E+03  8.25234946E+02  1.88046958E+02  5.29645000E+01  1.68975704E+01
  5.79963534E+00  1.55396162E+01  3.59993359E+00  1.01376175E+00  2.70005823E-01
  8.00000000E-01  5.48467166E+03  8.25234946E+02  1.88046958E+02  5.29645000E+01
  1.68975704E+01  5.79963534E+00  1.55396162E+01  3.59993359E+00  1.01376175E+00
  2.70005823E-01  8.00000000E-01  3.04752488E+03  4.57369518E+02  1.03948685E+02
  2.92101553E+01  9.28666296E+00  3.16392696E+00  7.86827235E+00  1.88128854E+00
  5.44249258E-01  1.68714478E-01  8.00000000E-01  3.04752488E+03  4.57369518E+02
  1.03948685E+02  2.92101553E+01  9.28666296E+00  3.16392696E+00  7.86827235E+00
  1.88128854E+00  5.44249258E-01  1.68714478E-01  8.00000000E-01  3.04752488E+03
  4.57369518E+02  1.03948685E+02  2.92101553E+01  9.28666296E+00  3.16392696E+00
  7.86827235E+00  1.88128854E+00  5.44249258E-01  1.68714478E-01  8.00000000E-01
  1.87311370E+01  2.82539436E+00  6.40121692E-01  1.61277759E-01  1.87311370E+01
  2.82539436E+00  6.40121692E-01  1.61277759E-01  1.87311370E+01  2.82539436E+00
  6.40121692E-01  1.61277759E-01  1.87311370E+01  2.82539436E+00  6.40121692E-01
  1.61277759E-01  1.87311370E+01  2.82539436E+00  6.40121692E-01  1.61277759E-01
Contraction coefficients                   R   N=          75
  1.83107443E-03  1.39501722E-02  6.84450781E-02  2.32714336E-01  4.70192898E-01
  3.58520853E-01 -1.10777550E-01 -1.48026263E-01  1.13076702E+00  1.00000000E+00
  1.00000000E+00  1.83107443E-03  1.39501722E-02  6.84450781E-02  2.32714336E-01
  4.70192898E-01  3.58520853E-01 -1.10777550E-01 -1.48026263E-01  1.13076702E+00
  1.00000000E+00  1.00000000E+00  1.83473713E-03  1.40373228E-02  6.88426223E-02
  2.32184443E-01  4.67941348E-01  3.62311985E-01 -1.19332420E-01 -1.60854152E-01
  1.14345644E+00  1.00000000E+00  1.00000000E+00  1.83473713E-03  1.40373228E-02
  6.88426223E-02  2.32184443E-01  4.67941348E-01  3.62311985E-01 -1.19332420E-01
 -1.60854152E-01  1.14345644E+00  1.00000000E+00  1.00000000E+00  1.83473713E-03
  1.40373228E-02  6.88426223E-02  2.32184443E-01  4.67941348E-01  3.62311985E-01
 -1.19332420E-01 -1.60854152E-01  1.14345644E+00  1.00000000E+00  1.00000000E+00
  3.34946043E-02  2.34726953E-01  8.13757326E-01  1.00000000E+00  3.34946043E-02
  2.34726953E-01  8.13757326E-01  1.00000000E+00  3.34946043E-02  2.34726953E-01
  8.13757326E-01  1.00000000E+00  3.34946043E-02  2.34726953E-01  8.13757326E-01
  1.00000000E+00  3.34946043E-02  2.34726953E-01  8.13757326E-01  1.00000000E+00
P(S=P) Contraction coefficients            R   N=          75
  0.00000000E+00  0.00000000E+00  0.00000000E+00  0.00000000E+00  0.00000000E+00
  0.00000000E+00  7.08742682E-02  3.39752839E-01  7.27158577E-01  1.00000000E+00
  0.00000000E+00  0.00000000E+00  0.00000000E+00  0.00000000E+00  0.00000000E+00
  0.00000000E+00  0.00000000E+00  7.08742682E-02  3.39752839E-01  7.27158577E-01
  1.00000000E+00  0.00000000E+00  0.00000000E+00  0.00000000E+00  0.00000000E+00
  0.00000000E+00  0.00000000E+00  0.00000000E+00  6.89990666E-02  3.16423961E-01
  7.44308291E-01  1.00000000E+00  0.00000000E+00  0.00000000E+00  0.00000000E+00
  0.00000000E+00  0.00000000E+00  0.00000000E+00  0.00000000E+00  6.89990666E-02
  3.16423961E-01  7.44308291E-01  1.00000000E+00  0.00000000E+00  0.00000000E+00
  0.00000000E+00  0.00000000E+00  0.00000000E+00  0.00000000E+00  0.00000000E+00
  6.89990666E-02  3.16423961E-01  7.44308291E-01  1.00000000E+00  0.00000000E+00
  0.00000000E+00  0.00000000E+00  0.00000000E+00  0.00000000E+00  0.00000000E+00
  0.00000000E+00  0.00000000E+00  0.00000000E+00  0.00000000E+00  0.00000000E+00
  0.00000000E+00  0.00000000E+00  0.00000000E+00  0.00000000E+00  0.00000000E+00
  0.00000000E+00  0.00000000E+00  0.00000000E+00  0.00000000E+00  0.00000000E+00
Coordinates of each shell                  R   N=          90
 -3.32427538E+00 -1.18234487E+00 -2.00286779E-02 -3.32427538E+00 -1.18234487E+00
 -2.00286779E-02 -3.32427538E+00 -1.18234487E+00 -2.00286779E-02 -3.32427538E+00
 -1.18234487E+00 -2.00286779E-02 -1.12020247E+00  2.50081119E+00  1.16972517E-02
 -1.12020247E+00  2.50081119E+00  1.16972517E-02 -1.12020247E+00  2.50081119E+00
  1.16972517E-02 -1.12020247E+00  2.50081119E+00  1.16972517E-02  1.17813814E+00
 -1.42379819E+00  2.61271110E-02  1.17813814E+00 -1.42379819E+00  2.61271110E-02
  1.17813814E+00 -1.42379819E+00  2.61271110E-02  1.17813814E+00 -1.42379819E+00
  2.61271110E-02  3.58051575E+00  1.58282327E-01 -1.97500012E-02  3.58051575E+00
  1.58282327E-01 -1.97500012E-02  3.58051575E+00  1.58282327E-01 -1.97500012E-02
  3.58051575E+00  1.58282327E-01 -1.97500012E-02 -1.30668422E+00  1.13050775E-01
  1.56187900E-03 -1.30668422E+00  1.13050775E-01  1.56187900E-03 -1.30668422E+00
  1.13050775E-01  1.56187900E-03 -1.30668422E+00  1.13050775E-01  1.56187900E-03
  1.14580562E+00 -2.64059398E+00  1.70595553E+00  1.14580562E+00 -2.64059398E+00
  1.70595553E+00  1.13183199E+00 -2.72127035E+00 -1.59115502E+00  1.13183199E+00
 -2.72127035E+00 -1.59115502E+00  3.64195642E+00  1.34043621E+00 -1.71154829E+00
  3.64195642E+00  1.34043621E+00 -1.71154829E+00  3.65020468E+00  1.42045893E+00
  1.61221534E+00  3.65020468E+00  1.42045893E+00  1.61221534E+00  5.27420603E+00
 -1.03197085E+00  3.54991059E-03  5.27420603E+00 -1.03197085E+00  3.54991059E-03
Constraint Structure                       R   N=          30
 -3.32427538E+00 -1.18234487E+00 -2.00286779E-02 -1.12020247E+00  2.50081119E+00
  1.16972517E-02  1.17813814E+00 -1.42379819E+00  2.61271110E-02  3.58051575E+00
  1.58282327E-01 -1.97500012E-02 -1.30668422E+00  1.13050775E-01  1.56187900E-03
  1.14580562E+00 -2.64059398E+00  1.70595553E+00  1.13183199E+00 -2.72127035E+00
 -1.59115502E+00  3.64195642E+00  1.34043621E+00 -1.71154829E+00  3.65020468E+00
  1.42045893E+00  1.61221534E+00  5.27420603E+00 -1.03197085E+00  3.54991059E-03
Num ILSW                                   I              100
ILSW                                       I   N=         100
           0           1           0           0           2           0
           0           0           0           0           0          -1
           0           0           0           0           0           0
           0           0           0           0           1           0
           1           0           0           0           0           0
           0           0      100000           0          -1           0
           0           0           0           0           0           0
           0           0           0           1           1           0
           0           0           1           0           0           0
           0           0           4          40           0           0
           0           0           0           0           0           0
           0           0           0           0           0           0
           0           0           0           0           0           0
           0           0           0           0           0           0
           0           0           0           0           0           0
           0           0           0           0           0           0
           0           0           0           0
Num RLSW                                   I               40
RLSW                                       R   N=          40
  1.00000000E+00  1.00000000E+00  1.00000000E+00  1.00000000E+00  1.00000000E+00
  0.00000000E+00  0.00000000E+00  1.00000000E+00  0.00000000E+00  0.00000000E+00
  0.00000000E+00  0.00000000E+00  1.00000000E+00  0.00000000E+00  0.00000000E+00
  0.00000000E+00  0.00000000E+00  1.00000000E+00  0.00000000E+00  0.00000000E+00
  0.00000000E+00  0.00000000E+00  1.00000000E+00  0.00000000E+00  0.00000000E+00
  0.00000000E+00  0.00000000E+00  1.00000000E+00  0.00000000E+00  0.00000000E+00
  0.00000000E+00  0.00000000E+00  0.00000000E+00  0.00000000E+00  0.00000000E+00
  0.00000000E+00  0.00000000E+00  0.00000000E+00  1.00000000E+00  1.00000000E+00
MxBond                                     I                4
NBond                                      I   N=          10
           1           1           4           4           3           1
           1           1           1           1
IBond                                      I   N=          40
           5           0           0           0           5           0
           0           0           4           5           6           7
           3           8           9          10           1           2
           3           0           3           0           0           0
           3           0           0           0           4           0
           0           0           4           0           0           0
           4           0           0           0
RBond                                      R   N=          40
  2.00000000E+00  0.00000000E+00  0.00000000E+00  0.00000000E+00  2.00000000E+00
  0.00000000E+00  0.00000000E+00  0.00000000E+00  1.00000000E+00  1.00000000E+00
  1.00000000E+00  1.00000000E+00  1.00000000E+00  1.00000000E+00  1.00000000E+00
  1.00000000E+00  2.00000000E+00  2.00000000E+00  1.00000000E+00  0.00000000E+00
  1.00000000E+00  0.00000000E+00  0.00000000E+00  0.00000000E+00  1.00000000E+00
  0.00000000E+00  0.00000000E+00  0.00000000E+00  1.00000000E+00  0.00000000E+00
  0.00000000E+00  0.00000000E+00  1.00000000E+00  0.00000000E+00  0.00000000E+00
  0.00000000E+00  1.00000000E+00  0.00000000E+00  0.00000000E+00  0.00000000E+00
Virial Ratio                               R      2.002590161094855E+00
SCF Energy                                 R     -2.663642900131056E+02
MP2 Energy                                 R     -2.671095204075947E+02
Total Energy                               R     -2.671095204075947E+02
Post-SCF wavefunction norm                 R      1.567613979643751E+00
RMS Force                                  R      4.585774546901211E-05
RMS Density                                R      1.496742197442253E-09
External E-field                           R   N=          35
  0.00000000E+00  0.00000000E+00  0.00000000E+00  0.00000000E+00  0.00000000E+00
  0.00000000E+00  0.00000000E+00  0.00000000E+00  0.00000000E+00  0.00000000E+00
  0.00000000E+00  0.00000000E+00  0.00000000E+00  0.00000000E+00  0.00000000E+00
  0.00000000E+00  0.00000000E+00  0.00000000E+00  0.00000000E+00  0.00000000E+00
  0.00000000E+00  0.00000000E+00  0.00000000E+00  0.00000000E+00  0.00000000E+00
  0.00000000E+00  0.00000000E+00  0.00000000E+00  0.00000000E+00  0.00000000E+00
  0.00000000E+00  0.00000000E+00  0.00000000E+00  0.00000000E+00  0.00000000E+00
IOpCl                                      I                0
IROHF                                      I                0
Alpha Orbital Energies                     R   N=          85
 -2.04609677E+01 -2.04566213E+01 -1.13027706E+01 -1.12007532E+01 -1.11998100E+01
 -1.32378134E+00 -1.22233129E+00 -1.01155223E+00 -8.47001311E-01 -6.72999481E-01
 -5.99819704E-01 -5.98104442E-01 -5.65271127E-01 -5.16211128E-01 -5.11447501E-01
 -4.84013122E-01 -4.59557501E-01 -3.69323253E-01 -3.58919627E-01 -3.57278310E-01
  2.55916509E-01  2.60269685E-01  3.13135490E-01  3.27127723E-01  3.35193884E-01
  3.80521663E-01  4.31492873E-01  4.73563325E-01  5.32509278E-01  5.99938033E-01
  7.61448103E-01  7.70516570E-01  8.33526861E-01  8.79281070E-01  8.87482672E-01
  9.03879509E-01  9.66385156E-01  9.99579979E-01  1.01704641E+00  1.07775907E+00
  1.15502949E+00  1.16376531E+00  1.17863935E+00  1.19346749E+00  1.20795217E+00
  1.24531243E+00  1.25391813E+00  1.31462513E+00  1.32711544E+00  1.42230691E+00
  1.42305693E+00  1.46593507E+00  1.68138435E+00  1.77496527E+00  1.82399564E+00
  1.83878022E+00  1.85202992E+00  2.09179049E+00  2.10856849E+00  2.12539933E+00
  2.17218857E+00  2.19373671E+00  2.23687656E+00  2.24292687E+00  2.30243353E+00
  2.33067061E+00  2.35453971E+00  2.39671163E+00  2.50354521E+00  2.62721762E+00
  2.67619541E+00  2.67975214E+00  2.83513435E+00  2.84740535E+00  2.91145926E+00
  3.09450610E+00  3.23139773E+00  3.29899494E+00  3.38850448E+00  3.54262953E+00
  4.31848466E+00  4.57734295E+00  4.61188659E+00  4.76579919E+00  4.97549042E+00
Alpha MO coefficients                      R   N=        7225
 -3.76386957E-03 -1.40068457E-04  7.50738239E-06 -3.20138293E-05 -6.00855948E-08
  3.34696438E-04  1.59110775E-04  6.02011938E-05  1.46152846E-06  9.32192739E-05
 -1.06821971E-04 -6.18409473E-05 -8.35214942E-06  1.50058673E-06 -3.14859031E-07
  9.94679471E-01  2.09961084E-02 -1.10297743E-04 -1.26050312E-03 -5.42938841E-06
  4.20576556E-03  7.73388318E-06  1.56237043E-04 -2.77745840E-08 -3.89368987E-03
 -3.79001149E-03 -4.04631360E-03  1.22763419E-06  1.46531443E-06  1.10509935E-06
 -5.47045037E-06 -4.46487265E-06  1.41019392E-05 -3.34851635E-05  5.18871711E-07
  1.35655634E-04  1.07386067E-04  5.01275282E-05 -5.38548568E-06  3.99280110E-06
 -5.79900937E-05 -2.39965112E-05  4.36707042E-05 -6.81904965E-09  6.58880304E-08
  6.49510040E-06  4.01574616E-05 -1.64992279E-05  1.81519963E-05 -8.13156843E-07
 -1.33455412E-04  1.89407789E-04 -2.80836634E-05  3.56219661E-06 -6.47581309E-06
 -1.04745617E-07  4.55802025E-06 -9.11884970E-06  4.93899690E-07  2.48924174E-08
 -5.99496800E-06  5.05428334E-04  2.51422282E-05  1.48121850E-04  8.48929313E-07
 -4.37821227E-04  1.65709285E-04 -2.21298182E-04  1.75406283E-06 -7.76653858E-05
 -5.70715614E-04 -5.45039604E-05 -9.62716798E-05 -4.05132580E-07 -3.11187238E-06
  3.36756198E-06 -1.67548636E-05  2.83276819E-06 -2.08026843E-05  3.53279556E-05
 -2.87072173E-05  3.63937870E-05 -3.74620780E-05 -8.03232545E-06 -8.07141065E-05
  9.94679330E-01  2.09983872E-02  1.05820845E-03  6.86331089E-04  1.14128619E-05
  4.21732012E-03 -1.33264563E-04 -6.06912738E-05 -1.63774969E-06 -3.81432689E-03
 -3.87007314E-03 -4.03329256E-03  5.09231708E-05  2.21098466E-06  1.19593986E-06
  3.74154965E-03  3.04502912E-05  3.02717313E-05 -8.19763698E-07  4.41301834E-07
  2.92755358E-04  1.70698786E-05 -1.33234062E-04 -1.02612102E-06 -7.57427046E-05
  1.07857558E-05 -8.51381969E-05 -9.99256882E-05 -3.34695598E-07 -3.58123179E-07
 -4.05709276E-06  1.41031236E-05  2.91228176E-05 -4.16136596E-06  8.16308109E-07
  6.15590655E-05  1.65234406E-04  2.94661258E-05 -3.26363117E-06 -7.77395534E-05
  8.94639815E-06 -2.79352396E-05  3.85641270E-06 -9.85207308E-07 -3.40448077E-07
  5.76056167E-06  2.81154770E-05 -8.30941784E-06  3.16714430E-06  7.90471598E-08
 -1.91705090E-04  1.12346373E-04  6.38412584E-06 -6.31303978E-07  3.65936808E-07
  1.48029901E-05  8.54806563E-06  3.45288516E-06  2.37607582E-08 -3.83556628E-07
 -6.42323907E-06  5.04702272E-04 -1.21039307E-04 -9.65259167E-05 -1.33207851E-06
 -3.55127625E-04  3.29075346E-04 -2.18703279E-05  4.13176014E-06 -3.93911476E-04
 -2.42643098E-04 -5.66892289E-05 -2.95772233E-04 -4.13705887E-06 -3.44381245E-06
  1.30713013E-05 -3.35100989E-05  1.31321447E-05 -3.79411136E-05  1.50032091E-05
  8.49177744E-06  1.55184389E-05  7.50203322E-06  2.54703630E-06 -3.22198118E-05
 -1.90874533E-04  5.50752694E-04  1.09012297E-04  1.69885989E-04  1.54058320E-06
 -2.19099678E-03 -1.01382262E-03 -1.46557700E-03 -1.21830740E-05 -1.14629190E-04
  9.28811114E-06  4.14073591E-04 -3.00479395E-04 -6.11879971E-06 -3.48889358E-06
 -2.00752816E-04  5.13761016E-04 -8.76531783E-05 -1.73530975E-04 -2.31355599E-06
 -1.94762113E-03  8.05013526E-04  1.49738156E-03  1.68522397E-05  1.71098861E-04
 -3.04326420E-04  4.01651482E-04 -1.11531415E-04 -2.58623667E-06 -4.74015918E-06
  2.54545623E-03  1.88188926E-04  3.79385037E-05 -6.67410776E-05  1.63291983E-06
  3.38610716E-03 -2.00766907E-03  1.02618949E-03 -1.67913211E-05 -4.61257123E-04
 -2.77673061E-04 -1.25246175E-04  1.54792514E-04 -2.53256582E-06  2.78558494E-06
 -9.01815458E-05 -2.34362559E-04  1.42487208E-04 -2.86409457E-05 -1.16199367E-07
  5.87543719E-04 -6.25801172E-04  1.54989612E-05  5.87209248E-06 -1.03515493E-06
 -1.58285974E-05 -1.02278372E-04  2.07188662E-05 -1.25171799E-06 -2.32688938E-06
  9.95943092E-01  2.57078768E-02 -3.04904578E-04  1.97766762E-04 -1.34260851E-06
 -6.01979507E-03 -3.61600639E-03  2.00508086E-03 -3.28134540E-05 -1.02959465E-03
 -5.57168895E-04 -2.18803964E-03  5.18533325E-04  1.39686845E-05  1.05739444E-05
 -1.59615568E-04  2.77386476E-04 -1.57329189E-04  2.70748625E-04 -8.59568484E-05
 -9.49810965E-06 -8.27372727E-05 -2.32104808E-05  4.79696852E-06  3.58001388E-04
 -7.34447646E-05 -4.01089253E-04 -6.19100604E-05 -1.17526339E-05 -1.51666539E-06
  1.79037546E-03  4.05217680E-04  4.11638106E-04  9.50613011E-06 -1.11941192E-04
 -1.59893960E-04 -3.35442935E-04  3.03624431E-05  3.92964409E-06  1.04647049E-07
 -1.19951993E-05 -1.23684048E-04 -1.57265637E-05  4.74590845E-05 -9.05877608E-07
 -9.34825056E-05 -3.37734695E-04 -7.37541485E-05  7.17042708E-07  7.59025389E-06
  4.15789173E-05 -1.73986296E-04  3.73215347E-05  2.65560905E-06  1.75280140E-07
  9.35391283E-01  2.69221346E-02  1.17738938E-04 -5.38331918E-05  7.91449742E-06
 -1.53517432E-02  5.32540769E-04 -6.73561625E-04 -8.88365942E-06 -1.65800624E-03
 -1.67543023E-03 -1.52120853E-03 -3.27485714E-05  2.36775277E-06  4.21936209E-06
  3.41382141E-01  9.79712486E-03 -8.79165251E-05 -3.65224905E-06 -4.82325484E-07
 -1.16159098E-03 -1.22589665E-03 -9.81799611E-04  3.20405062E-05 -9.73787390E-04
 -8.71741124E-04 -7.02694372E-04 -2.11819322E-04  5.40504320E-06  5.32451254E-06
 -2.68646828E-03 -1.28008737E-04  1.11834553E-04 -6.00845188E-05  1.24666148E-06
  3.38683941E-03  2.78626064E-03 -4.05969843E-04  2.09051111E-05 -4.16990465E-04
 -3.30672940E-04 -1.92669512E-04  1.25778624E-04 -2.91400107E-06  1.25208261E-06
  1.58973082E-04  2.56132459E-03  1.56975250E-04  2.54603651E-03 -9.28446476E-05
  9.34148761E-04 -9.36844881E-05  9.34164554E-04 -1.07634252E-04  6.89067726E-04
 -2.00258413E-05 -5.07347620E-05  1.00898881E-05  4.53965378E-06 -6.76365830E-07
  3.93155729E-04  2.00779699E-04  2.20759751E-05  2.57628186E-06 -3.14380228E-05
 -7.32122047E-05 -3.33073886E-05  3.18738793E-05 -1.03634847E-07 -4.41527875E-07
 -6.15756755E-05 -2.40849737E-04 -7.17313876E-05  3.31063670E-05  3.40733958E-06
  1.30858124E-03  2.77583878E-04 -4.43153339E-04 -1.18392492E-05 -1.78610542E-04
 -1.37469511E-04 -2.19958405E-04 -4.39067294E-05 -3.59366697E-06  1.53561876E-06
 -3.41701270E-01 -9.80570004E-03 -4.96518830E-05  3.61095801E-05 -1.16823676E-06
  9.90710980E-03  1.44640159E-03  1.45415618E-03 -4.35720433E-05  2.01357942E-04
  3.73975423E-04  4.42192799E-04 -1.90608525E-04  4.91633085E-06  2.36856911E-06
  9.35411720E-01  2.66797837E-02 -6.56823569E-06 -4.49475528E-06 -2.27346429E-06
 -1.59004528E-02  1.36161595E-03  5.88090192E-04 -1.48430426E-05 -1.58610065E-03
 -1.59774205E-03 -1.66367631E-03  3.60484592E-05 -1.29654823E-06 -1.91321183E-06
  1.00380779E-03 -9.80090691E-05 -8.00113725E-05 -2.93542393E-05  1.24981041E-07
 -2.36220430E-03 -8.06154376E-04  3.72163397E-05 -9.59786746E-07  9.03953289E-05
  3.89905297E-05  1.16388974E-05 -9.55343579E-05 -8.20867910E-07 -2.51641161E-06
 -2.24798583E-04 -8.60943949E-04 -2.24780819E-04 -8.70379421E-04  2.22261024E-04
  2.44841797E-03  2.24988226E-04  2.44012123E-03  1.46313210E-04  2.31712748E-03
 -1.29454520E-01  2.82603462E-01  7.43294674E-02  5.36966134E-02  8.32089933E-04
  2.69106632E-01  2.80324226E-02  2.62024555E-02  3.34213668E-04  7.82404013E-03
  3.87958992E-03 -6.75455797E-04  9.43312784E-03  1.19222921E-04  9.70848709E-05
 -1.34226131E-01  2.92957742E-01 -1.22186877E-02 -9.34999778E-02 -4.16305440E-04
  2.80491064E-01 -9.65483497E-03 -3.83512459E-02 -2.23096150E-04 -2.29686650E-03
  1.39076146E-02 -8.44669404E-04  3.24985512E-03 -1.53505114E-06  8.76581584E-05
 -2.24704291E-02  4.27349286E-02 -2.56320270E-02  1.66604064E-02 -2.54921021E-04
  1.01572939E-02  4.61276514E-03  1.20125004E-03 -2.41506500E-05  6.39276012E-03
  2.41588511E-03 -3.60793151E-06 -4.99028210E-03  6.93815656E-05 -5.63349247E-05
 -5.68584186E-03  1.25085572E-02 -7.96313712E-03 -1.10395790E-03  9.94184180E-05
 -9.79634075E-04  2.79878485E-03 -6.03864652E-04 -6.97809322E-05  1.63419413E-03
  6.46204737E-04  4.00607598E-04  4.02776063E-04 -2.15661331E-05 -9.63697849E-06
 -1.31244301E-01  2.51681448E-01 -6.97298918E-02  4.59406303E-02 -3.81821136E-04
  7.72105478E-02  2.29903044E-02 -1.50776882E-02  1.68910004E-04  2.89132135E-05
  1.78579712E-02 -2.07654688E-02  1.78304343E-02  2.74938204E-04  3.00393698E-04
  8.97337065E-03  1.70692969E-03  9.02949808E-03  1.60522007E-03  3.43583411E-03
  2.19454162E-03  3.50655291E-03  2.31703920E-03  1.54247157E-03 -1.40461023E-03
 -1.53932664E-01  3.30805195E-01  6.81348924E-02  2.86981099E-02  6.82472359E-04
  3.56636604E-01  3.15371301E-02  8.96821864E-03  3.04659425E-04  6.88857845E-03
 -2.27337461E-03 -3.07065916E-03  4.46721807E-03  1.15939687E-04  3.92225709E-05
  1.49795332E-01 -3.22487110E-01 -7.51905418E-03  7.07556924E-02  1.80223835E-04
 -3.46634354E-01 -6.05430062E-03  3.03860116E-02  4.23997761E-05  3.23389420E-03
 -7.77470296E-03  2.87178227E-03  1.98705465E-03  5.95249389E-06 -2.78071448E-05
 -3.04528763E-04  9.45495429E-04 -8.17592801E-03 -1.14583301E-02 -7.50751360E-05
  8.07543002E-05 -1.23021483E-02 -6.69927545E-03 -3.05568487E-04  1.87606070E-03
 -1.87705515E-03  6.70694499E-04  5.84839841E-04  5.03712739E-05  4.55849978E-05
  4.47919179E-03 -7.62094450E-03  3.58716336E-03 -1.03757975E-03 -7.42194157E-05
  1.88238722E-03  4.94875392E-03 -5.33855885E-03  2.70411035E-04 -1.00478862E-03
  4.84988999E-05 -9.44161325E-05  3.43316487E-04  2.57286981E-06 -1.35089876E-05
 -2.11570418E-03  4.65023300E-03 -1.26798622E-01 -2.09547169E-01 -1.80338887E-03
 -3.38920913E-03  7.63055778E-03  1.80465409E-02  1.25473527E-04  2.49936987E-02
 -2.47754128E-02 -2.66372807E-04  1.58014918E-02  3.03697232E-04  2.50482876E-05
  2.47401314E-03  2.45453751E-03  2.66764225E-03  2.37811973E-03 -2.57448472E-03
 -2.28103915E-03 -2.70166404E-03 -2.49236165E-03 -1.68713567E-03 -4.00272489E-03
  2.45769218E-02 -5.17159347E-02  1.31324175E-02 -1.64785338E-02  8.73195426E-05
 -7.28003946E-02  3.19795991E-03 -7.54664396E-03 -2.43976958E-05  1.98663481E-03
 -9.15474852E-04  9.98064220E-04 -1.09137332E-03  6.27504235E-07 -1.78250535E-05
  3.14644837E-02 -6.83666773E-02  2.58909980E-02 -2.59123409E-03  1.82015868E-04
 -8.28623655E-02  1.12275374E-02 -1.04842875E-03  5.43539021E-05  1.54579523E-04
  6.63150730E-05  6.62267301E-04 -2.37729726E-03 -1.27770541E-05 -1.78244530E-05
 -1.46754055E-01  2.72533403E-01  4.15019969E-02  2.90064228E-02 -7.06318232E-04
  2.50151799E-01  1.10449715E-02  6.59007094E-03 -1.77869025E-04  7.93067341E-03
  5.48147811E-03  4.63050128E-03  5.77787949E-03 -1.56852853E-04 -7.33019271E-05
 -1.37906497E-01  2.57268724E-01 -4.99810387E-02 -3.26367049E-02  9.58338968E-04
  2.16626316E-01  1.17340879E-03 -5.39851207E-03  1.04883123E-04  9.71708706E-03
  6.33545622E-03  4.01073198E-03  4.74119115E-03 -1.32667775E-04 -8.65945211E-05
 -2.18233151E-02  4.75571232E-02  9.59082066E-02 -6.08108474E-02  6.86889286E-04
  2.99126556E-02  7.95496559E-03 -1.13236395E-02  9.54305620E-05  9.26116019E-03
 -3.54800353E-03 -7.61138905E-04 -1.04512619E-02  8.53416968E-05 -1.27400275E-04
  8.59366920E-02  1.77758952E-02  8.57983703E-02  1.75844571E-02  8.01837677E-02
  1.71569550E-02  8.01874862E-02  1.70129409E-02  7.98764054E-02  1.44826644E-02
 -3.97704274E-02  8.44359635E-02 -5.67386505E-02  1.63135050E-02 -7.42449475E-04
  1.30208159E-01 -2.62270290E-02  6.01093911E-03 -3.17359298E-04 -5.96164976E-03
  7.36054985E-04 -1.11328940E-03 -5.66894194E-04 -7.28872887E-05 -1.04281494E-05
 -2.47960418E-02  5.51856628E-02 -2.27271877E-02  3.47993631E-02 -5.06017876E-04
  7.34259298E-02 -9.91180214E-03  2.04904601E-02 -2.03573185E-04  1.51817944E-03
 -3.10974305E-03  3.67876377E-04  2.39585210E-03  1.88518433E-05  3.93300771E-05
  1.06607971E-01 -2.00642848E-01  1.31671601E-01  5.43814271E-02 -1.99817525E-03
 -2.34072452E-01  3.06900088E-02  1.60076245E-02 -5.77545585E-04  4.31712195E-03
 -3.39386598E-03 -1.04796954E-02  1.30519667E-02 -3.12971604E-04 -2.14839061E-04
 -1.32911126E-01  2.46138938E-01  8.91770430E-02  5.44306531E-02 -1.66585329E-03