
    -----------------------------------------------------------------------
          Psi4: An Open-Source Ab Initio Electronic Structure Package
                               Psi4 1.3.2 release

                         Git: Rev {HEAD} ecbda83 


    R. M. Parrish, L. A. Burns, D. G. A. Smith, A. C. Simmonett,
    A. E. DePrince III, E. G. Hohenstein, U. Bozkaya, A. Yu. Sokolov,
    R. Di Remigio, R. M. Richard, J. F. Gonthier, A. M. James,
    H. R. McAlexander, A. Kumar, M. Saitow, X. Wang, B. P. Pritchard,
    P. Verma, H. F. Schaefer III, K. Patkowski, R. A. King, E. F. Valeev,
    F. A. Evangelista, J. M. Turney, T. D. Crawford, and C. D. Sherrill,
    J. Chem. Theory Comput. 13(7) pp 3185--3197 (2017).
    (doi: 10.1021/acs.jctc.7b00174)


                         Additional Contributions by
    P. Kraus, H. Kruse, M. H. Lechner, M. C. Schieber, R. A. Shaw,
    A. Alenaizan, R. Galvelis, Z. L. Glick, S. Lehtola, and J. P. Misiewicz

    -----------------------------------------------------------------------


    Psi4 started on: Friday, 06 November 2020 02:39PM

    Process ID: 52563
    Host:       node142.bme.utexas.edu
    PSIDATADIR: /home/xy3866/psi4conda/share/psi4
    Memory:     500.0 MiB
    Threads:    8
    
  ==> Input File <==

--------------------------------------------------------------------------
#psi4
#
memory 32 gb

molecule  {
0 1
  S        0.0075120    -0.6017700    -0.4647820
  O       -0.2556540    -1.7702980     0.4735910
  C        1.3779134     0.3682732     0.2630086
  C       -1.3599780     0.5918880    -0.1703300
  C        1.6769310     1.6120600    -0.5173330
  C        2.6097720    -0.6313220     0.2113700
  C       -1.5067950     0.9141520     1.3098910
  C       -2.6139080    -0.0830010    -0.7222500
  H        1.1570860     0.5207480     1.2929140
  H       -1.1279560     1.4843500    -0.7624060
  H        2.6215010     2.0509850    -0.1820230
  H        1.7648060     1.4175290    -1.5917240
  H        0.8915690     2.3560060    -0.3630760
  H        2.3687620    -1.5630840     0.7275380
  H        3.4693700    -0.1669570     0.7037260
  H        2.8902180    -0.8648860    -0.8210400
  H       -2.4734110     1.3924490     1.4942360
  H       -1.4657670    -0.0174870     1.8826360
  H       -0.7265980     1.5882150     1.6720380
  H       -2.5077070    -0.3221910    -1.7846410
  H       -3.4761370     0.5791400    -0.6026570
  H       -2.8041960    -1.0106880    -0.1761720
units angstrom
no_reorient  #important for SAPT in psi4, default
symmetry c1  #important for SAPT in psi4, default
}

set PROPERTIES_ORIGIN ["COM"]
properties('MP2/aug-cc-pvtz', properties = ['dipole'])
--------------------------------------------------------------------------

  Memory set to  29.802 GiB by Python driver.
    SCF Algorithm Type (re)set to DF.

*** tstart() called on node142.bme.utexas.edu
*** at Fri Nov  6 14:39:57 2020

   => Loading Basis Set <=

    Name: AUG-CC-PVTZ
    Role: ORBITAL
    Keyword: BASIS
    atoms 1    entry S          line   902 file /home/xy3866/psi4conda/share/psi4/basis/aug-cc-pvtz.gbs 
    atoms 2    entry O          line   327 file /home/xy3866/psi4conda/share/psi4/basis/aug-cc-pvtz.gbs 
    atoms 3-8  entry C          line   235 file /home/xy3866/psi4conda/share/psi4/basis/aug-cc-pvtz.gbs 
    atoms 9-22 entry H          line    36 file /home/xy3866/psi4conda/share/psi4/basis/aug-cc-pvtz.gbs 


         ---------------------------------------------------------
                                   SCF
               by Justin Turney, Rob Parrish, Andy Simmonett
                          and Daniel G. A. Smith
                              RHF Reference
                        8 Threads,  30517 MiB Core
         ---------------------------------------------------------

  ==> Geometry <==

    Molecular point group: c1
    Full point group: C1

    Geometry (in Angstrom), charge = 0, multiplicity = 1:

       Center              X                  Y                   Z               Mass       
    ------------   -----------------  -----------------  -----------------  -----------------
         S            0.015385669501    -0.551137600979    -0.455147852167    31.972071174400
         O           -0.247780330499    -1.719665600979     0.483225147833    15.994914619570
         C            1.385787069501     0.418905599021     0.272642747833    12.000000000000
         C           -1.352104330499     0.642520399021    -0.160695852167    12.000000000000
         C            1.684804669501     1.662692399021    -0.507698852167    12.000000000000
         C            2.617645669501    -0.580689600979     0.221004147833    12.000000000000
         C           -1.498921330499     0.964784399021     1.319525147833    12.000000000000
         C           -2.606034330499    -0.032368600979    -0.712615852167    12.000000000000
         H            1.164959669501     0.571380399021     1.302548147833     1.007825032230
         H           -1.120082330499     1.534982399021    -0.752771852167     1.007825032230
         H            2.629374669501     2.101617399021    -0.172388852167     1.007825032230
         H            1.772679669501     1.468161399021    -1.582089852167     1.007825032230
         H            0.899442669501     2.406638399021    -0.353441852167     1.007825032230
         H            2.376635669501    -1.512451600979     0.737172147833     1.007825032230
         H            3.477243669501    -0.116324600979     0.713360147833     1.007825032230
         H            2.898091669501    -0.814253600979    -0.811405852167     1.007825032230
         H           -2.465537330499     1.443081399021     1.503870147833     1.007825032230
         H           -1.457893330499     0.033145399021     1.892270147833     1.007825032230
         H           -0.718724330499     1.638847399021     1.681672147833     1.007825032230
         H           -2.499833330499    -0.271558600979    -1.775006852167     1.007825032230
         H           -3.468263330499     0.629772399021    -0.593022852167     1.007825032230
         H           -2.796322330499    -0.960055600979    -0.166537852167     1.007825032230

  Running in c1 symmetry.

  Rotational constants: A =      0.08512  B =      0.04142  C =      0.03493 [cm^-1]
  Rotational constants: A =   2551.98013  B =   1241.87897  C =   1047.25543 [MHz]
  Nuclear repulsion =  513.354438005127804

  Charge       = 0
  Multiplicity = 1
  Electrons    = 74
  Nalpha       = 37
  Nbeta        = 37

  ==> Algorithm <==

  SCF Algorithm Type is DF.
  DIIS enabled.
  MOM disabled.
  Fractional occupation disabled.
  Guess Type is SAD.
  Energy threshold   = 1.00e-10
  Density threshold  = 1.00e-10
  Integral threshold = 0.00e+00

  ==> Primary Basis <==

  Basis Set: AUG-CC-PVTZ
    Blend: AUG-CC-PVTZ
    Number of shells: 240
    Number of basis function: 694
    Number of Cartesian functions: 794
    Spherical Harmonics?: true
    Max angular momentum: 3

   => Loading Basis Set <=

    Name: (AUG-CC-PVTZ AUX)
    Role: JKFIT
    Keyword: DF_BASIS_SCF
    atoms 1    entry S          line   730 file /home/xy3866/psi4conda/share/psi4/basis/aug-cc-pvtz-jkfit.gbs 
    atoms 2    entry O          line   286 file /home/xy3866/psi4conda/share/psi4/basis/aug-cc-pvtz-jkfit.gbs 
    atoms 3-8  entry C          line   162 file /home/xy3866/psi4conda/share/psi4/basis/aug-cc-pvtz-jkfit.gbs 
    atoms 9-22 entry H          line    70 file /home/xy3866/psi4conda/share/psi4/basis/aug-cc-pvtz-jkfit.gbs 

  ==> Pre-Iterations <==

   -------------------------------------------------------
    Irrep   Nso     Nmo     Nalpha   Nbeta   Ndocc  Nsocc
   -------------------------------------------------------
     A        694     694       0       0       0       0
   -------------------------------------------------------
    Total     694     694      37      37      37       0
   -------------------------------------------------------

  ==> Integral Setup <==

  DFHelper Memory: AOs need 5.337 GiB; user supplied 22.352 GiB. Using in-core AOs.

  ==> MemDFJK: Density-Fitted J/K Matrices <==

    J tasked:                   Yes
    K tasked:                   Yes
    wK tasked:                   No
    OpenMP threads:               8
    Memory [MiB]:             22888
    Algorithm:                 Disk
    Schwarz Cutoff:           1E-12
    Mask sparsity (%):       4.6454
    Fitting Condition:        1E-10

   => Auxiliary Basis Set <=

  Basis Set: (AUG-CC-PVTZ AUX)
    Blend: AUG-CC-PVTZ-JKFIT
    Number of shells: 448
    Number of basis function: 1518
    Number of Cartesian functions: 1867
    Spherical Harmonics?: true
    Max angular momentum: 4

  Minimum eigenvalue in the overlap matrix is 2.8714672498E-06.
  Using Symmetric Orthogonalization.

  SCF Guess: Superposition of Atomic Densities via on-the-fly atomic UHF.

  ==> Iterations <==

                           Total Energy        Delta E     RMS |[F,P]|

   @DF-RHF iter SAD:  -707.48951740112966   -7.07490e+02   0.00000e+00 
   @DF-RHF iter   1:  -707.46074224793188    2.87752e-02   1.17928e-03 DIIS
   @DF-RHF iter   2:  -707.74478134713979   -2.84039e-01   6.63971e-04 DIIS
   @DF-RHF iter   3:  -707.83051698878342   -8.57356e-02   1.48870e-04 DIIS
   @DF-RHF iter   4:  -707.83616862268309   -5.65163e-03   5.99312e-05 DIIS
   @DF-RHF iter   5:  -707.83722553177961   -1.05691e-03   1.11527e-05 DIIS
   @DF-RHF iter   6:  -707.83726691339052   -4.13816e-05   3.10831e-06 DIIS
   @DF-RHF iter   7:  -707.83727112125052   -4.20786e-06   8.43551e-07 DIIS
   @DF-RHF iter   8:  -707.83727149571121   -3.74461e-07   2.73331e-07 DIIS
   @DF-RHF iter   9:  -707.83727155387055   -5.81593e-08   1.00518e-07 DIIS
   @DF-RHF iter  10:  -707.83727156118846   -7.31791e-09   3.29477e-08 DIIS
   @DF-RHF iter  11:  -707.83727156194095   -7.52493e-10   9.06337e-09 DIIS
   @DF-RHF iter  12:  -707.83727156199393   -5.29781e-11   3.43690e-09 DIIS
   @DF-RHF iter  13:  -707.83727156199461   -6.82121e-13   1.25140e-09 DIIS
   @DF-RHF iter  14:  -707.83727156199700   -2.38742e-12   4.65040e-10 DIIS
   @DF-RHF iter  15:  -707.83727156199450    2.50111e-12   1.47414e-10 DIIS
   @DF-RHF iter  16:  -707.83727156199473   -2.27374e-13   4.93480e-11 DIIS
  Energy and wave function converged.


  ==> Post-Iterations <==

    Orbital Energies [Eh]
    ---------------------

    Doubly Occupied:                                                      

       1A    -92.053190     2A    -20.496133     3A    -11.266670  
       4A    -11.265505     5A    -11.238935     6A    -11.227194  
       7A    -11.225937     8A    -11.225075     9A     -9.041032  
      10A     -6.722510    11A     -6.722229    12A     -6.721029  
      13A     -1.314842    14A     -1.109486    15A     -1.076585  
      16A     -0.947445    17A     -0.944582    18A     -0.921496  
      19A     -0.819462    20A     -0.760522    21A     -0.669083  
      22A     -0.640828    23A     -0.619740    24A     -0.612965  
      25A     -0.580413    26A     -0.572946    27A     -0.554268  
      28A     -0.551970    29A     -0.530931    30A     -0.521685  
      31A     -0.513059    32A     -0.506034    33A     -0.491044  
      34A     -0.488961    35A     -0.477685    36A     -0.396405  
      37A     -0.358265  

    Virtual:                                                              

      38A      0.024302    39A      0.030740    40A      0.033683  
      41A      0.038700    42A      0.048331    43A      0.050039  
      44A      0.051058    45A      0.058909    46A      0.060168  
      47A      0.068683    48A      0.074446    49A      0.077670  
      50A      0.082716    51A      0.085706    52A      0.108795  
      53A      0.111769    54A      0.114841    55A      0.114973  
      56A      0.118233    57A      0.122731    58A      0.129107  
      59A      0.130054    60A      0.139443    61A      0.141837  
      62A      0.144908    63A      0.145739    64A      0.150378  
      65A      0.152404    66A      0.154972    67A      0.157912  
      68A      0.168378    69A      0.171321    70A      0.177076  
      71A      0.182411    72A      0.188975    73A      0.190939  
      74A      0.199828    75A      0.207421    76A      0.209980  
      77A      0.215808    78A      0.227016    79A      0.235310  
      80A      0.237898    81A      0.244751    82A      0.250261  
      83A      0.256018    84A      0.258291    85A      0.269720  
      86A      0.272291    87A      0.274843    88A      0.284895  
      89A      0.285506    90A      0.289891    91A      0.292136  
      92A      0.299604    93A      0.307628    94A      0.314627  
      95A      0.322707    96A      0.326693    97A      0.329570  
      98A      0.335910    99A      0.340517   100A      0.343231  
     101A      0.350461   102A      0.355222   103A      0.359723  
     104A      0.363522   105A      0.366172   106A      0.371822  
     107A      0.372274   108A      0.381935   109A      0.383074  
     110A      0.383557   111A      0.388213   112A      0.391339  
     113A      0.397280   114A      0.399256   115A      0.400701  
     116A      0.403284   117A      0.410730   118A      0.419883  
     119A      0.426274   120A      0.428723   121A      0.430609  
     122A      0.434101   123A      0.437745   124A      0.443910  
     125A      0.445764   126A      0.452586   127A      0.454862  
     128A      0.459694   129A      0.464471   130A      0.469645  
     131A      0.473238   132A      0.478164   133A      0.481562  
     134A      0.484175   135A      0.489357   136A      0.498260  
     137A      0.500453   138A      0.507994   139A      0.511188  
     140A      0.515611   141A      0.522929   142A      0.525806  
     143A      0.529404   144A      0.536983   145A      0.539351  
     146A      0.545372   147A      0.546808   148A      0.553368  
     149A      0.554634   150A      0.558047   151A      0.564683  
     152A      0.569513   153A      0.576290   154A      0.586188  
     155A      0.590184   156A      0.595648   157A      0.597269  
     158A      0.606363   159A      0.608529   160A      0.612763  
     161A      0.617853   162A      0.621018   163A      0.632437  
     164A      0.633755   165A      0.637406   166A      0.645006  
     167A      0.651748   168A      0.657844   169A      0.667083  
     170A      0.673022   171A      0.675605   172A      0.684855  
     173A      0.688309   174A      0.699147   175A      0.703280  
     176A      0.710898   177A      0.717213   178A      0.727625  
     179A      0.739213   180A      0.745049   181A      0.759407  
     182A      0.769628   183A      0.776181   184A      0.784872  
     185A      0.790921   186A      0.800841   187A      0.805074  
     188A      0.814464   189A      0.825323   190A      0.829755  
     191A      0.831808   192A      0.842798   193A      0.843874  
     194A      0.849641   195A      0.853167   196A      0.859979  
     197A      0.864809   198A      0.872561   199A      0.876460  
     200A      0.886011   201A      0.891272   202A      0.897896  
     203A      0.898819   204A      0.900182   205A      0.913796  
     206A      0.919323   207A      0.925582   208A      0.933548  
     209A      0.939400   210A      0.941176   211A      0.947539  
     212A      0.952431   213A      0.960836   214A      0.964932  
     215A      0.970294   216A      0.976187   217A      0.976820  
     218A      0.980213   219A      0.986675   220A      0.990020  
     221A      1.001261   222A      1.003061   223A      1.010492  
     224A      1.017043   225A      1.019345   226A      1.026643  
     227A      1.032922   228A      1.035254   229A      1.040451  
     230A      1.053169   231A      1.056769   232A      1.060961  
     233A      1.069153   234A      1.077393   235A      1.081519  
     236A      1.086664   237A      1.096275   238A      1.100170  
     239A      1.105953   240A      1.113221   241A      1.124416  
     242A      1.128330   243A      1.134883   244A      1.137441  
     245A      1.147174   246A      1.147908   247A      1.150814  
     248A      1.158871   249A      1.161683   250A      1.166103  
     251A      1.171233   252A      1.179668   253A      1.191390  
     254A      1.192692   255A      1.194698   256A      1.205417  
     257A      1.213294   258A      1.221877   259A      1.223783  
     260A      1.230198   261A      1.238003   262A      1.245388  
     263A      1.251216   264A      1.255297   265A      1.258052  
     266A      1.265418   267A      1.279442   268A      1.292979  
     269A      1.302374   270A      1.308567   271A      1.312090  
     272A      1.325865   273A      1.328229   274A      1.343486  
     275A      1.346273   276A      1.349404   277A      1.356965  
     278A      1.358818   279A      1.370787   280A      1.376047  
     281A      1.386146   282A      1.389413   283A      1.398876  
     284A      1.401282   285A      1.412817   286A      1.421655  
     287A      1.435993   288A      1.446527   289A      1.448613  
     290A      1.456400   291A      1.461617   292A      1.466841  
     293A      1.472924   294A      1.485940   295A      1.495134  
     296A      1.503736   297A      1.512859   298A      1.513214  
     299A      1.516477   300A      1.526080   301A      1.540462  
     302A      1.544941   303A      1.547545   304A      1.561813  
     305A      1.562854   306A      1.571008   307A      1.577587  
     308A      1.591097   309A      1.593455   310A      1.609800  
     311A      1.622628   312A      1.633355   313A      1.640572  
     314A      1.643664   315A      1.657483   316A      1.659575  
     317A      1.666913   318A      1.679021   319A      1.680447  
     320A      1.685709   321A      1.695221   322A      1.701395  
     323A      1.702119   324A      1.703958   325A      1.713675  
     326A      1.724401   327A      1.726009   328A      1.738494  
     329A      1.740293   330A      1.750381   331A      1.755709  
     332A      1.759888   333A      1.765096   334A      1.768641  
     335A      1.774393   336A      1.782458   337A      1.789072  
     338A      1.791026   339A      1.796875   340A      1.819996  
     341A      1.828181   342A      1.831408   343A      1.844922  
     344A      1.852772   345A      1.859300   346A      1.869254  
     347A      1.884117   348A      1.885643   349A      1.896116  
     350A      1.908092   351A      1.910141   352A      1.915381  
     353A      1.917104   354A      1.924467   355A      1.930187  
     356A      1.945731   357A      1.951843   358A      1.955897  
     359A      1.973529   360A      1.974837   361A      1.984728  
     362A      1.989616   363A      1.998631   364A      2.009452  
     365A      2.013278   366A      2.023993   367A      2.029601  
     368A      2.032928   369A      2.040246   370A      2.050364  
     371A      2.062823   372A      2.073673   373A      2.084736  
     374A      2.088835   375A      2.093216   376A      2.111301  
     377A      2.120461   378A      2.134810   379A      2.144570  
     380A      2.149772   381A      2.152218   382A      2.158813  
     383A      2.170138   384A      2.174814   385A      2.204146  
     386A      2.224318   387A      2.230088   388A      2.239662  
     389A      2.249257   390A      2.259067   391A      2.265272  
     392A      2.274045   393A      2.277786   394A      2.291542  
     395A      2.295184   396A      2.304696   397A      2.309038  
     398A      2.324269   399A      2.332403   400A      2.343914  
     401A      2.357960   402A      2.368928   403A      2.381168  
     404A      2.383416   405A      2.394225   406A      2.414349  
     407A      2.415361   408A      2.430042   409A      2.437592  
     410A      2.451891   411A      2.473187   412A      2.477983  
     413A      2.491713   414A      2.495497   415A      2.522409  
     416A      2.534267   417A      2.545057   418A      2.549111  
     419A      2.563234   420A      2.572125   421A      2.580845  
     422A      2.588232   423A      2.613549   424A      2.625091  
     425A      2.643015   426A      2.671414   427A      2.680299  
     428A      2.703742   429A      2.717429   430A      2.728051  
     431A      2.741352   432A      2.761029   433A      2.778932  
     434A      2.813198   435A      2.821542   436A      2.827941  
     437A      2.882649   438A      2.889751   439A      2.915603  
     440A      2.937515   441A      2.945998   442A      2.979774  
     443A      2.992800   444A      3.019361   445A      3.023060  
     446A      3.049064   447A      3.091675   448A      3.150001  
     449A      3.181949   450A      3.246131   451A      3.309479  
     452A      3.332598   453A      3.348613   454A      3.368471  
     455A      3.410444   456A      3.430365   457A      3.447634  
     458A      3.457064   459A      3.468526   460A      3.481926  
     461A      3.510068   462A      3.520384   463A      3.536348  
     464A      3.546268   465A      3.556086   466A      3.564732  
     467A      3.578815   468A      3.598406   469A      3.618032  
     470A      3.630724   471A      3.644549   472A      3.661919  
     473A      3.666699   474A      3.674491   475A      3.687686  
     476A      3.698296   477A      3.704898   478A      3.708144  
     479A      3.717925   480A      3.729062   481A      3.735911  
     482A      3.740456   483A      3.745905   484A      3.755393  
     485A      3.760732   486A      3.777504   487A      3.791929  
     488A      3.807247   489A      3.811179   490A      3.813102  
     491A      3.823333   492A      3.828996   493A      3.839481  
     494A      3.845230   495A      3.852322   496A      3.869397  
     497A      3.891821   498A      3.899125   499A      3.904424  
     500A      3.918194   501A      3.930314   502A      3.946861  
     503A      3.957789   504A      3.960917   505A      3.975114  
     506A      3.980257   507A      3.991297   508A      3.997140  
     509A      4.003502   510A      4.018369   511A      4.030378  
     512A      4.032919   513A      4.054708   514A      4.059994  
     515A      4.063197   516A      4.081094   517A      4.087240  
     518A      4.103955   519A      4.111717   520A      4.115601  
     521A      4.127971   522A      4.151747   523A      4.156880  
     524A      4.178931   525A      4.192301   526A      4.195209  
     527A      4.208960   528A      4.224239   529A      4.228910  
     530A      4.233510   531A      4.245026   532A      4.252848  
     533A      4.261732   534A      4.266922   535A      4.276599  
     536A      4.286597   537A      4.292400   538A      4.300047  
     539A      4.321000   540A      4.332398   541A      4.341233  
     542A      4.343674   543A      4.359189   544A      4.366995  
     545A      4.403370   546A      4.418352   547A      4.429327  
     548A      4.448630   549A      4.470628   550A      4.479293  
     551A      4.495277   552A      4.504512   553A      4.517949  
     554A      4.540012   555A      4.546068   556A      4.586528  
     557A      4.604622   558A      4.614781   559A      4.632785  
     560A      4.638656   561A      4.649415   562A      4.659390  
     563A      4.676579   564A      4.690445   565A      4.705205  
     566A      4.733771   567A      4.769815   568A      4.774430  
     569A      4.786490   570A      4.789756   571A      4.808442  
     572A      4.814760   573A      4.837819   574A      4.852133  
     575A      4.866892   576A      4.880533   577A      4.885355  
     578A      4.889002   579A      4.891433   580A      4.895049  
     581A      4.925422   582A      4.939061   583A      4.945084  
     584A      4.953116   585A      4.954796   586A      4.975628  
     587A      4.980848   588A      4.992258   589A      5.004756  
     590A      5.011288   591A      5.036506   592A      5.060942  
     593A      5.066789   594A      5.103975   595A      5.130284  
     596A      5.137176   597A      5.151724   598A      5.161718  
     599A      5.181519   600A      5.204174   601A      5.219957  
     602A      5.228243   603A      5.233763   604A      5.240866  
     605A      5.267547   606A      5.274553   607A      5.285364  
     608A      5.288755   609A      5.307355   610A      5.314889  
     611A      5.332481   612A      5.364403   613A      5.367984  
     614A      5.379900   615A      5.394105   616A      5.411173  
     617A      5.422054   618A      5.439534   619A      5.448126  
     620A      5.475522   621A      5.483483   622A      5.493666  
     623A      5.501850   624A      5.527398   625A      5.539248  
     626A      5.554456   627A      5.563349   628A      5.565252  
     629A      5.580790   630A      5.585080   631A      5.613806  
     632A      5.632385   633A      5.655612   634A      5.678402  
     635A      5.691513   636A      5.725437   637A      5.746802  
     638A      5.770487   639A      5.784110   640A      5.801389  
     641A      5.824109   642A      5.837550   643A      5.866753  
     644A      5.881741   645A      5.905747   646A      5.946017  
     647A      5.970775   648A      6.005416   649A      6.078191  
     650A      6.105520   651A      6.131639   652A      6.143526  
     653A      6.153893   654A      6.176551   655A      6.194691  
     656A      6.202105   657A      6.223688   658A      6.240655  
     659A      6.259171   660A      6.273263   661A      6.285370  
     662A      6.325454   663A      6.374845   664A      6.406378  
     665A      6.679779   666A      6.713617   667A      6.820775  
     668A      6.831297   669A      6.838460   670A      6.852977  
     671A      6.864078   672A      6.877748   673A      6.893972  
     674A      6.909615   675A      6.952892   676A      6.965489  
     677A      6.986506   678A      7.014512   679A      7.064968  
     680A      7.095581   681A      7.107306   682A      7.423428  
     683A      7.467357   684A      7.617461   685A      7.684240  
     686A      7.718693   687A     10.751630   688A     13.573059  
     689A     17.605933   690A     17.861329   691A     18.087810  
     692A     18.382725   693A     19.009134   694A     19.186354  

    Final Occupation by Irrep:
              A 
    DOCC [    37 ]

  @DF-RHF Final Energy:  -707.83727156199473

   => Energetics <=

    Nuclear Repulsion Energy =            513.3544380051278040
    One-Electron Energy =               -1990.0111366350549815
    Two-Electron Energy =                 768.8194270679324518
    Total Energy =                       -707.8372715619947257

Computation Completed

*** tstop() called on node142.bme.utexas.edu at Fri Nov  6 14:41:50 2020
Module time:
	user time   =     549.03 seconds =       9.15 minutes
	system time =      54.92 seconds =       0.92 minutes
	total time  =        113 seconds =       1.88 minutes
Total time:
	user time   =     549.03 seconds =       9.15 minutes
	system time =      54.92 seconds =       0.92 minutes
	total time  =        113 seconds =       1.88 minutes
   => Loading Basis Set <=

    Name: (AUG-CC-PVTZ AUX)
    Role: RIFIT
    Keyword: DF_BASIS_MP2
    atoms 1    entry S          line   666 file /home/xy3866/psi4conda/share/psi4/basis/aug-cc-pvtz-ri.gbs 
    atoms 2    entry O          line   264 file /home/xy3866/psi4conda/share/psi4/basis/aug-cc-pvtz-ri.gbs 
    atoms 3-8  entry C          line   148 file /home/xy3866/psi4conda/share/psi4/basis/aug-cc-pvtz-ri.gbs 
    atoms 9-22 entry H          line    30 file /home/xy3866/psi4conda/share/psi4/basis/aug-cc-pvtz-ri.gbs 


*** tstart() called on node142.bme.utexas.edu
*** at Fri Nov  6 14:41:51 2020


  //>>>>>>>>>>>>>>>>>>>>>>>>>>>>>>>>>>>//
  //               DFMP2               //
  //<<<<<<<<<<<<<<<<<<<<<<<<<<<<<<<<<<<//

	 --------------------------------------------------------
	                          DF-MP2                         
	      2nd-Order Density-Fitted Moller-Plesset Theory     
	              RMP2 Wavefunction,   8 Threads             
	                                                         
	        Rob Parrish, Justin Turney, Andy Simmonett,      
	           Ed Hohenstein, and C. David Sherrill          
	 --------------------------------------------------------

   => Auxiliary Basis Set <=

  Basis Set: (AUG-CC-PVTZ AUX)
    Blend: AUG-CC-PVTZ-RI
    Number of shells: 429
    Number of basis function: 1533
    Number of Cartesian functions: 1913
    Spherical Harmonics?: true
    Max angular momentum: 4

	 --------------------------------------------------------
	                 NBF =   694, NAUX =  1533
	 --------------------------------------------------------
	   CLASS    FOCC     OCC    AOCC    AVIR     VIR    FVIR
	   PAIRS       0      37      37     657     657       0
	 --------------------------------------------------------

  DFHelper Memory: AOs need 5.337 GiB; user supplied 22.352 GiB. Using in-core AOs.


         ------------------------------------------------------------
                                     CPHF                           
                                  Rob Parrish                       
         ------------------------------------------------------------

  ==> Geometry <==

    Molecular point group: c1
    Full point group: C1

    Geometry (in Angstrom), charge = 0, multiplicity = 1:

       Center              X                  Y                   Z               Mass       
    ------------   -----------------  -----------------  -----------------  -----------------
         S            0.015385669501    -0.551137600979    -0.455147852167    31.972071174400
         O           -0.247780330499    -1.719665600979     0.483225147833    15.994914619570
         C            1.385787069501     0.418905599021     0.272642747833    12.000000000000
         C           -1.352104330499     0.642520399021    -0.160695852167    12.000000000000
         C            1.684804669501     1.662692399021    -0.507698852167    12.000000000000
         C            2.617645669501    -0.580689600979     0.221004147833    12.000000000000
         C           -1.498921330499     0.964784399021     1.319525147833    12.000000000000
         C           -2.606034330499    -0.032368600979    -0.712615852167    12.000000000000
         H            1.164959669501     0.571380399021     1.302548147833     1.007825032230
         H           -1.120082330499     1.534982399021    -0.752771852167     1.007825032230
         H            2.629374669501     2.101617399021    -0.172388852167     1.007825032230
         H            1.772679669501     1.468161399021    -1.582089852167     1.007825032230
         H            0.899442669501     2.406638399021    -0.353441852167     1.007825032230
         H            2.376635669501    -1.512451600979     0.737172147833     1.007825032230
         H            3.477243669501    -0.116324600979     0.713360147833     1.007825032230
         H            2.898091669501    -0.814253600979    -0.811405852167     1.007825032230
         H           -2.465537330499     1.443081399021     1.503870147833     1.007825032230
         H           -1.457893330499     0.033145399021     1.892270147833     1.007825032230
         H           -0.718724330499     1.638847399021     1.681672147833     1.007825032230
         H           -2.499833330499    -0.271558600979    -1.775006852167     1.007825032230
         H           -3.468263330499     0.629772399021    -0.593022852167     1.007825032230
         H           -2.796322330499    -0.960055600979    -0.166537852167     1.007825032230

  Nuclear repulsion =  513.354438005127804
  Reference energy  = -707.837271561994726

  ==> Basis Set <==

  Basis Set: AUG-CC-PVTZ
    Blend: AUG-CC-PVTZ
    Number of shells: 240
    Number of basis function: 694
    Number of Cartesian functions: 794
    Spherical Harmonics?: true
    Max angular momentum: 3

  ==> CGRSolver (by Rob Parrish) <==

   Number of roots    =         1
   Preconditioning    =    JACOBI
   Convergence cutoff =     1E-06
   Maximum iterations =       100

  ==> CPHFRHamiltonian (by Rob Parrish) <== 

  ==> MemDFJK: Density-Fitted J/K Matrices <==

    J tasked:                   Yes
    K tasked:                   Yes
    wK tasked:                   No
    OpenMP threads:               8
    Memory [MiB]:             22888
    Algorithm:                 Disk
    Schwarz Cutoff:           1E-12
    Mask sparsity (%):       4.6454
    Fitting Condition:        1E-10

   => Auxiliary Basis Set <=

  Basis Set: (AUG-CC-PVTZ AUX)
    Blend: AUG-CC-PVTZ-JKFIT
    Number of shells: 448
    Number of basis function: 1518
    Number of Cartesian functions: 1867
    Spherical Harmonics?: true
    Max angular momentum: 4

  ==> CPHF Iterations <==

  => Iterations <=

             Iter  Converged  Remaining    Residual
  CGR           1          0          1   1.199E-01
  CGR           2          0          1   3.131E-02
  CGR           3          0          1   1.234E-02
  CGR           4          0          1   4.165E-03
  CGR           5          0          1   1.432E-03
  CGR           6          0          1   4.192E-04
  CGR           7          0          1   1.026E-04
  CGR           8          0          1   4.087E-05
  CGR           9          0          1   1.664E-05
  CGR          10          0          1   5.944E-06
  CGR          11          0          1   2.119E-06
  CGR          12          1          0   6.266E-07

    CGRSolver converged.

	-----------------------------------------------------------
	 ==================> DF-MP2 Energies <==================== 
	-----------------------------------------------------------
	 Reference Energy          =    -707.8372715619947257 [Eh]
	 Singles Energy            =      -0.0000000000000000 [Eh]
	 Same-Spin Energy          =      -0.3879417689541785 [Eh]
	 Opposite-Spin Energy      =      -1.3087993956001820 [Eh]
	 Correlation Energy        =      -1.6967411645543606 [Eh]
	 Total Energy              =    -709.5340127265491219 [Eh]
	-----------------------------------------------------------
	 ================> DF-SCS-MP2 Energies <================== 
	-----------------------------------------------------------
	 SCS Same-Spin Scale       =       0.3333333333333333 [-]
	 SCS Opposite-Spin Scale   =       1.2000000000000000 [-]
	 SCS Same-Spin Energy      =      -0.1293139229847262 [Eh]
	 SCS Opposite-Spin Energy  =      -1.5705592747202184 [Eh]
	 SCS Correlation Energy    =      -1.6998731977049446 [Eh]
	 SCS Total Energy          =    -709.5371447596996859 [Eh]
	-----------------------------------------------------------



Properties will be evaluated at  -0.000000,  -0.000000,  -0.000000 [a0]

Properties computed using the MP2 density matrix

  Nuclear Dipole Moment: [e a0]
     X:     0.6477      Y:     7.6204      Z:     1.5130

  Electronic Dipole Moment: [e a0]
     X:    -0.4371      Y:    -6.0991      Z:    -1.7741

  Dipole Moment: [e a0]
     X:     0.2107      Y:     1.5213      Z:    -0.2611     Total:     1.5578

  Dipole Moment: [D]
     X:     0.5354      Y:     3.8667      Z:    -0.6636     Total:     3.9596


*** tstop() called on node142.bme.utexas.edu at Fri Nov  6 14:46:44 2020
Module time:
	user time   =    1813.32 seconds =      30.22 minutes
	system time =      68.12 seconds =       1.14 minutes
	total time  =        293 seconds =       4.88 minutes
Total time:
	user time   =    2363.68 seconds =      39.39 minutes
	system time =     123.15 seconds =       2.05 minutes
	total time  =        407 seconds =       6.78 minutes

    Psi4 stopped on: Friday, 06 November 2020 02:46PM
    Psi4 wall time for execution: 0:06:46.97

*** Psi4 exiting successfully. Buy a developer a beer!
