
    -----------------------------------------------------------------------
          Psi4: An Open-Source Ab Initio Electronic Structure Package
                               Psi4 1.4a3.dev225 

                         Git: Rev {master} 7105e37 


    D. G. A. Smith, L. A. Burns, A. C. Simmonett, R. M. Parrish,
    M. C. Schieber, R. Galvelis, P. Kraus, H. Kruse, R. Di Remigio,
    A. Alenaizan, A. M. James, S. Lehtola, J. P. Misiewicz, M. Scheurer,
    R. A. Shaw, J. B. Schriber, Y. Xie, Z. L. Glick, D. A. Sirianni,
    J. S. O'Brien, J. M. Waldrop, A. Kumar, E. G. Hohenstein,
    B. P. Pritchard, B. R. Brooks, H. F. Schaefer III, A. Yu. Sokolov,
    K. Patkowski, A. E. DePrince III, U. Bozkaya, R. A. King,
    F. A. Evangelista, J. M. Turney, T. D. Crawford, C. D. Sherrill,
    J. Chem. Phys. 152(18) 184108 (2020). https://doi.org/10.1063/5.0006002

                            Additional Code Authors
    E. T. Seidl, C. L. Janssen, E. F. Valeev, M. L. Leininger,
    J. F. Gonthier, R. M. Richard, H. R. McAlexander, M. Saitow, X. Wang,
    P. Verma, and M. H. Lechner

             Previous Authors, Complete List of Code Contributors,
                       and Citations for Specific Modules
    https://github.com/psi4/psi4/blob/master/codemeta.json
    https://github.com/psi4/psi4/graphs/contributors
    http://psicode.org/psi4manual/master/introduction.html#citing-psifour

    -----------------------------------------------------------------------


    Psi4 started on: Saturday, 27 February 2021 04:12PM

    Process ID: 137776
    Host:       c403-114.stampede2.tacc.utexas.edu
    PSIDATADIR: /home1/07844/xy3866/miniconda3/envs/p4env/share/psi4
    Memory:     500.0 MiB
    Threads:    32
    
  ==> Input File <==

--------------------------------------------------------------------------
#psi4
#
memory 32 gb

molecule  {
0 1
  O       -1.1540860    -0.8257380    -1.1262130
  O        2.2598080    -0.8403330    -0.7659410
  C        0.4122950     0.2355920     0.3463500
  C        0.8678900     1.5298080    -0.3436410
  C       -0.9920820    -0.1169500    -0.1343550
  C        1.3451220    -0.9372140     0.0454070
  C       -2.1564290     0.4678700     0.6381050
  C        2.1205030     2.1275510     0.2909850
  C        1.0642330    -2.2268080     0.7816390
  C       -3.4959710     0.2572470    -0.0522250
  H        0.3847180     0.3911920     1.4358330
  H        1.0648838     1.2844072    -1.3912536
  H        0.0539330     2.2643490    -0.3080990
  H       -1.9574920     1.5325250     0.8155200
  H       -2.1465810     0.0009680     1.6335740
  H        2.9579070     1.4317780     0.2172300
  H        2.4041530     3.0539960    -0.2168530
  H        1.9503170     2.3628610     1.3467280
  H       -3.6866900    -0.8062480    -0.2063170
  H       -3.5045250     0.7387230    -1.0324830
  H       -4.3076550     0.6763420     0.5479980
  H        0.9449730    -2.0486830     1.8550460
  H        1.8828740    -2.9264540     0.6079930
  H        0.1338470    -2.6618440     0.4039710
units angstrom
no_reorient  #important for SAPT in psi4, default
symmetry c1  #important for SAPT in psi4, default
}

set PROPERTIES_ORIGIN ["COM"]
properties('MP2/aug-cc-pvtz', properties = ['dipole'])
--------------------------------------------------------------------------

  Memory set to  29.802 GiB by Python driver.
    SCF Algorithm Type (re)set to DF.

*** tstart() called on c403-114.stampede2.tacc.utexas.edu
*** at Sat Feb 27 16:12:33 2021

   => Loading Basis Set <=

    Name: AUG-CC-PVTZ
    Role: ORBITAL
    Keyword: BASIS
    atoms 1-2   entry O          line   331 file /home1/07844/xy3866/miniconda3/envs/p4env/share/psi4/basis/aug-cc-pvtz.gbs 
    atoms 3-10  entry C          line   239 file /home1/07844/xy3866/miniconda3/envs/p4env/share/psi4/basis/aug-cc-pvtz.gbs 
    atoms 11-24 entry H          line    40 file /home1/07844/xy3866/miniconda3/envs/p4env/share/psi4/basis/aug-cc-pvtz.gbs 


         ---------------------------------------------------------
                                   SCF
               by Justin Turney, Rob Parrish, Andy Simmonett
                          and Daniel G. A. Smith
                              RHF Reference
                       32 Threads,  30517 MiB Core
         ---------------------------------------------------------

  ==> Geometry <==

    Molecular point group: c1
    Full point group: C1

    Geometry (in Angstrom), charge = 0, multiplicity = 1:

       Center              X                  Y                   Z               Mass       
    ------------   -----------------  -----------------  -----------------  -----------------
         O           -1.180950229840    -0.788664128369    -1.086493600369    15.994914619570
         O            2.232943770160    -0.803259128369    -0.726221600369    15.994914619570
         C            0.385430770160     0.272665871631     0.386069399631    12.000000000000
         C            0.841025770160     1.566881871631    -0.303921600369    12.000000000000
         C           -1.018946229840    -0.079876128369    -0.094635600369    12.000000000000
         C            1.318257770160    -0.900140128369     0.085126399631    12.000000000000
         C           -2.183293229840     0.504943871631     0.677824399631    12.000000000000
         C            2.093638770160     2.164624871631     0.330704399631    12.000000000000
         C            1.037368770160    -2.189734128369     0.821358399631    12.000000000000
         C           -3.522835229840     0.294320871631    -0.012505600369    12.000000000000
         H            0.357853770160     0.428265871631     1.475552399631     1.007825032230
         H            1.038019570160     1.321481071631    -1.351534200369     1.007825032230
         H            0.027068770160     2.301422871631    -0.268379600369     1.007825032230
         H           -1.984356229840     1.569598871631     0.855239399631     1.007825032230
         H           -2.173445229840     0.038041871631     1.673293399631     1.007825032230
         H            2.931042770160     1.468851871631     0.256949399631     1.007825032230
         H            2.377288770160     3.091069871631    -0.177133600369     1.007825032230
         H            1.923452770160     2.399934871631     1.386447399631     1.007825032230
         H           -3.713554229840    -0.769174128369    -0.166597600369     1.007825032230
         H           -3.531389229840     0.775796871631    -0.992763600369     1.007825032230
         H           -4.334519229840     0.713415871631     0.587717399631     1.007825032230
         H            0.918108770160    -2.011609128369     1.894765399631     1.007825032230
         H            1.856009770160    -2.889380128369     0.647712399631     1.007825032230
         H            0.106982770160    -2.624770128369     0.443690399631     1.007825032230

  Running in c1 symmetry.

  Rotational constants: A =      0.05866  B =      0.03034  C =      0.02335 [cm^-1]
  Rotational constants: A =   1758.55700  B =    909.55459  C =    699.98558 [MHz]
  Nuclear repulsion =  551.115195136879152

  Charge       = 0
  Multiplicity = 1
  Electrons    = 78
  Nalpha       = 39
  Nbeta        = 39

  ==> Algorithm <==

  SCF Algorithm Type is DF.
  DIIS enabled.
  MOM disabled.
  Fractional occupation disabled.
  Guess Type is SAD.
  Energy threshold   = 1.00e-10
  Density threshold  = 1.00e-10
  Integral threshold = 1.00e-12

  ==> Primary Basis <==

  Basis Set: AUG-CC-PVTZ
    Blend: AUG-CC-PVTZ
    Number of shells: 266
    Number of basis functions: 782
    Number of Cartesian functions: 900
    Spherical Harmonics?: true
    Max angular momentum: 3

   => Loading Basis Set <=

    Name: (AUG-CC-PVTZ AUX)
    Role: JKFIT
    Keyword: DF_BASIS_SCF
    atoms 1-2   entry O          line   286 file /home1/07844/xy3866/miniconda3/envs/p4env/share/psi4/basis/aug-cc-pvtz-jkfit.gbs 
    atoms 3-10  entry C          line   162 file /home1/07844/xy3866/miniconda3/envs/p4env/share/psi4/basis/aug-cc-pvtz-jkfit.gbs 
    atoms 11-24 entry H          line    70 file /home1/07844/xy3866/miniconda3/envs/p4env/share/psi4/basis/aug-cc-pvtz-jkfit.gbs 

  ==> Integral Setup <==

  DFHelper Memory: AOs need 7.101 GiB; user supplied 22.352 GiB. Using in-core AOs.

  ==> MemDFJK: Density-Fitted J/K Matrices <==

    J tasked:                   Yes
    K tasked:                   Yes
    wK tasked:                   No
    OpenMP threads:              32
    Memory [MiB]:             22888
    Algorithm:                 Core
    Schwarz Cutoff:           1E-12
    Mask sparsity (%):      11.2283
    Fitting Condition:        1E-10

   => Auxiliary Basis Set <=

  Basis Set: (AUG-CC-PVTZ AUX)
    Blend: AUG-CC-PVTZ-JKFIT
    Number of shells: 496
    Number of basis functions: 1684
    Number of Cartesian functions: 2080
    Spherical Harmonics?: true
    Max angular momentum: 4

  Minimum eigenvalue in the overlap matrix is 1.6042466701E-06.
  Reciprocal condition number of the overlap matrix is 7.2105172737E-08.
    Using symmetric orthogonalization.

  ==> Pre-Iterations <==

  SCF Guess: Superposition of Atomic Densities via on-the-fly atomic UHF (no occupation information).

   -------------------------
    Irrep   Nso     Nmo    
   -------------------------
     A        782     782 
   -------------------------
    Total     782     782
   -------------------------

  ==> Iterations <==

                           Total Energy        Delta E     RMS |[F,P]|

   @DF-RHF iter SAD:  -459.90547918268470   -4.59905e+02   0.00000e+00 
   @DF-RHF iter   1:  -460.58694284631207   -6.81464e-01   1.08250e-03 DIIS
   @DF-RHF iter   2:  -460.89705348690427   -3.10111e-01   6.13629e-04 DIIS
   @DF-RHF iter   3:  -460.98290814171708   -8.58547e-02   1.45612e-04 DIIS
   @DF-RHF iter   4:  -460.99042306629400   -7.51492e-03   6.26134e-05 DIIS
   @DF-RHF iter   5:  -460.99198147990035   -1.55841e-03   1.00364e-05 DIIS
   @DF-RHF iter   6:  -460.99206227196061   -8.07921e-05   4.60753e-06 DIIS
   @DF-RHF iter   7:  -460.99207519729777   -1.29253e-05   2.00404e-06 DIIS
   @DF-RHF iter   8:  -460.99207834793629   -3.15064e-06   6.83829e-07 DIIS
   @DF-RHF iter   9:  -460.99207880308057   -4.55144e-07   1.66674e-07 DIIS
   @DF-RHF iter  10:  -460.99207882154371   -1.84631e-08   6.68832e-08 DIIS
   @DF-RHF iter  11:  -460.99207882337242   -1.82871e-09   1.96056e-08 DIIS
   @DF-RHF iter  12:  -460.99207882358235   -2.09923e-10   7.74492e-09 DIIS
   @DF-RHF iter  13:  -460.99207882363845   -5.61045e-11   3.59053e-09 DIIS
   @DF-RHF iter  14:  -460.99207882366017   -2.17142e-11   1.93710e-09 DIIS
   @DF-RHF iter  15:  -460.99207882366835   -8.18545e-12   6.25722e-10 DIIS
   @DF-RHF iter  16:  -460.99207882366898   -6.25278e-13   1.59148e-10 DIIS
   @DF-RHF iter  17:  -460.99207882366937   -3.97904e-13   7.19334e-11 DIIS
  Energy and wave function converged.


  ==> Post-Iterations <==

    Orbital Energies [Eh]
    ---------------------

    Doubly Occupied:                                                      

       1A    -20.558174     2A    -20.548887     3A    -11.345870  
       4A    -11.338416     5A    -11.258450     6A    -11.252887  
       7A    -11.237426     8A    -11.235695     9A    -11.225922  
      10A    -11.217892    11A     -1.392356    12A     -1.378697  
      13A     -1.107667    14A     -1.060729    15A     -1.022550  
      16A     -0.969626    17A     -0.894776    18A     -0.837218  
      19A     -0.768695    20A     -0.723296    21A     -0.683172  
      22A     -0.673772    23A     -0.644242    24A     -0.626020  
      25A     -0.623219    26A     -0.599481    27A     -0.591836  
      28A     -0.568187    29A     -0.556501    30A     -0.537652  
      31A     -0.534924    32A     -0.522673    33A     -0.509678  
      34A     -0.507180    35A     -0.492152    36A     -0.484289  
      37A     -0.482813    38A     -0.427242    39A     -0.407531  

    Virtual:                                                              

      40A      0.020796    41A      0.029426    42A      0.031565  
      43A      0.037740    44A      0.047495    45A      0.047806  
      46A      0.050010    47A      0.052594    48A      0.059215  
      49A      0.069377    50A      0.071110    51A      0.072017  
      52A      0.076808    53A      0.082057    54A      0.098965  
      55A      0.105698    56A      0.109534    57A      0.110452  
      58A      0.113931    59A      0.118483    60A      0.121180  
      61A      0.123405    62A      0.127351    63A      0.129441  
      64A      0.136247    65A      0.137568    66A      0.140250  
      67A      0.143689    68A      0.149211    69A      0.151107  
      70A      0.155303    71A      0.157057    72A      0.160259  
      73A      0.162784    74A      0.167327    75A      0.170430  
      76A      0.175320    77A      0.178012    78A      0.184494  
      79A      0.194771    80A      0.203030    81A      0.212530  
      82A      0.217816    83A      0.223557    84A      0.230331  
      85A      0.233809    86A      0.238713    87A      0.247700  
      88A      0.255548    89A      0.260114    90A      0.263314  
      91A      0.270090    92A      0.273896    93A      0.280170  
      94A      0.280973    95A      0.285683    96A      0.287942  
      97A      0.290964    98A      0.295320    99A      0.300368  
     100A      0.303952   101A      0.308335   102A      0.312527  
     103A      0.320855   104A      0.324406   105A      0.329828  
     106A      0.332259   107A      0.337197   108A      0.341738  
     109A      0.348063   110A      0.351389   111A      0.353073  
     112A      0.357295   113A      0.360454   114A      0.369168  
     115A      0.369955   116A      0.373104   117A      0.376786  
     118A      0.379021   119A      0.388018   120A      0.390770  
     121A      0.394921   122A      0.397554   123A      0.399002  
     124A      0.403216   125A      0.409915   126A      0.413172  
     127A      0.413765   128A      0.421081   129A      0.425422  
     130A      0.432468   131A      0.434312   132A      0.436307  
     133A      0.439952   134A      0.442786   135A      0.444913  
     136A      0.446663   137A      0.456121   138A      0.459805  
     139A      0.466348   140A      0.471472   141A      0.473741  
     142A      0.480113   143A      0.482188   144A      0.489080  
     145A      0.492688   146A      0.493876   147A      0.499895  
     148A      0.503160   149A      0.508369   150A      0.512100  
     151A      0.516603   152A      0.517885   153A      0.520045  
     154A      0.520671   155A      0.529844   156A      0.531214  
     157A      0.532949   158A      0.539510   159A      0.539918  
     160A      0.549406   161A      0.552745   162A      0.557400  
     163A      0.558108   164A      0.566874   165A      0.573880  
     166A      0.577400   167A      0.579503   168A      0.584565  
     169A      0.595235   170A      0.598097   171A      0.600766  
     172A      0.603886   173A      0.610333   174A      0.620707  
     175A      0.627913   176A      0.633544   177A      0.637748  
     178A      0.641843   179A      0.652555   180A      0.655470  
     181A      0.656934   182A      0.660110   183A      0.664172  
     184A      0.673128   185A      0.679895   186A      0.682074  
     187A      0.687848   188A      0.693891   189A      0.704425  
     190A      0.708278   191A      0.717065   192A      0.724271  
     193A      0.730712   194A      0.738960   195A      0.746523  
     196A      0.749725   197A      0.756513   198A      0.773586  
     199A      0.775144   200A      0.789148   201A      0.795140  
     202A      0.802535   203A      0.808840   204A      0.816778  
     205A      0.820981   206A      0.825039   207A      0.833831  
     208A      0.836375   209A      0.837478   210A      0.842162  
     211A      0.845874   212A      0.857870   213A      0.864136  
     214A      0.874235   215A      0.876898   216A      0.879889  
     217A      0.883171   218A      0.890413   219A      0.894953  
     220A      0.899307   221A      0.904397   222A      0.914628  
     223A      0.921874   224A      0.923895   225A      0.926718  
     226A      0.930524   227A      0.931067   228A      0.937228  
     229A      0.943779   230A      0.953554   231A      0.956928  
     232A      0.959814   233A      0.964137   234A      0.973612  
     235A      0.977393   236A      0.980703   237A      0.986984  
     238A      0.990634   239A      0.995653   240A      1.000010  
     241A      1.009458   242A      1.013249   243A      1.015758  
     244A      1.018034   245A      1.020451   246A      1.032287  
     247A      1.039177   248A      1.043125   249A      1.047235  
     250A      1.049960   251A      1.051564   252A      1.059215  
     253A      1.067111   254A      1.073537   255A      1.081472  
     256A      1.090268   257A      1.093495   258A      1.098669  
     259A      1.106787   260A      1.108183   261A      1.111964  
     262A      1.114680   263A      1.123923   264A      1.131951  
     265A      1.135907   266A      1.136840   267A      1.141692  
     268A      1.147696   269A      1.151166   270A      1.159458  
     271A      1.160733   272A      1.165880   273A      1.180031  
     274A      1.180541   275A      1.183503   276A      1.193473  
     277A      1.200918   278A      1.207122   279A      1.208396  
     280A      1.215202   281A      1.218645   282A      1.226866  
     283A      1.229998   284A      1.232291   285A      1.234830  
     286A      1.243362   287A      1.246639   288A      1.253524  
     289A      1.264941   290A      1.275533   291A      1.283865  
     292A      1.291978   293A      1.295989   294A      1.299080  
     295A      1.306655   296A      1.312730   297A      1.324132  
     298A      1.326096   299A      1.332995   300A      1.334198  
     301A      1.341586   302A      1.353155   303A      1.359848  
     304A      1.368064   305A      1.378912   306A      1.386002  
     307A      1.396854   308A      1.401768   309A      1.409749  
     310A      1.412281   311A      1.421882   312A      1.426010  
     313A      1.435006   314A      1.441732   315A      1.446399  
     316A      1.452030   317A      1.458302   318A      1.465956  
     319A      1.472573   320A      1.480696   321A      1.487252  
     322A      1.498556   323A      1.504768   324A      1.508839  
     325A      1.519816   326A      1.524341   327A      1.538239  
     328A      1.541767   329A      1.546392   330A      1.556306  
     331A      1.556681   332A      1.569489   333A      1.580207  
     334A      1.587071   335A      1.593625   336A      1.594301  
     337A      1.605146   338A      1.616662   339A      1.620642  
     340A      1.630806   341A      1.635269   342A      1.648146  
     343A      1.652788   344A      1.656115   345A      1.663183  
     346A      1.671179   347A      1.676787   348A      1.678253  
     349A      1.682912   350A      1.686657   351A      1.693915  
     352A      1.698989   353A      1.705661   354A      1.717846  
     355A      1.721404   356A      1.723100   357A      1.731901  
     358A      1.737923   359A      1.743883   360A      1.748967  
     361A      1.752254   362A      1.753845   363A      1.762703  
     364A      1.769350   365A      1.773219   366A      1.785672  
     367A      1.796115   368A      1.799864   369A      1.803535  
     370A      1.807325   371A      1.818924   372A      1.830499  
     373A      1.833132   374A      1.842878   375A      1.845660  
     376A      1.853038   377A      1.862395   378A      1.865761  
     379A      1.870543   380A      1.879606   381A      1.889844  
     382A      1.899052   383A      1.900802   384A      1.912091  
     385A      1.917487   386A      1.918581   387A      1.928038  
     388A      1.941086   389A      1.946015   390A      1.955149  
     391A      1.962220   392A      1.975248   393A      1.981329  
     394A      1.985954   395A      1.991140   396A      2.010167  
     397A      2.013974   398A      2.017913   399A      2.020307  
     400A      2.035187   401A      2.037287   402A      2.039488  
     403A      2.054255   404A      2.058822   405A      2.062721  
     406A      2.073774   407A      2.088435   408A      2.095616  
     409A      2.100824   410A      2.104465   411A      2.108664  
     412A      2.129871   413A      2.135952   414A      2.148574  
     415A      2.152856   416A      2.162459   417A      2.168077  
     418A      2.185623   419A      2.193114   420A      2.206368  
     421A      2.219103   422A      2.236957   423A      2.242975  
     424A      2.243785   425A      2.250571   426A      2.253227  
     427A      2.258098   428A      2.271786   429A      2.276376  
     430A      2.288411   431A      2.291260   432A      2.299205  
     433A      2.302764   434A      2.320041   435A      2.323922  
     436A      2.331792   437A      2.341307   438A      2.354384  
     439A      2.364699   440A      2.379046   441A      2.383157  
     442A      2.390597   443A      2.396909   444A      2.413592  
     445A      2.441972   446A      2.445471   447A      2.463492  
     448A      2.471278   449A      2.483446   450A      2.492090  
     451A      2.497833   452A      2.512754   453A      2.520816  
     454A      2.538977   455A      2.561754   456A      2.565470  
     457A      2.577215   458A      2.603021   459A      2.625780  
     460A      2.639541   461A      2.659963   462A      2.678670  
     463A      2.685993   464A      2.700314   465A      2.706995  
     466A      2.735426   467A      2.751414   468A      2.771339  
     469A      2.775862   470A      2.802634   471A      2.804992  
     472A      2.827737   473A      2.850523   474A      2.870111  
     475A      2.881470   476A      2.902787   477A      2.912473  
     478A      2.924271   479A      2.936397   480A      2.952353  
     481A      2.988638   482A      3.031856   483A      3.039734  
     484A      3.053239   485A      3.088663   486A      3.108795  
     487A      3.121856   488A      3.139260   489A      3.176933  
     490A      3.186230   491A      3.223727   492A      3.241649  
     493A      3.275335   494A      3.288511   495A      3.310192  
     496A      3.313381   497A      3.347822   498A      3.364248  
     499A      3.395388   500A      3.414493   501A      3.421062  
     502A      3.424354   503A      3.440766   504A      3.469591  
     505A      3.475887   506A      3.487172   507A      3.493509  
     508A      3.505500   509A      3.531481   510A      3.538659  
     511A      3.542516   512A      3.562264   513A      3.575574  
     514A      3.577292   515A      3.586864   516A      3.591746  
     517A      3.604659   518A      3.612832   519A      3.631146  
     520A      3.647567   521A      3.653423   522A      3.658405  
     523A      3.661020   524A      3.673386   525A      3.685396  
     526A      3.696395   527A      3.708701   528A      3.712309  
     529A      3.717469   530A      3.732259   531A      3.738492  
     532A      3.743333   533A      3.761181   534A      3.764681  
     535A      3.775946   536A      3.780293   537A      3.799159  
     538A      3.804161   539A      3.813088   540A      3.829952  
     541A      3.832482   542A      3.837091   543A      3.841428  
     544A      3.846932   545A      3.855761   546A      3.871701  
     547A      3.886767   548A      3.900581   549A      3.902885  
     550A      3.907788   551A      3.925336   552A      3.938817  
     553A      3.945355   554A      3.955556   555A      3.969384  
     556A      3.976054   557A      3.978208   558A      3.986940  
     559A      3.989952   560A      3.996499   561A      4.005768  
     562A      4.016645   563A      4.019397   564A      4.037865  
     565A      4.039105   566A      4.047704   567A      4.053244  
     568A      4.063092   569A      4.076501   570A      4.081068  
     571A      4.089543   572A      4.098956   573A      4.111913  
     574A      4.124508   575A      4.130346   576A      4.147264  
     577A      4.155559   578A      4.169360   579A      4.175299  
     580A      4.184049   581A      4.199646   582A      4.209914  
     583A      4.215303   584A      4.221444   585A      4.228718  
     586A      4.239572   587A      4.248242   588A      4.258851  
     589A      4.268094   590A      4.270590   591A      4.283605  
     592A      4.288651   593A      4.293857   594A      4.299772  
     595A      4.314096   596A      4.340966   597A      4.351203  
     598A      4.358898   599A      4.370770   600A      4.385283  
     601A      4.407984   602A      4.410140   603A      4.423289  
     604A      4.437757   605A      4.455433   606A      4.465766  
     607A      4.479936   608A      4.484518   609A      4.504550  
     610A      4.516936   611A      4.524060   612A      4.534843  
     613A      4.542036   614A      4.555056   615A      4.565553  
     616A      4.580142   617A      4.589454   618A      4.610223  
     619A      4.611792   620A      4.629854   621A      4.641576  
     622A      4.644905   623A      4.672354   624A      4.681866  
     625A      4.690189   626A      4.692915   627A      4.710285  
     628A      4.723581   629A      4.736468   630A      4.744156  
     631A      4.760958   632A      4.780045   633A      4.794933  
     634A      4.813028   635A      4.828685   636A      4.843980  
     637A      4.850835   638A      4.870402   639A      4.876109  
     640A      4.878019   641A      4.881207   642A      4.888055  
     643A      4.894966   644A      4.912584   645A      4.924098  
     646A      4.927171   647A      4.934456   648A      4.946779  
     649A      4.967959   650A      4.984183   651A      4.988999  
     652A      5.004767   653A      5.005830   654A      5.038722  
     655A      5.063550   656A      5.077118   657A      5.093944  
     658A      5.107312   659A      5.127968   660A      5.131273  
     661A      5.156938   662A      5.164233   663A      5.183587  
     664A      5.188694   665A      5.199706   666A      5.208429  
     667A      5.223680   668A      5.227727   669A      5.245577  
     670A      5.254929   671A      5.265504   672A      5.277372  
     673A      5.291945   674A      5.304204   675A      5.322191  
     676A      5.334446   677A      5.353129   678A      5.358480  
     679A      5.386049   680A      5.389925   681A      5.399912  
     682A      5.416301   683A      5.428238   684A      5.433608  
     685A      5.439663   686A      5.455515   687A      5.473234  
     688A      5.486706   689A      5.498144   690A      5.503196  
     691A      5.524978   692A      5.546414   693A      5.558574  
     694A      5.579075   695A      5.611567   696A      5.614620  
     697A      5.627199   698A      5.641349   699A      5.654975  
     700A      5.663422   701A      5.669228   702A      5.689382  
     703A      5.711147   704A      5.728136   705A      5.733857  
     706A      5.755746   707A      5.767367   708A      5.805749  
     709A      5.814383   710A      5.821111   711A      5.850756  
     712A      5.868332   713A      5.884863   714A      5.900023  
     715A      5.970623   716A      5.975547   717A      6.001964  
     718A      6.029338   719A      6.038678   720A      6.075557  
     721A      6.105096   722A      6.112858   723A      6.128252  
     724A      6.163980   725A      6.172445   726A      6.173541  
     727A      6.209986   728A      6.224547   729A      6.231969  
     730A      6.245480   731A      6.262362   732A      6.292207  
     733A      6.309139   734A      6.328143   735A      6.374309  
     736A      6.496575   737A      6.553383   738A      6.639588  
     739A      6.643726   740A      6.749959   741A      6.754986  
     742A      6.799185   743A      6.813184   744A      6.816723  
     745A      6.847086   746A      6.853030   747A      6.879625  
     748A      6.903714   749A      6.915117   750A      6.926875  
     751A      6.956314   752A      6.998803   753A      7.123521  
     754A      7.150189   755A      7.160568   756A      7.200212  
     757A      7.283895   758A      7.293673   759A      7.460912  
     760A      7.508251   761A      7.530048   762A      7.561701  
     763A      7.583261   764A      7.593462   765A      7.699032  
     766A      7.753393   767A      7.812853   768A      7.832551  
     769A      7.956539   770A      8.031531   771A      8.084659  
     772A      8.097512   773A     15.777463   774A     16.186310  
     775A     17.471268   776A     17.808955   777A     18.064324  
     778A     18.170490   779A     18.948013   780A     19.272459  
     781A     19.835776   782A     20.859561  

    Final Occupation by Irrep:
              A 
    DOCC [    39 ]

  @DF-RHF Final Energy:  -460.99207882366937

   => Energetics <=

    Nuclear Repulsion Energy =            551.1151951368791515
    One-Electron Energy =               -1720.5189604050738126
    Two-Electron Energy =                 708.4116864445251167
    Total Energy =                       -460.9920788236694307

Computation Completed

*** tstop() called on c403-114.stampede2.tacc.utexas.edu at Sat Feb 27 16:13:23 2021
Module time:
	user time   =     947.31 seconds =      15.79 minutes
	system time =      58.21 seconds =       0.97 minutes
	total time  =         50 seconds =       0.83 minutes
Total time:
	user time   =     947.31 seconds =      15.79 minutes
	system time =      58.21 seconds =       0.97 minutes
	total time  =         50 seconds =       0.83 minutes
   => Loading Basis Set <=

    Name: (AUG-CC-PVTZ AUX)
    Role: RIFIT
    Keyword: DF_BASIS_MP2
    atoms 1-2   entry O          line   264 file /home1/07844/xy3866/miniconda3/envs/p4env/share/psi4/basis/aug-cc-pvtz-ri.gbs 
    atoms 3-10  entry C          line   148 file /home1/07844/xy3866/miniconda3/envs/p4env/share/psi4/basis/aug-cc-pvtz-ri.gbs 
    atoms 11-24 entry H          line    30 file /home1/07844/xy3866/miniconda3/envs/p4env/share/psi4/basis/aug-cc-pvtz-ri.gbs 


*** tstart() called on c403-114.stampede2.tacc.utexas.edu
*** at Sat Feb 27 16:13:24 2021


  //>>>>>>>>>>>>>>>>>>>>>>>>>>>>>>>>>>>//
  //               DFMP2               //
  //<<<<<<<<<<<<<<<<<<<<<<<<<<<<<<<<<<<//

	 --------------------------------------------------------
	                          DF-MP2                         
	      2nd-Order Density-Fitted Moller-Plesset Theory     
	              RMP2 Wavefunction,  32 Threads             
	                                                         
	        Rob Parrish, Justin Turney, Andy Simmonett,      
	           Ed Hohenstein, and C. David Sherrill          
	 --------------------------------------------------------

   => Auxiliary Basis Set <=

  Basis Set: (AUG-CC-PVTZ AUX)
    Blend: AUG-CC-PVTZ-RI
    Number of shells: 476
    Number of basis functions: 1704
    Number of Cartesian functions: 2130
    Spherical Harmonics?: true
    Max angular momentum: 4

	 --------------------------------------------------------
	                 NBF =   782, NAUX =  1704
	 --------------------------------------------------------
	   CLASS    FOCC     OCC    AOCC    AVIR     VIR    FVIR
	   PAIRS       0      39      39     743     743       0
	 --------------------------------------------------------

  DFHelper Memory: AOs need 7.436 GiB; user supplied 22.352 GiB. Using in-core AOs.


         ------------------------------------------------------------
                                     CPHF                           
                                  Rob Parrish                       
         ------------------------------------------------------------

  ==> Geometry <==

    Molecular point group: c1
    Full point group: C1

    Geometry (in Angstrom), charge = 0, multiplicity = 1:

       Center              X                  Y                   Z               Mass       
    ------------   -----------------  -----------------  -----------------  -----------------
         O           -1.180950229840    -0.788664128369    -1.086493600369    15.994914619570
         O            2.232943770160    -0.803259128369    -0.726221600369    15.994914619570
         C            0.385430770160     0.272665871631     0.386069399631    12.000000000000
         C            0.841025770160     1.566881871631    -0.303921600369    12.000000000000
         C           -1.018946229840    -0.079876128369    -0.094635600369    12.000000000000
         C            1.318257770160    -0.900140128369     0.085126399631    12.000000000000
         C           -2.183293229840     0.504943871631     0.677824399631    12.000000000000
         C            2.093638770160     2.164624871631     0.330704399631    12.000000000000
         C            1.037368770160    -2.189734128369     0.821358399631    12.000000000000
         C           -3.522835229840     0.294320871631    -0.012505600369    12.000000000000
         H            0.357853770160     0.428265871631     1.475552399631     1.007825032230
         H            1.038019570160     1.321481071631    -1.351534200369     1.007825032230
         H            0.027068770160     2.301422871631    -0.268379600369     1.007825032230
         H           -1.984356229840     1.569598871631     0.855239399631     1.007825032230
         H           -2.173445229840     0.038041871631     1.673293399631     1.007825032230
         H            2.931042770160     1.468851871631     0.256949399631     1.007825032230
         H            2.377288770160     3.091069871631    -0.177133600369     1.007825032230
         H            1.923452770160     2.399934871631     1.386447399631     1.007825032230
         H           -3.713554229840    -0.769174128369    -0.166597600369     1.007825032230
         H           -3.531389229840     0.775796871631    -0.992763600369     1.007825032230
         H           -4.334519229840     0.713415871631     0.587717399631     1.007825032230
         H            0.918108770160    -2.011609128369     1.894765399631     1.007825032230
         H            1.856009770160    -2.889380128369     0.647712399631     1.007825032230
         H            0.106982770160    -2.624770128369     0.443690399631     1.007825032230

  Nuclear repulsion =  551.115195136879152
  Reference energy  = -460.992078823669374

  ==> Basis Set <==

  Basis Set: AUG-CC-PVTZ
    Blend: AUG-CC-PVTZ
    Number of shells: 266
    Number of basis functions: 782
    Number of Cartesian functions: 900
    Spherical Harmonics?: true
    Max angular momentum: 3

  ==> CGRSolver (by Rob Parrish) <==

   Number of roots    =         1
   Preconditioning    =    JACOBI
   Convergence cutoff =     1E-06
   Maximum iterations =       100

  ==> CPHFRHamiltonian (by Rob Parrish) <== 

  ==> MemDFJK: Density-Fitted J/K Matrices <==

    J tasked:                   Yes
    K tasked:                   Yes
    wK tasked:                   No
    OpenMP threads:              32
    Memory [MiB]:             22888
    Algorithm:                 Core
    Schwarz Cutoff:           1E-12
    Mask sparsity (%):       6.8648
    Fitting Condition:        1E-10

   => Auxiliary Basis Set <=

  Basis Set: (AUG-CC-PVTZ AUX)
    Blend: AUG-CC-PVTZ-JKFIT
    Number of shells: 496
    Number of basis functions: 1684
    Number of Cartesian functions: 2080
    Spherical Harmonics?: true
    Max angular momentum: 4

  ==> CPHF Iterations <==

  => Iterations <=

             Iter  Converged  Remaining    Residual
  CGR           1          0          1   1.183E-01
  CGR           2          0          1   3.378E-02
  CGR           3          0          1   1.089E-02
  CGR           4          0          1   3.829E-03
  CGR           5          0          1   1.425E-03
  CGR           6          0          1   5.151E-04
  CGR           7          0          1   1.510E-04
  CGR           8          0          1   7.423E-05
  CGR           9          0          1   4.139E-05
  CGR          10          0          1   1.909E-05
  CGR          11          0          1   5.294E-06
  CGR          12          0          1   1.531E-06
  CGR          13          1          0   4.168E-07

    CGRSolver converged.

	-----------------------------------------------------------
	 ==================> DF-MP2 Energies <==================== 
	-----------------------------------------------------------
	 Reference Energy          =    -460.9920788236693738 [Eh]
	 Singles Energy            =      -0.0000000000000000 [Eh]
	 Same-Spin Energy          =      -0.4688709400889241 [Eh]
	 Opposite-Spin Energy      =      -1.5687315866125195 [Eh]
	 Correlation Energy        =      -2.0376025267014435 [Eh]
	 Total Energy              =    -463.0296813503708222 [Eh]
	-----------------------------------------------------------
	 ================> DF-SCS-MP2 Energies <================== 
	-----------------------------------------------------------
	 SCS Same-Spin Scale       =       0.3333333333333333 [-]
	 SCS Opposite-Spin Scale   =       1.2000000000000000 [-]
	 SCS Same-Spin Energy      =      -0.1562903133629747 [Eh]
	 SCS Opposite-Spin Energy  =      -1.8824779039350235 [Eh]
	 SCS Correlation Energy    =      -2.0387682172979980 [Eh]
	 SCS Total Energy          =    -463.0308470409673873 [Eh]
	-----------------------------------------------------------



Properties will be evaluated at  -0.000000,   0.000000,   0.000000 [a0]

Properties computed using the MP2 density matrix

  Nuclear Dipole Moment: [e a0]
     X:    -3.9337      Y:     5.4418      Z:     5.8645

  Electronic Dipole Moment: [e a0]
     X:     3.2373      Y:    -4.8896      Z:    -4.4512

  Dipole Moment: [e a0]
     X:    -0.6963      Y:     0.5522      Z:     1.4133     Total:     1.6695

  Dipole Moment: [D]
     X:    -1.7699      Y:     1.4036      Z:     3.5924     Total:     4.2435


*** tstop() called on c403-114.stampede2.tacc.utexas.edu at Sat Feb 27 16:18:15 2021
Module time:
	user time   =    2972.27 seconds =      49.54 minutes
	system time =      77.95 seconds =       1.30 minutes
	total time  =        291 seconds =       4.85 minutes
Total time:
	user time   =    3920.78 seconds =      65.35 minutes
	system time =     136.17 seconds =       2.27 minutes
	total time  =        342 seconds =       5.70 minutes

    Psi4 stopped on: Saturday, 27 February 2021 04:18PM
    Psi4 wall time for execution: 0:05:43.77

*** Psi4 exiting successfully. Buy a developer a beer!
