
    -----------------------------------------------------------------------
          Psi4: An Open-Source Ab Initio Electronic Structure Package
                               Psi4 1.4a3.dev225 

                         Git: Rev {master} 7105e37 


    D. G. A. Smith, L. A. Burns, A. C. Simmonett, R. M. Parrish,
    M. C. Schieber, R. Galvelis, P. Kraus, H. Kruse, R. Di Remigio,
    A. Alenaizan, A. M. James, S. Lehtola, J. P. Misiewicz, M. Scheurer,
    R. A. Shaw, J. B. Schriber, Y. Xie, Z. L. Glick, D. A. Sirianni,
    J. S. O'Brien, J. M. Waldrop, A. Kumar, E. G. Hohenstein,
    B. P. Pritchard, B. R. Brooks, H. F. Schaefer III, A. Yu. Sokolov,
    K. Patkowski, A. E. DePrince III, U. Bozkaya, R. A. King,
    F. A. Evangelista, J. M. Turney, T. D. Crawford, C. D. Sherrill,
    J. Chem. Phys. 152(18) 184108 (2020). https://doi.org/10.1063/5.0006002

                            Additional Code Authors
    E. T. Seidl, C. L. Janssen, E. F. Valeev, M. L. Leininger,
    J. F. Gonthier, R. M. Richard, H. R. McAlexander, M. Saitow, X. Wang,
    P. Verma, and M. H. Lechner

             Previous Authors, Complete List of Code Contributors,
                       and Citations for Specific Modules
    https://github.com/psi4/psi4/blob/master/codemeta.json
    https://github.com/psi4/psi4/graphs/contributors
    http://psicode.org/psi4manual/master/introduction.html#citing-psifour

    -----------------------------------------------------------------------


    Psi4 started on: Saturday, 27 February 2021 02:04PM

    Process ID: 101204
    Host:       c403-114.stampede2.tacc.utexas.edu
    PSIDATADIR: /home1/07844/xy3866/miniconda3/envs/p4env/share/psi4
    Memory:     500.0 MiB
    Threads:    32
    
  ==> Input File <==

--------------------------------------------------------------------------
#psi4
#
memory 32 gb

molecule  {
0 1
  C        0.6677790    -0.2877210    -0.0000110
  C       -0.6677790     0.2877220     0.0000160
  C        1.8019300     0.4385480     0.0000620
  C       -1.8019300    -0.4385470    -0.0000660
  C        3.1824410    -0.1410110     0.0000540
  C       -3.1824410     0.1410100    -0.0000550
  H        0.7356230    -1.3773410    -0.0000890
  H       -0.7356240     1.3773420     0.0001000
  H        1.7263590     1.5270040     0.0001430
  H       -1.7263580    -1.5270030    -0.0001530
  H        3.1481690    -1.2341710    -0.0000530
  H        3.7490380     0.1823190    -0.8804680
  H        3.7489810     0.1821480     0.8806760
  H       -3.7489900    -0.1821670    -0.8806650
  H       -3.8007308    -0.2118052     0.9608316
  H       -3.1481700     1.2341700     0.0000290
units angstrom
no_reorient  #important for SAPT in psi4, default
symmetry c1  #important for SAPT in psi4, default
}

set PROPERTIES_ORIGIN ["COM"]
properties('MP2/aug-cc-pvtz', properties = ['dipole'])
--------------------------------------------------------------------------

  Memory set to  29.802 GiB by Python driver.
    SCF Algorithm Type (re)set to DF.

*** tstart() called on c403-114.stampede2.tacc.utexas.edu
*** at Sat Feb 27 14:04:41 2021

   => Loading Basis Set <=

    Name: AUG-CC-PVTZ
    Role: ORBITAL
    Keyword: BASIS
    atoms 1-6  entry C          line   239 file /home1/07844/xy3866/miniconda3/envs/p4env/share/psi4/basis/aug-cc-pvtz.gbs 
    atoms 7-16 entry H          line    40 file /home1/07844/xy3866/miniconda3/envs/p4env/share/psi4/basis/aug-cc-pvtz.gbs 


         ---------------------------------------------------------
                                   SCF
               by Justin Turney, Rob Parrish, Andy Simmonett
                          and Daniel G. A. Smith
                              RHF Reference
                       32 Threads,  30517 MiB Core
         ---------------------------------------------------------

  ==> Geometry <==

    Molecular point group: c1
    Full point group: C1

    Geometry (in Angstrom), charge = 0, multiplicity = 1:

       Center              X                  Y                   Z               Mass       
    ------------   -----------------  -----------------  -----------------  -----------------
         C            0.668413849986    -0.287358869092    -0.000997623783    12.000000000000
         C           -0.667144150014     0.288084130908    -0.000970623783    12.000000000000
         C            1.802564849986     0.438910130908    -0.000924623783    12.000000000000
         C           -1.801295150014    -0.438184869092    -0.001052623783    12.000000000000
         C            3.183075849986    -0.140648869092    -0.000932623783    12.000000000000
         C           -3.181806150014     0.141372130908    -0.001041623783    12.000000000000
         H            0.736257849986    -1.376978869092    -0.001075623783     1.007825032230
         H           -0.734989150014     1.377704130908    -0.000886623783     1.007825032230
         H            1.726993849986     1.527366130908    -0.000843623783     1.007825032230
         H           -1.725723150014    -1.526640869092    -0.001139623783     1.007825032230
         H            3.148803849986    -1.233808869092    -0.001039623783     1.007825032230
         H            3.749672849986     0.182681130908    -0.881454623783     1.007825032230
         H            3.749615849986     0.182510130908     0.879689376217     1.007825032230
         H           -3.748355150014    -0.181804869092    -0.881651623783     1.007825032230
         H           -3.800095950014    -0.211443069092     0.959844976217     1.007825032230
         H           -3.147535150014     1.234532130908    -0.000957623783     1.007825032230

  Running in c1 symmetry.

  Rotational constants: A =      0.76331  B =      0.04022  C =      0.03878 [cm^-1]
  Rotational constants: A =  22883.44807  B =   1205.83272  C =   1162.73202 [MHz]
  Nuclear repulsion =  207.595814182790519

  Charge       = 0
  Multiplicity = 1
  Electrons    = 46
  Nalpha       = 23
  Nbeta        = 23

  ==> Algorithm <==

  SCF Algorithm Type is DF.
  DIIS enabled.
  MOM disabled.
  Fractional occupation disabled.
  Guess Type is SAD.
  Energy threshold   = 1.00e-10
  Density threshold  = 1.00e-10
  Integral threshold = 1.00e-12

  ==> Primary Basis <==

  Basis Set: AUG-CC-PVTZ
    Blend: AUG-CC-PVTZ
    Number of shells: 174
    Number of basis functions: 506
    Number of Cartesian functions: 580
    Spherical Harmonics?: true
    Max angular momentum: 3

   => Loading Basis Set <=

    Name: (AUG-CC-PVTZ AUX)
    Role: JKFIT
    Keyword: DF_BASIS_SCF
    atoms 1-6  entry C          line   162 file /home1/07844/xy3866/miniconda3/envs/p4env/share/psi4/basis/aug-cc-pvtz-jkfit.gbs 
    atoms 7-16 entry H          line    70 file /home1/07844/xy3866/miniconda3/envs/p4env/share/psi4/basis/aug-cc-pvtz-jkfit.gbs 

  ==> Integral Setup <==

  DFHelper Memory: AOs need 1.955 GiB; user supplied 22.352 GiB. Using in-core AOs.

  ==> MemDFJK: Density-Fitted J/K Matrices <==

    J tasked:                   Yes
    K tasked:                   Yes
    wK tasked:                   No
    OpenMP threads:              32
    Memory [MiB]:             22888
    Algorithm:                 Core
    Schwarz Cutoff:           1E-12
    Mask sparsity (%):      11.3093
    Fitting Condition:        1E-10

   => Auxiliary Basis Set <=

  Basis Set: (AUG-CC-PVTZ AUX)
    Blend: AUG-CC-PVTZ-JKFIT
    Number of shells: 320
    Number of basis functions: 1084
    Number of Cartesian functions: 1336
    Spherical Harmonics?: true
    Max angular momentum: 4

  Minimum eigenvalue in the overlap matrix is 2.4912406674E-06.
  Reciprocal condition number of the overlap matrix is 1.5074834769E-07.
    Using symmetric orthogonalization.

  ==> Pre-Iterations <==

  SCF Guess: Superposition of Atomic Densities via on-the-fly atomic UHF (no occupation information).

   -------------------------
    Irrep   Nso     Nmo    
   -------------------------
     A        506     506 
   -------------------------
    Total     506     506
   -------------------------

  ==> Iterations <==

                           Total Energy        Delta E     RMS |[F,P]|

   @DF-RHF iter SAD:  -232.01002459465636   -2.32010e+02   0.00000e+00 
   @DF-RHF iter   1:  -232.82841026225066   -8.18386e-01   1.20791e-03 DIIS
   @DF-RHF iter   2:  -233.03833176476527   -2.09922e-01   4.95831e-04 DIIS
   @DF-RHF iter   3:  -233.07262703397163   -3.42953e-02   9.28378e-05 DIIS
   @DF-RHF iter   4:  -233.07531131740407   -2.68428e-03   1.92673e-05 DIIS
   @DF-RHF iter   5:  -233.07538518091570   -7.38635e-05   8.16978e-06 DIIS
   @DF-RHF iter   6:  -233.07539875788200   -1.35770e-05   1.77138e-06 DIIS
   @DF-RHF iter   7:  -233.07539955938637   -8.01504e-07   4.71035e-07 DIIS
   @DF-RHF iter   8:  -233.07539963966343   -8.02771e-08   1.61185e-07 DIIS
   @DF-RHF iter   9:  -233.07539964836428   -8.70085e-09   4.76693e-08 DIIS
   @DF-RHF iter  10:  -233.07539964938104   -1.01676e-09   1.66134e-08 DIIS
   @DF-RHF iter  11:  -233.07539964948904   -1.08002e-10   5.13276e-09 DIIS
   @DF-RHF iter  12:  -233.07539964950044   -1.13971e-11   2.92409e-09 DIIS
   @DF-RHF iter  13:  -233.07539964950305   -2.61480e-12   6.14335e-10 DIIS
   @DF-RHF iter  14:  -233.07539964950359   -5.40012e-13   2.72253e-10 DIIS
   @DF-RHF iter  15:  -233.07539964950425   -6.53699e-13   1.01345e-10 DIIS
   @DF-RHF iter  16:  -233.07539964950328    9.66338e-13   2.88419e-11 DIIS
  Energy and wave function converged.


  ==> Post-Iterations <==

    Orbital Energies [Eh]
    ---------------------

    Doubly Occupied:                                                      

       1A    -11.233156     2A    -11.231650     3A    -11.231474  
       4A    -11.227738     5A    -11.226813     6A    -11.221641  
       7A     -1.096874     8A     -1.045061     9A     -0.963863  
      10A     -0.889374    11A     -0.762417    12A     -0.749409  
      13A     -0.644188    14A     -0.611032    15A     -0.566076  
      16A     -0.560499    17A     -0.547471    18A     -0.545869  
      19A     -0.509331    20A     -0.502430    21A     -0.482976  
      22A     -0.422505    23A     -0.298630  

    Virtual:                                                              

      24A      0.030798    25A      0.032004    26A      0.034325  
      27A      0.046594    28A      0.050048    29A      0.052146  
      30A      0.052504    31A      0.069356    32A      0.073155  
      33A      0.074844    34A      0.095926    35A      0.108741  
      36A      0.110409    37A      0.110873    38A      0.113660  
      39A      0.119626    40A      0.120647    41A      0.127767  
      42A      0.137834    43A      0.140716    44A      0.146283  
      45A      0.148359    46A      0.149847    47A      0.163329  
      48A      0.168582    49A      0.172357    50A      0.172960  
      51A      0.175223    52A      0.189179    53A      0.219117  
      54A      0.223585    55A      0.225854    56A      0.231950  
      57A      0.236461    58A      0.243206    59A      0.243830  
      60A      0.251222    61A      0.258054    62A      0.268371  
      63A      0.271757    64A      0.279800    65A      0.283369  
      66A      0.289613    67A      0.305432    68A      0.311241  
      69A      0.321499    70A      0.329019    71A      0.329343  
      72A      0.334975    73A      0.340313    74A      0.350511  
      75A      0.355348    76A      0.358639    77A      0.361184  
      78A      0.366624    79A      0.369762    80A      0.371402  
      81A      0.381815    82A      0.387560    83A      0.389462  
      84A      0.390686    85A      0.401961    86A      0.416770  
      87A      0.426035    88A      0.429683    89A      0.431055  
      90A      0.433518    91A      0.436619    92A      0.437946  
      93A      0.442190    94A      0.447311    95A      0.453488  
      96A      0.454000    97A      0.463613    98A      0.466931  
      99A      0.474969   100A      0.482911   101A      0.484815  
     102A      0.490305   103A      0.498358   104A      0.505394  
     105A      0.510427   106A      0.513729   107A      0.519033  
     108A      0.522122   109A      0.522585   110A      0.531274  
     111A      0.532339   112A      0.536463   113A      0.558516  
     114A      0.565359   115A      0.569337   116A      0.574045  
     117A      0.577049   118A      0.588179   119A      0.593599  
     120A      0.602498   121A      0.616255   122A      0.629200  
     123A      0.640298   124A      0.649452   125A      0.652405  
     126A      0.654919   127A      0.678638   128A      0.689797  
     129A      0.692220   130A      0.721902   131A      0.737271  
     132A      0.740068   133A      0.744484   134A      0.758709  
     135A      0.765350   136A      0.780731   137A      0.785528  
     138A      0.809072   139A      0.816246   140A      0.828753  
     141A      0.832137   142A      0.840321   143A      0.849439  
     144A      0.850422   145A      0.862118   146A      0.863827  
     147A      0.871237   148A      0.872575   149A      0.878971  
     150A      0.891056   151A      0.898213   152A      0.901939  
     153A      0.906689   154A      0.908001   155A      0.909756  
     156A      0.910767   157A      0.920126   158A      0.931042  
     159A      0.936131   160A      0.962454   161A      0.971510  
     162A      0.975258   163A      0.978177   164A      0.986227  
     165A      0.989960   166A      0.998893   167A      1.005550  
     168A      1.008551   169A      1.012492   170A      1.015825  
     171A      1.017999   172A      1.020141   173A      1.027536  
     174A      1.035332   175A      1.042180   176A      1.052682  
     177A      1.054576   178A      1.062893   179A      1.064090  
     180A      1.067266   181A      1.075619   182A      1.107649  
     183A      1.114442   184A      1.118387   185A      1.120919  
     186A      1.122569   187A      1.122941   188A      1.129186  
     189A      1.130565   190A      1.138401   191A      1.164746  
     192A      1.167051   193A      1.169523   194A      1.175643  
     195A      1.192591   196A      1.194334   197A      1.199068  
     198A      1.209147   199A      1.231171   200A      1.235665  
     201A      1.242503   202A      1.250631   203A      1.253411  
     204A      1.268726   205A      1.270672   206A      1.273491  
     207A      1.276365   208A      1.283655   209A      1.287650  
     210A      1.305500   211A      1.308805   212A      1.322843  
     213A      1.345937   214A      1.363233   215A      1.372725  
     216A      1.387486   217A      1.390767   218A      1.395892  
     219A      1.419836   220A      1.435844   221A      1.449208  
     222A      1.452652   223A      1.461651   224A      1.462455  
     225A      1.490892   226A      1.500594   227A      1.507774  
     228A      1.550429   229A      1.554593   230A      1.580931  
     231A      1.581121   232A      1.614321   233A      1.619279  
     234A      1.626439   235A      1.634702   236A      1.638439  
     237A      1.648318   238A      1.649162   239A      1.653869  
     240A      1.668278   241A      1.671344   242A      1.695565  
     243A      1.697426   244A      1.717891   245A      1.725634  
     246A      1.729735   247A      1.733496   248A      1.740024  
     249A      1.743217   250A      1.751953   251A      1.755263  
     252A      1.756972   253A      1.769899   254A      1.796417  
     255A      1.804330   256A      1.828527   257A      1.839503  
     258A      1.848606   259A      1.852543   260A      1.861276  
     261A      1.876775   262A      1.900076   263A      1.901378  
     264A      1.910985   265A      1.920102   266A      1.933626  
     267A      1.945604   268A      1.958676   269A      1.960300  
     270A      1.966796   271A      1.989600   272A      1.996479  
     273A      2.009592   274A      2.026610   275A      2.054211  
     276A      2.071143   277A      2.077141   278A      2.090845  
     279A      2.093121   280A      2.100821   281A      2.107892  
     282A      2.117303   283A      2.129074   284A      2.134062  
     285A      2.175345   286A      2.180734   287A      2.193250  
     288A      2.208337   289A      2.210086   290A      2.216552  
     291A      2.231985   292A      2.237203   293A      2.247289  
     294A      2.258994   295A      2.260376   296A      2.272387  
     297A      2.278672   298A      2.310833   299A      2.311550  
     300A      2.322552   301A      2.327136   302A      2.358740  
     303A      2.374757   304A      2.395846   305A      2.439347  
     306A      2.451686   307A      2.493318   308A      2.514699  
     309A      2.531685   310A      2.535249   311A      2.630516  
     312A      2.636009   313A      2.652402   314A      2.696813  
     315A      2.789655   316A      2.869940   317A      2.969891  
     318A      2.996950   319A      3.076271   320A      3.142218  
     321A      3.145189   322A      3.185255   323A      3.208626  
     324A      3.235181   325A      3.250091   326A      3.294775  
     327A      3.312918   328A      3.334243   329A      3.337772  
     330A      3.358251   331A      3.373372   332A      3.395164  
     333A      3.401711   334A      3.427335   335A      3.438971  
     336A      3.454825   337A      3.464830   338A      3.473096  
     339A      3.498675   340A      3.523533   341A      3.524382  
     342A      3.542698   343A      3.543946   344A      3.553692  
     345A      3.558794   346A      3.589016   347A      3.594071  
     348A      3.611352   349A      3.623987   350A      3.632418  
     351A      3.648345   352A      3.653825   353A      3.659371  
     354A      3.668456   355A      3.707092   356A      3.708222  
     357A      3.718335   358A      3.725794   359A      3.727788  
     360A      3.735980   361A      3.745769   362A      3.759716  
     363A      3.774178   364A      3.785016   365A      3.793007  
     366A      3.852786   367A      3.863630   368A      3.882086  
     369A      3.886419   370A      3.898880   371A      3.907911  
     372A      3.931362   373A      3.954685   374A      3.961164  
     375A      3.968293   376A      3.975403   377A      3.995160  
     378A      4.008236   379A      4.012835   380A      4.032304  
     381A      4.038128   382A      4.041449   383A      4.059425  
     384A      4.067281   385A      4.077732   386A      4.080162  
     387A      4.088896   388A      4.093480   389A      4.099328  
     390A      4.130681   391A      4.135022   392A      4.149188  
     393A      4.206585   394A      4.211434   395A      4.226988  
     396A      4.243427   397A      4.255191   398A      4.256085  
     399A      4.291269   400A      4.309205   401A      4.313101  
     402A      4.320780   403A      4.349518   404A      4.363314  
     405A      4.389848   406A      4.398902   407A      4.403782  
     408A      4.429933   409A      4.455075   410A      4.467517  
     411A      4.499233   412A      4.520709   413A      4.539999  
     414A      4.578530   415A      4.590127   416A      4.610976  
     417A      4.624914   418A      4.633999   419A      4.641026  
     420A      4.652884   421A      4.688879   422A      4.714452  
     423A      4.738232   424A      4.746572   425A      4.762586  
     426A      4.782708   427A      4.789242   428A      4.808140  
     429A      4.833788   430A      4.838806   431A      4.859670  
     432A      4.867087   433A      4.883661   434A      4.893447  
     435A      4.911982   436A      4.940396   437A      4.943781  
     438A      4.976616   439A      4.979601   440A      4.994440  
     441A      5.029808   442A      5.037005   443A      5.051083  
     444A      5.064003   445A      5.097598   446A      5.101941  
     447A      5.123839   448A      5.147664   449A      5.160933  
     450A      5.174804   451A      5.185673   452A      5.228076  
     453A      5.237015   454A      5.288868   455A      5.297314  
     456A      5.312283   457A      5.325681   458A      5.352203  
     459A      5.372119   460A      5.375575   461A      5.394539  
     462A      5.434575   463A      5.449370   464A      5.460407  
     465A      5.472830   466A      5.494561   467A      5.514711  
     468A      5.530151   469A      5.558850   470A      5.563369  
     471A      5.599739   472A      5.616572   473A      5.640352  
     474A      5.670659   475A      5.710734   476A      5.756753  
     477A      5.765772   478A      5.880160   479A      5.933678  
     480A      5.971704   481A      6.000542   482A      6.077036  
     483A      6.084801   484A      6.130709   485A      6.172846  
     486A      6.176705   487A      6.266335   488A      6.299693  
     489A      6.367667   490A      6.452123   491A      6.595619  
     492A      6.633597   493A      6.670659   494A      6.716588  
     495A      6.721551   496A      6.736448   497A      6.758912  
     498A      6.805077   499A      6.831424   500A      6.947451  
     501A     16.755048   502A     16.990871   503A     17.908897  
     504A     18.161533   505A     19.666198   506A     20.295193  

    Final Occupation by Irrep:
              A 
    DOCC [    23 ]

  @DF-RHF Final Energy:  -233.07539964950328

   => Energetics <=

    Nuclear Repulsion Energy =            207.5958141827905195
    One-Electron Energy =                -724.2014732365639702
    Two-Electron Energy =                 283.5302594042702253
    Total Energy =                       -233.0753996495032538

Computation Completed

*** tstop() called on c403-114.stampede2.tacc.utexas.edu at Sat Feb 27 14:05:01 2021
Module time:
	user time   =     290.42 seconds =       4.84 minutes
	system time =      26.01 seconds =       0.43 minutes
	total time  =         20 seconds =       0.33 minutes
Total time:
	user time   =     290.42 seconds =       4.84 minutes
	system time =      26.01 seconds =       0.43 minutes
	total time  =         20 seconds =       0.33 minutes
   => Loading Basis Set <=

    Name: (AUG-CC-PVTZ AUX)
    Role: RIFIT
    Keyword: DF_BASIS_MP2
    atoms 1-6  entry C          line   148 file /home1/07844/xy3866/miniconda3/envs/p4env/share/psi4/basis/aug-cc-pvtz-ri.gbs 
    atoms 7-16 entry H          line    30 file /home1/07844/xy3866/miniconda3/envs/p4env/share/psi4/basis/aug-cc-pvtz-ri.gbs 


*** tstart() called on c403-114.stampede2.tacc.utexas.edu
*** at Sat Feb 27 14:05:01 2021


  //>>>>>>>>>>>>>>>>>>>>>>>>>>>>>>>>>>>//
  //               DFMP2               //
  //<<<<<<<<<<<<<<<<<<<<<<<<<<<<<<<<<<<//

	 --------------------------------------------------------
	                          DF-MP2                         
	      2nd-Order Density-Fitted Moller-Plesset Theory     
	              RMP2 Wavefunction,  32 Threads             
	                                                         
	        Rob Parrish, Justin Turney, Andy Simmonett,      
	           Ed Hohenstein, and C. David Sherrill          
	 --------------------------------------------------------

   => Auxiliary Basis Set <=

  Basis Set: (AUG-CC-PVTZ AUX)
    Blend: AUG-CC-PVTZ-RI
    Number of shells: 308
    Number of basis functions: 1096
    Number of Cartesian functions: 1366
    Spherical Harmonics?: true
    Max angular momentum: 4

	 --------------------------------------------------------
	                 NBF =   506, NAUX =  1096
	 --------------------------------------------------------
	   CLASS    FOCC     OCC    AOCC    AVIR     VIR    FVIR
	   PAIRS       0      23      23     483     483       0
	 --------------------------------------------------------

  DFHelper Memory: AOs need 2.032 GiB; user supplied 22.352 GiB. Using in-core AOs.


         ------------------------------------------------------------
                                     CPHF                           
                                  Rob Parrish                       
         ------------------------------------------------------------

  ==> Geometry <==

    Molecular point group: c1
    Full point group: C1

    Geometry (in Angstrom), charge = 0, multiplicity = 1:

       Center              X                  Y                   Z               Mass       
    ------------   -----------------  -----------------  -----------------  -----------------
         C            0.668413849986    -0.287358869092    -0.000997623783    12.000000000000
         C           -0.667144150014     0.288084130908    -0.000970623783    12.000000000000
         C            1.802564849986     0.438910130908    -0.000924623783    12.000000000000
         C           -1.801295150014    -0.438184869092    -0.001052623783    12.000000000000
         C            3.183075849986    -0.140648869092    -0.000932623783    12.000000000000
         C           -3.181806150014     0.141372130908    -0.001041623783    12.000000000000
         H            0.736257849986    -1.376978869092    -0.001075623783     1.007825032230
         H           -0.734989150014     1.377704130908    -0.000886623783     1.007825032230
         H            1.726993849986     1.527366130908    -0.000843623783     1.007825032230
         H           -1.725723150014    -1.526640869092    -0.001139623783     1.007825032230
         H            3.148803849986    -1.233808869092    -0.001039623783     1.007825032230
         H            3.749672849986     0.182681130908    -0.881454623783     1.007825032230
         H            3.749615849986     0.182510130908     0.879689376217     1.007825032230
         H           -3.748355150014    -0.181804869092    -0.881651623783     1.007825032230
         H           -3.800095950014    -0.211443069092     0.959844976217     1.007825032230
         H           -3.147535150014     1.234532130908    -0.000957623783     1.007825032230

  Nuclear repulsion =  207.595814182790519
  Reference energy  = -233.075399649503282

  ==> Basis Set <==

  Basis Set: AUG-CC-PVTZ
    Blend: AUG-CC-PVTZ
    Number of shells: 174
    Number of basis functions: 506
    Number of Cartesian functions: 580
    Spherical Harmonics?: true
    Max angular momentum: 3

  ==> CGRSolver (by Rob Parrish) <==

   Number of roots    =         1
   Preconditioning    =    JACOBI
   Convergence cutoff =     1E-06
   Maximum iterations =       100

  ==> CPHFRHamiltonian (by Rob Parrish) <== 

  ==> MemDFJK: Density-Fitted J/K Matrices <==

    J tasked:                   Yes
    K tasked:                   Yes
    wK tasked:                   No
    OpenMP threads:              32
    Memory [MiB]:             22888
    Algorithm:                 Core
    Schwarz Cutoff:           1E-12
    Mask sparsity (%):       7.6231
    Fitting Condition:        1E-10

   => Auxiliary Basis Set <=

  Basis Set: (AUG-CC-PVTZ AUX)
    Blend: AUG-CC-PVTZ-JKFIT
    Number of shells: 320
    Number of basis functions: 1084
    Number of Cartesian functions: 1336
    Spherical Harmonics?: true
    Max angular momentum: 4

  ==> CPHF Iterations <==

  => Iterations <=

             Iter  Converged  Remaining    Residual
  CGR           1          0          1   8.183E-02
  CGR           2          0          1   1.307E-02
  CGR           3          0          1   3.357E-03
  CGR           4          0          1   1.259E-03
  CGR           5          0          1   2.758E-04
  CGR           6          0          1   8.012E-05
  CGR           7          0          1   2.184E-05
  CGR           8          0          1   9.834E-06
  CGR           9          0          1   3.542E-06
  CGR          10          0          1   1.565E-06
  CGR          11          1          0   2.891E-07

    CGRSolver converged.

	-----------------------------------------------------------
	 ==================> DF-MP2 Energies <==================== 
	-----------------------------------------------------------
	 Reference Energy          =    -233.0753996495032823 [Eh]
	 Singles Energy            =      -0.0000000000000000 [Eh]
	 Same-Spin Energy          =      -0.2454539198863274 [Eh]
	 Opposite-Spin Energy      =      -0.8826133253122179 [Eh]
	 Correlation Energy        =      -1.1280672451985454 [Eh]
	 Total Energy              =    -234.2034668947018190 [Eh]
	-----------------------------------------------------------
	 ================> DF-SCS-MP2 Energies <================== 
	-----------------------------------------------------------
	 SCS Same-Spin Scale       =       0.3333333333333333 [-]
	 SCS Opposite-Spin Scale   =       1.2000000000000000 [-]
	 SCS Same-Spin Energy      =      -0.0818179732954425 [Eh]
	 SCS Opposite-Spin Energy  =      -1.0591359903746616 [Eh]
	 SCS Correlation Energy    =      -1.1409539636701040 [Eh]
	 SCS Total Energy          =    -234.2163536131733963 [Eh]
	-----------------------------------------------------------



Properties will be evaluated at   0.000000,  -0.000000,  -0.000000 [a0]

Properties computed using the MP2 density matrix

  Nuclear Dipole Moment: [e a0]
     X:    -0.0425      Y:    -0.0243      Z:     0.0661

  Electronic Dipole Moment: [e a0]
     X:     0.0709      Y:     0.0298      Z:    -0.0825

  Dipole Moment: [e a0]
     X:     0.0283      Y:     0.0055      Z:    -0.0164     Total:     0.0332

  Dipole Moment: [D]
     X:     0.0721      Y:     0.0141      Z:    -0.0418     Total:     0.0845


*** tstop() called on c403-114.stampede2.tacc.utexas.edu at Sat Feb 27 14:06:35 2021
Module time:
	user time   =     738.78 seconds =      12.31 minutes
	system time =      30.76 seconds =       0.51 minutes
	total time  =         94 seconds =       1.57 minutes
Total time:
	user time   =    1029.98 seconds =      17.17 minutes
	system time =      56.79 seconds =       0.95 minutes
	total time  =        114 seconds =       1.90 minutes

    Psi4 stopped on: Saturday, 27 February 2021 02:06PM
    Psi4 wall time for execution: 0:01:54.24

*** Psi4 exiting successfully. Buy a developer a beer!
