
    -----------------------------------------------------------------------
          Psi4: An Open-Source Ab Initio Electronic Structure Package
                               Psi4 1.4a3.dev225 

                         Git: Rev {master} 7105e37 


    D. G. A. Smith, L. A. Burns, A. C. Simmonett, R. M. Parrish,
    M. C. Schieber, R. Galvelis, P. Kraus, H. Kruse, R. Di Remigio,
    A. Alenaizan, A. M. James, S. Lehtola, J. P. Misiewicz, M. Scheurer,
    R. A. Shaw, J. B. Schriber, Y. Xie, Z. L. Glick, D. A. Sirianni,
    J. S. O'Brien, J. M. Waldrop, A. Kumar, E. G. Hohenstein,
    B. P. Pritchard, B. R. Brooks, H. F. Schaefer III, A. Yu. Sokolov,
    K. Patkowski, A. E. DePrince III, U. Bozkaya, R. A. King,
    F. A. Evangelista, J. M. Turney, T. D. Crawford, C. D. Sherrill,
    J. Chem. Phys. 152(18) 184108 (2020). https://doi.org/10.1063/5.0006002

                            Additional Code Authors
    E. T. Seidl, C. L. Janssen, E. F. Valeev, M. L. Leininger,
    J. F. Gonthier, R. M. Richard, H. R. McAlexander, M. Saitow, X. Wang,
    P. Verma, and M. H. Lechner

             Previous Authors, Complete List of Code Contributors,
                       and Citations for Specific Modules
    https://github.com/psi4/psi4/blob/master/codemeta.json
    https://github.com/psi4/psi4/graphs/contributors
    http://psicode.org/psi4manual/master/introduction.html#citing-psifour

    -----------------------------------------------------------------------


    Psi4 started on: Saturday, 20 March 2021 01:31PM

    Process ID: 277525
    Host:       c446-023.stampede2.tacc.utexas.edu
    PSIDATADIR: /home1/07844/xy3866/miniconda3/envs/p4env/share/psi4
    Memory:     500.0 MiB
    Threads:    32
    
  ==> Input File <==

--------------------------------------------------------------------------
#psi4
#
memory 32 gb

molecule  {
0 1
  O        0.9755400    -1.0764940     0.0000010
  O       -1.3738420     1.6199730     0.0000050
  N       -1.7006930    -0.6600630    -0.0000030
  C        0.5224480     0.2188310    -0.0000040
  C       -0.9336490     0.4655780     0.0000000
  C        1.5816790     1.0895450    -0.0000030
  C        2.7992452     0.2613384     0.0000001
  C        2.3428020    -1.0138960     0.0000040
  C       -3.1488560    -0.5988880     0.0000010
  H        1.5004040     2.1673970    -0.0000090
  H       -1.2325350    -1.5568070    -0.0000080
  H        3.7847070     0.6289700     0.0000040
  H        2.8531580    -1.9656810     0.0000030
  H       -3.4251050     0.4551520     0.0000010
  H       -3.5616590    -1.0800960     0.8913170
  H       -3.5616630    -1.0800960    -0.8913140
units angstrom
no_reorient  #important for SAPT in psi4, default
symmetry c1  #important for SAPT in psi4, default
}

set PROPERTIES_ORIGIN ["COM"]
properties('MP2/aug-cc-pvtz', properties = ['dipole'])
--------------------------------------------------------------------------

  Memory set to  29.802 GiB by Python driver.
    SCF Algorithm Type (re)set to DF.

*** tstart() called on c446-023.stampede2.tacc.utexas.edu
*** at Sat Mar 20 13:31:32 2021

   => Loading Basis Set <=

    Name: AUG-CC-PVTZ
    Role: ORBITAL
    Keyword: BASIS
    atoms 1-2   entry O          line   331 file /home1/07844/xy3866/miniconda3/envs/p4env/share/psi4/basis/aug-cc-pvtz.gbs 
    atoms 3     entry N          line   285 file /home1/07844/xy3866/miniconda3/envs/p4env/share/psi4/basis/aug-cc-pvtz.gbs 
    atoms 4-9   entry C          line   239 file /home1/07844/xy3866/miniconda3/envs/p4env/share/psi4/basis/aug-cc-pvtz.gbs 
    atoms 10-16 entry H          line    40 file /home1/07844/xy3866/miniconda3/envs/p4env/share/psi4/basis/aug-cc-pvtz.gbs 


         ---------------------------------------------------------
                                   SCF
               by Justin Turney, Rob Parrish, Andy Simmonett
                          and Daniel G. A. Smith
                              RHF Reference
                       32 Threads,  30517 MiB Core
         ---------------------------------------------------------

  ==> Geometry <==

    Molecular point group: c1
    Full point group: C1

    Geometry (in Angstrom), charge = 0, multiplicity = 1:

       Center              X                  Y                   Z               Mass       
    ------------   -----------------  -----------------  -----------------  -----------------
         O            0.942695753393    -1.093046926676     0.000000799170    15.994914619570
         O           -1.406686246607     1.603420073324     0.000004799170    15.994914619570
         N           -1.733537246607    -0.676615926676    -0.000003200830    14.003074004430
         C            0.489603753393     0.202278073324    -0.000004200830    12.000000000000
         C           -0.966493246607     0.449025073324    -0.000000200830    12.000000000000
         C            1.548834753393     1.072992073324    -0.000003200830    12.000000000000
         C            2.766400953393     0.244785473324    -0.000000100830    12.000000000000
         C            2.309957753393    -1.030448926676     0.000003799170    12.000000000000
         C           -3.181700246607    -0.615440926676     0.000000799170    12.000000000000
         H            1.467559753393     2.150844073324    -0.000009200830     1.007825032230
         H           -1.265379246607    -1.573359926676    -0.000008200830     1.007825032230
         H            3.751862753393     0.612417073324     0.000003799170     1.007825032230
         H            2.820313753393    -1.982233926676     0.000002799170     1.007825032230
         H           -3.457949246607     0.438599073324     0.000000799170     1.007825032230
         H           -3.594503246607    -1.096648926676     0.891316799170     1.007825032230
         H           -3.594507246607    -1.096648926676    -0.891314200830     1.007825032230

  Running in c1 symmetry.

  Rotational constants: A =      0.14424  B =      0.03556  C =      0.02868 [cm^-1]
  Rotational constants: A =   4324.29659  B =   1066.05120  C =    859.87804 [MHz]
  Nuclear repulsion =  428.773287290879352

  Charge       = 0
  Multiplicity = 1
  Electrons    = 66
  Nalpha       = 33
  Nbeta        = 33

  ==> Algorithm <==

  SCF Algorithm Type is DF.
  DIIS enabled.
  MOM disabled.
  Fractional occupation disabled.
  Guess Type is SAD.
  Energy threshold   = 1.00e-10
  Density threshold  = 1.00e-10
  Integral threshold = 1.00e-12

  ==> Primary Basis <==

  Basis Set: AUG-CC-PVTZ
    Blend: AUG-CC-PVTZ
    Number of shells: 189
    Number of basis functions: 575
    Number of Cartesian functions: 670
    Spherical Harmonics?: true
    Max angular momentum: 3

   => Loading Basis Set <=

    Name: (AUG-CC-PVTZ AUX)
    Role: JKFIT
    Keyword: DF_BASIS_SCF
    atoms 1-2   entry O          line   286 file /home1/07844/xy3866/miniconda3/envs/p4env/share/psi4/basis/aug-cc-pvtz-jkfit.gbs 
    atoms 3     entry N          line   224 file /home1/07844/xy3866/miniconda3/envs/p4env/share/psi4/basis/aug-cc-pvtz-jkfit.gbs 
    atoms 4-9   entry C          line   162 file /home1/07844/xy3866/miniconda3/envs/p4env/share/psi4/basis/aug-cc-pvtz-jkfit.gbs 
    atoms 10-16 entry H          line    70 file /home1/07844/xy3866/miniconda3/envs/p4env/share/psi4/basis/aug-cc-pvtz-jkfit.gbs 

  ==> Integral Setup <==

  DFHelper Memory: AOs need 2.933 GiB; user supplied 22.352 GiB. Using in-core AOs.

  ==> MemDFJK: Density-Fitted J/K Matrices <==

    J tasked:                   Yes
    K tasked:                   Yes
    wK tasked:                   No
    OpenMP threads:              32
    Memory [MiB]:             22888
    Algorithm:                 Core
    Schwarz Cutoff:           1E-12
    Mask sparsity (%):      10.4312
    Fitting Condition:        1E-10

   => Auxiliary Basis Set <=

  Basis Set: (AUG-CC-PVTZ AUX)
    Blend: AUG-CC-PVTZ-JKFIT
    Number of shells: 368
    Number of basis functions: 1258
    Number of Cartesian functions: 1564
    Spherical Harmonics?: true
    Max angular momentum: 4

  Minimum eigenvalue in the overlap matrix is 3.1331350311E-06.
  Reciprocal condition number of the overlap matrix is 1.9219874403E-07.
    Using symmetric orthogonalization.

  ==> Pre-Iterations <==

  SCF Guess: Superposition of Atomic Densities via on-the-fly atomic UHF (no occupation information).

   -------------------------
    Irrep   Nso     Nmo    
   -------------------------
     A        575     575 
   -------------------------
    Total     575     575
   -------------------------

  ==> Iterations <==

                           Total Energy        Delta E     RMS |[F,P]|

   @DF-RHF iter SAD:  -434.75843603330929   -4.34758e+02   0.00000e+00 
   @DF-RHF iter   1:  -435.35960754729774   -6.01172e-01   1.18882e-03 DIIS
   @DF-RHF iter   2:  -435.53591788224213   -1.76310e-01   7.04766e-04 DIIS
   @DF-RHF iter   3:  -435.59574862886700   -5.98307e-02   1.62789e-04 DIIS
   @DF-RHF iter   4:  -435.60030324022779   -4.55461e-03   6.14624e-05 DIIS
   @DF-RHF iter   5:  -435.60104069378303   -7.37454e-04   1.28715e-05 DIIS
   @DF-RHF iter   6:  -435.60110832667965   -6.76329e-05   6.31222e-06 DIIS
   @DF-RHF iter   7:  -435.60112462607179   -1.62994e-05   2.41764e-06 DIIS
   @DF-RHF iter   8:  -435.60112795923629   -3.33316e-06   9.34534e-07 DIIS
   @DF-RHF iter   9:  -435.60112836667457   -4.07438e-07   3.59303e-07 DIIS
   @DF-RHF iter  10:  -435.60112840845898   -4.17844e-08   1.04055e-07 DIIS
   @DF-RHF iter  11:  -435.60112841310439   -4.64541e-09   4.10487e-08 DIIS
   @DF-RHF iter  12:  -435.60112841355834   -4.53952e-10   1.45784e-08 DIIS
   @DF-RHF iter  13:  -435.60112841364742   -8.90736e-11   4.82757e-09 DIIS
   @DF-RHF iter  14:  -435.60112841365549   -8.07177e-12   1.91717e-09 DIIS
   @DF-RHF iter  15:  -435.60112841365878   -3.29692e-12   1.03035e-09 DIIS
   @DF-RHF iter  16:  -435.60112841365867    1.13687e-13   4.05420e-10 DIIS
   @DF-RHF iter  17:  -435.60112841365850    1.70530e-13   1.79754e-10 DIIS
   @DF-RHF iter  18:  -435.60112841365941   -9.09495e-13   6.80971e-11 DIIS
  Energy and wave function converged.


  ==> Post-Iterations <==

    Orbital Energies [Eh]
    ---------------------

    Doubly Occupied:                                                      

       1A    -20.641754     2A    -20.516152     3A    -15.589515  
       4A    -11.360942     5A    -11.312103     6A    -11.301890  
       7A    -11.259657     8A    -11.256376     9A    -11.248482  
      10A     -1.473127    11A     -1.371304    12A     -1.231817  
      13A     -1.094339    14A     -1.040625    15A     -0.954948  
      16A     -0.839666    17A     -0.822828    18A     -0.774494  
      19A     -0.765153    20A     -0.670731    21A     -0.658241  
      22A     -0.643364    23A     -0.618890    24A     -0.606978  
      25A     -0.587474    26A     -0.578780    27A     -0.552560  
      28A     -0.541266    29A     -0.536662    30A     -0.434150  
      31A     -0.409599    32A     -0.391774    33A     -0.335714  

    Virtual:                                                              

      34A      0.023685    35A      0.030236    36A      0.035519  
      37A      0.045649    38A      0.048700    39A      0.051971  
      40A      0.070045    41A      0.078638    42A      0.083541  
      43A      0.084983    44A      0.093017    45A      0.104637  
      46A      0.110246    47A      0.112321    48A      0.113395  
      49A      0.117332    50A      0.122990    51A      0.129944  
      52A      0.133340    53A      0.135345    54A      0.143581  
      55A      0.146513    56A      0.147354    57A      0.154831  
      58A      0.161067    59A      0.165770    60A      0.179310  
      61A      0.186356    62A      0.187811    63A      0.192973  
      64A      0.205182    65A      0.211630    66A      0.228293  
      67A      0.231100    68A      0.231309    69A      0.243175  
      70A      0.246683    71A      0.249727    72A      0.267507  
      73A      0.269322    74A      0.272046    75A      0.279826  
      76A      0.286206    77A      0.287164    78A      0.295830  
      79A      0.297799    80A      0.308132    81A      0.308914  
      82A      0.312324    83A      0.319436    84A      0.329948  
      85A      0.332704    86A      0.337918    87A      0.342957  
      88A      0.345233    89A      0.347133    90A      0.350917  
      91A      0.359793    92A      0.367491    93A      0.375860  
      94A      0.389332    95A      0.399564    96A      0.400798  
      97A      0.404230    98A      0.407915    99A      0.410176  
     100A      0.419541   101A      0.424319   102A      0.427179  
     103A      0.438579   104A      0.445515   105A      0.453766  
     106A      0.456091   107A      0.458280   108A      0.466726  
     109A      0.467036   110A      0.473112   111A      0.479424  
     112A      0.480083   113A      0.485721   114A      0.487446  
     115A      0.490760   116A      0.497055   117A      0.504777  
     118A      0.511246   119A      0.511290   120A      0.512577  
     121A      0.525331   122A      0.535204   123A      0.538038  
     124A      0.538876   125A      0.546920   126A      0.558093  
     127A      0.566672   128A      0.568279   129A      0.579979  
     130A      0.583084   131A      0.591508   132A      0.600716  
     133A      0.607063   134A      0.625358   135A      0.630918  
     136A      0.634323   137A      0.644854   138A      0.648126  
     139A      0.659266   140A      0.670241   141A      0.675116  
     142A      0.678785   143A      0.691941   144A      0.707011  
     145A      0.716796   146A      0.718457   147A      0.735945  
     148A      0.743762   149A      0.751635   150A      0.771855  
     151A      0.771910   152A      0.774820   153A      0.795841  
     154A      0.799959   155A      0.812150   156A      0.822128  
     157A      0.826467   158A      0.830140   159A      0.841293  
     160A      0.854764   161A      0.858160   162A      0.862364  
     163A      0.862995   164A      0.872248   165A      0.879401  
     166A      0.882686   167A      0.892687   168A      0.899487  
     169A      0.903086   170A      0.904502   171A      0.913139  
     172A      0.933265   173A      0.938659   174A      0.939171  
     175A      0.951318   176A      0.951666   177A      0.961358  
     178A      0.963939   179A      0.968212   180A      0.981013  
     181A      0.981418   182A      0.983564   183A      0.989385  
     184A      1.001211   185A      1.011196   186A      1.016882  
     187A      1.017180   188A      1.036881   189A      1.041669  
     190A      1.047970   191A      1.052591   192A      1.057517  
     193A      1.069530   194A      1.078267   195A      1.081347  
     196A      1.087978   197A      1.090264   198A      1.101573  
     199A      1.103507   200A      1.117678   201A      1.121263  
     202A      1.128734   203A      1.131728   204A      1.134518  
     205A      1.141184   206A      1.144166   207A      1.156701  
     208A      1.164171   209A      1.169053   210A      1.180956  
     211A      1.181283   212A      1.185398   213A      1.194947  
     214A      1.201874   215A      1.213606   216A      1.228272  
     217A      1.235493   218A      1.237569   219A      1.241602  
     220A      1.255031   221A      1.271155   222A      1.271213  
     223A      1.282011   224A      1.304599   225A      1.305181  
     226A      1.314268   227A      1.315545   228A      1.333000  
     229A      1.339771   230A      1.354787   231A      1.357698  
     232A      1.389840   233A      1.391978   234A      1.404181  
     235A      1.412269   236A      1.413098   237A      1.435669  
     238A      1.447401   239A      1.448628   240A      1.452334  
     241A      1.454938   242A      1.463800   243A      1.486866  
     244A      1.495527   245A      1.504499   246A      1.513354  
     247A      1.515392   248A      1.534871   249A      1.542387  
     250A      1.561543   251A      1.568767   252A      1.581757  
     253A      1.584214   254A      1.594807   255A      1.605763  
     256A      1.618454   257A      1.618976   258A      1.627391  
     259A      1.639896   260A      1.669856   261A      1.684531  
     262A      1.687828   263A      1.694514   264A      1.702283  
     265A      1.718761   266A      1.722548   267A      1.736795  
     268A      1.754442   269A      1.763840   270A      1.772933  
     271A      1.773087   272A      1.780259   273A      1.786407  
     274A      1.793034   275A      1.800911   276A      1.804808  
     277A      1.834458   278A      1.848161   279A      1.881337  
     280A      1.885793   281A      1.894296   282A      1.898744  
     283A      1.923661   284A      1.926257   285A      1.938267  
     286A      1.940830   287A      1.946114   288A      1.957596  
     289A      1.980493   290A      1.986898   291A      1.990404  
     292A      2.005851   293A      2.014963   294A      2.032474  
     295A      2.041764   296A      2.042058   297A      2.058795  
     298A      2.078476   299A      2.086643   300A      2.104686  
     301A      2.116994   302A      2.122398   303A      2.148623  
     304A      2.165204   305A      2.172506   306A      2.193922  
     307A      2.200601   308A      2.209810   309A      2.230688  
     310A      2.238304   311A      2.243077   312A      2.245640  
     313A      2.263016   314A      2.294648   315A      2.303520  
     316A      2.318333   317A      2.333224   318A      2.348151  
     319A      2.367450   320A      2.391107   321A      2.393442  
     322A      2.404196   323A      2.427293   324A      2.432885  
     325A      2.443744   326A      2.466264   327A      2.485055  
     328A      2.501577   329A      2.508801   330A      2.536166  
     331A      2.551664   332A      2.555648   333A      2.580815  
     334A      2.589209   335A      2.610413   336A      2.630912  
     337A      2.639233   338A      2.677522   339A      2.688909  
     340A      2.706633   341A      2.715817   342A      2.720860  
     343A      2.725630   344A      2.766049   345A      2.790855  
     346A      2.802108   347A      2.841846   348A      2.863719  
     349A      2.878623   350A      2.891254   351A      2.911678  
     352A      2.945906   353A      2.964511   354A      2.979475  
     355A      2.992139   356A      3.022631   357A      3.064764  
     358A      3.084278   359A      3.103144   360A      3.123593  
     361A      3.135616   362A      3.180673   363A      3.186531  
     364A      3.207420   365A      3.219326   366A      3.231616  
     367A      3.268594   368A      3.288102   369A      3.301515  
     370A      3.336746   371A      3.351766   372A      3.360814  
     373A      3.379733   374A      3.383586   375A      3.386298  
     376A      3.419345   377A      3.423826   378A      3.427989  
     379A      3.456139   380A      3.470139   381A      3.506035  
     382A      3.509490   383A      3.520399   384A      3.546775  
     385A      3.560304   386A      3.565669   387A      3.577562  
     388A      3.591181   389A      3.615747   390A      3.617842  
     391A      3.624106   392A      3.628181   393A      3.652347  
     394A      3.654827   395A      3.671636   396A      3.716536  
     397A      3.735138   398A      3.738291   399A      3.753160  
     400A      3.773821   401A      3.786591   402A      3.797387  
     403A      3.821392   404A      3.822910   405A      3.836634  
     406A      3.856618   407A      3.867206   408A      3.888022  
     409A      3.891781   410A      3.911525   411A      3.915587  
     412A      3.929148   413A      3.946976   414A      3.948859  
     415A      3.975690   416A      3.990063   417A      4.002906  
     418A      4.026327   419A      4.026987   420A      4.035845  
     421A      4.041118   422A      4.068930   423A      4.082658  
     424A      4.087836   425A      4.117679   426A      4.125522  
     427A      4.130624   428A      4.140401   429A      4.152774  
     430A      4.165798   431A      4.207431   432A      4.219243  
     433A      4.227777   434A      4.236862   435A      4.249677  
     436A      4.261520   437A      4.262388   438A      4.274699  
     439A      4.289709   440A      4.297604   441A      4.311501  
     442A      4.339309   443A      4.349330   444A      4.352852  
     445A      4.377847   446A      4.396518   447A      4.407740  
     448A      4.416518   449A      4.439926   450A      4.445065  
     451A      4.486839   452A      4.490261   453A      4.498113  
     454A      4.523693   455A      4.538082   456A      4.574817  
     457A      4.583342   458A      4.605462   459A      4.650455  
     460A      4.665874   461A      4.685020   462A      4.692456  
     463A      4.711625   464A      4.713032   465A      4.764304  
     466A      4.784572   467A      4.784615   468A      4.801477  
     469A      4.826082   470A      4.850261   471A      4.851096  
     472A      4.866941   473A      4.884904   474A      4.908381  
     475A      4.922399   476A      4.941880   477A      4.959240  
     478A      4.959541   479A      4.985322   480A      5.004416  
     481A      5.040728   482A      5.044840   483A      5.052934  
     484A      5.084638   485A      5.091923   486A      5.131688  
     487A      5.135720   488A      5.147339   489A      5.151266  
     490A      5.161018   491A      5.189662   492A      5.214560  
     493A      5.217798   494A      5.250046   495A      5.320440  
     496A      5.330792   497A      5.372115   498A      5.378811  
     499A      5.393954   500A      5.449043   501A      5.503854  
     502A      5.507518   503A      5.525777   504A      5.565522  
     505A      5.592035   506A      5.651076   507A      5.665687  
     508A      5.698638   509A      5.703475   510A      5.719823  
     511A      5.764592   512A      5.770606   513A      5.814745  
     514A      5.835361   515A      5.883873   516A      5.884098  
     517A      5.933335   518A      5.992453   519A      6.068283  
     520A      6.118173   521A      6.157492   522A      6.196122  
     523A      6.202488   524A      6.251472   525A      6.261107  
     526A      6.294489   527A      6.309844   528A      6.356973  
     529A      6.456092   530A      6.506638   531A      6.550135  
     532A      6.605421   533A      6.665243   534A      6.691704  
     535A      6.708433   536A      6.743542   537A      6.744964  
     538A      6.772835   539A      6.812374   540A      6.856058  
     541A      6.876674   542A      6.896811   543A      6.951194  
     544A      7.003102   545A      7.042434   546A      7.052099  
     547A      7.080546   548A      7.138403   549A      7.205071  
     550A      7.226796   551A      7.407108   552A      7.447663  
     553A      7.461120   554A      7.522755   555A      7.618865  
     556A      7.654297   557A      7.689113   558A      7.736297  
     559A      7.752126   560A      7.827729   561A      7.873475  
     562A      7.963842   563A      8.009121   564A      8.041849  
     565A      8.398972   566A      8.525137   567A     14.773217  
     568A     16.441910   569A     16.740112   570A     17.479108  
     571A     17.607337   572A     18.458645   573A     18.654446  
     574A     19.411332   575A     20.320584  

    Final Occupation by Irrep:
              A 
    DOCC [    33 ]

  @DF-RHF Final Energy:  -435.60112841365941

   => Energetics <=

    Nuclear Repulsion Energy =            428.7732872908793524
    One-Electron Energy =               -1443.9061201608612919
    Two-Electron Energy =                 579.5317044563225863
    Total Energy =                       -435.6011284136593531

Computation Completed

*** tstop() called on c446-023.stampede2.tacc.utexas.edu at Sat Mar 20 13:32:01 2021
Module time:
	user time   =     491.85 seconds =       8.20 minutes
	system time =      38.06 seconds =       0.63 minutes
	total time  =         29 seconds =       0.48 minutes
Total time:
	user time   =     491.85 seconds =       8.20 minutes
	system time =      38.06 seconds =       0.63 minutes
	total time  =         29 seconds =       0.48 minutes
   => Loading Basis Set <=

    Name: (AUG-CC-PVTZ AUX)
    Role: RIFIT
    Keyword: DF_BASIS_MP2
    atoms 1-2   entry O          line   264 file /home1/07844/xy3866/miniconda3/envs/p4env/share/psi4/basis/aug-cc-pvtz-ri.gbs 
    atoms 3     entry N          line   206 file /home1/07844/xy3866/miniconda3/envs/p4env/share/psi4/basis/aug-cc-pvtz-ri.gbs 
    atoms 4-9   entry C          line   148 file /home1/07844/xy3866/miniconda3/envs/p4env/share/psi4/basis/aug-cc-pvtz-ri.gbs 
    atoms 10-16 entry H          line    30 file /home1/07844/xy3866/miniconda3/envs/p4env/share/psi4/basis/aug-cc-pvtz-ri.gbs 


*** tstart() called on c446-023.stampede2.tacc.utexas.edu
*** at Sat Mar 20 13:32:02 2021


  //>>>>>>>>>>>>>>>>>>>>>>>>>>>>>>>>>>>//
  //               DFMP2               //
  //<<<<<<<<<<<<<<<<<<<<<<<<<<<<<<<<<<<//

	 --------------------------------------------------------
	                          DF-MP2                         
	      2nd-Order Density-Fitted Moller-Plesset Theory     
	              RMP2 Wavefunction,  32 Threads             
	                                                         
	        Rob Parrish, Justin Turney, Andy Simmonett,      
	           Ed Hohenstein, and C. David Sherrill          
	 --------------------------------------------------------

   => Auxiliary Basis Set <=

  Basis Set: (AUG-CC-PVTZ AUX)
    Blend: AUG-CC-PVTZ-RI
    Number of shells: 350
    Number of basis functions: 1276
    Number of Cartesian functions: 1609
    Spherical Harmonics?: true
    Max angular momentum: 4

	 --------------------------------------------------------
	                 NBF =   575, NAUX =  1276
	 --------------------------------------------------------
	   CLASS    FOCC     OCC    AOCC    AVIR     VIR    FVIR
	   PAIRS       0      33      33     542     542       0
	 --------------------------------------------------------

  DFHelper Memory: AOs need 3.056 GiB; user supplied 22.352 GiB. Using in-core AOs.


         ------------------------------------------------------------
                                     CPHF                           
                                  Rob Parrish                       
         ------------------------------------------------------------

  ==> Geometry <==

    Molecular point group: c1
    Full point group: C1

    Geometry (in Angstrom), charge = 0, multiplicity = 1:

       Center              X                  Y                   Z               Mass       
    ------------   -----------------  -----------------  -----------------  -----------------
         O            0.942695753393    -1.093046926676     0.000000799170    15.994914619570
         O           -1.406686246607     1.603420073324     0.000004799170    15.994914619570
         N           -1.733537246607    -0.676615926676    -0.000003200830    14.003074004430
         C            0.489603753393     0.202278073324    -0.000004200830    12.000000000000
         C           -0.966493246607     0.449025073324    -0.000000200830    12.000000000000
         C            1.548834753393     1.072992073324    -0.000003200830    12.000000000000
         C            2.766400953393     0.244785473324    -0.000000100830    12.000000000000
         C            2.309957753393    -1.030448926676     0.000003799170    12.000000000000
         C           -3.181700246607    -0.615440926676     0.000000799170    12.000000000000
         H            1.467559753393     2.150844073324    -0.000009200830     1.007825032230
         H           -1.265379246607    -1.573359926676    -0.000008200830     1.007825032230
         H            3.751862753393     0.612417073324     0.000003799170     1.007825032230
         H            2.820313753393    -1.982233926676     0.000002799170     1.007825032230
         H           -3.457949246607     0.438599073324     0.000000799170     1.007825032230
         H           -3.594503246607    -1.096648926676     0.891316799170     1.007825032230
         H           -3.594507246607    -1.096648926676    -0.891314200830     1.007825032230

  Nuclear repulsion =  428.773287290879352
  Reference energy  = -435.601128413659410

  ==> Basis Set <==

  Basis Set: AUG-CC-PVTZ
    Blend: AUG-CC-PVTZ
    Number of shells: 189
    Number of basis functions: 575
    Number of Cartesian functions: 670
    Spherical Harmonics?: true
    Max angular momentum: 3

  ==> CGRSolver (by Rob Parrish) <==

   Number of roots    =         1
   Preconditioning    =    JACOBI
   Convergence cutoff =     1E-06
   Maximum iterations =       100

  ==> CPHFRHamiltonian (by Rob Parrish) <== 

  ==> MemDFJK: Density-Fitted J/K Matrices <==

    J tasked:                   Yes
    K tasked:                   Yes
    wK tasked:                   No
    OpenMP threads:              32
    Memory [MiB]:             22888
    Algorithm:                 Core
    Schwarz Cutoff:           1E-12
    Mask sparsity (%):       6.4629
    Fitting Condition:        1E-10

   => Auxiliary Basis Set <=

  Basis Set: (AUG-CC-PVTZ AUX)
    Blend: AUG-CC-PVTZ-JKFIT
    Number of shells: 368
    Number of basis functions: 1258
    Number of Cartesian functions: 1564
    Spherical Harmonics?: true
    Max angular momentum: 4

  ==> CPHF Iterations <==

  => Iterations <=

             Iter  Converged  Remaining    Residual
  CGR           1          0          1   1.273E-01
  CGR           2          0          1   4.247E-02
  CGR           3          0          1   1.996E-02
  CGR           4          0          1   6.714E-03
  CGR           5          0          1   3.016E-03
  CGR           6          0          1   1.315E-03
  CGR           7          0          1   4.780E-04
  CGR           8          0          1   2.133E-04
  CGR           9          0          1   7.606E-05
  CGR          10          0          1   2.660E-05
  CGR          11          0          1   9.250E-06
  CGR          12          0          1   2.622E-06
  CGR          13          1          0   9.149E-07

    CGRSolver converged.

	-----------------------------------------------------------
	 ==================> DF-MP2 Energies <==================== 
	-----------------------------------------------------------
	 Reference Energy          =    -435.6011284136594099 [Eh]
	 Singles Energy            =      -0.0000000000000000 [Eh]
	 Same-Spin Energy          =      -0.4467889152512220 [Eh]
	 Opposite-Spin Energy      =      -1.3706243440563441 [Eh]
	 Correlation Energy        =      -1.8174132593075663 [Eh]
	 Total Energy              =    -437.4185416729669669 [Eh]
	-----------------------------------------------------------
	 ================> DF-SCS-MP2 Energies <================== 
	-----------------------------------------------------------
	 SCS Same-Spin Scale       =       0.3333333333333333 [-]
	 SCS Opposite-Spin Scale   =       1.2000000000000000 [-]
	 SCS Same-Spin Energy      =      -0.1489296384170740 [Eh]
	 SCS Opposite-Spin Energy  =      -1.6447492128676129 [Eh]
	 SCS Correlation Energy    =      -1.7936788512846868 [Eh]
	 SCS Total Energy          =    -437.3948072649441201 [Eh]
	-----------------------------------------------------------



Properties will be evaluated at   0.000000,  -0.000000,  -0.000000 [a0]

Properties computed using the MP2 density matrix

  Nuclear Dipole Moment: [e a0]
     X:    -3.6276      Y:    -2.3833      Z:    -0.0000

  Electronic Dipole Moment: [e a0]
     X:     4.0517      Y:     1.1162      Z:     0.0000

  Dipole Moment: [e a0]
     X:     0.4240      Y:    -1.2671      Z:    -0.0000     Total:     1.3362

  Dipole Moment: [D]
     X:     1.0777      Y:    -3.2207      Z:    -0.0000     Total:     3.3963


*** tstop() called on c446-023.stampede2.tacc.utexas.edu at Sat Mar 20 13:34:41 2021
Module time:
	user time   =    1281.37 seconds =      21.36 minutes
	system time =      44.26 seconds =       0.74 minutes
	total time  =        159 seconds =       2.65 minutes
Total time:
	user time   =    1774.03 seconds =      29.57 minutes
	system time =      82.34 seconds =       1.37 minutes
	total time  =        189 seconds =       3.15 minutes

    Psi4 stopped on: Saturday, 20 March 2021 01:34PM
    Psi4 wall time for execution: 0:03:09.11

*** Psi4 exiting successfully. Buy a developer a beer!
