
    -----------------------------------------------------------------------
          Psi4: An Open-Source Ab Initio Electronic Structure Package
                               Psi4 1.3.2 release

                         Git: Rev {HEAD} ecbda83 


    R. M. Parrish, L. A. Burns, D. G. A. Smith, A. C. Simmonett,
    A. E. DePrince III, E. G. Hohenstein, U. Bozkaya, A. Yu. Sokolov,
    R. Di Remigio, R. M. Richard, J. F. Gonthier, A. M. James,
    H. R. McAlexander, A. Kumar, M. Saitow, X. Wang, B. P. Pritchard,
    P. Verma, H. F. Schaefer III, K. Patkowski, R. A. King, E. F. Valeev,
    F. A. Evangelista, J. M. Turney, T. D. Crawford, and C. D. Sherrill,
    J. Chem. Theory Comput. 13(7) pp 3185--3197 (2017).
    (doi: 10.1021/acs.jctc.7b00174)


                         Additional Contributions by
    P. Kraus, H. Kruse, M. H. Lechner, M. C. Schieber, R. A. Shaw,
    A. Alenaizan, R. Galvelis, Z. L. Glick, S. Lehtola, and J. P. Misiewicz

    -----------------------------------------------------------------------


    Psi4 started on: Tuesday, 03 November 2020 03:36PM

    Process ID: 94950
    Host:       node142.bme.utexas.edu
    PSIDATADIR: /home/xy3866/psi4conda/share/psi4
    Memory:     500.0 MiB
    Threads:    8
    
  ==> Input File <==

--------------------------------------------------------------------------
#psi4
#
memory 32 gb

molecule  {
0 1
  C        0.0747750     0.1439390    -0.0006420
  O        0.3831481     1.4369178     0.0001625
  N        1.0295580    -0.8342780    -0.0002470
  H        1.9994870    -0.5504990     0.0019500
  H        0.8093100    -1.8174470     0.0004310
  C       -1.3605510    -0.3434580     0.0000270
  H       -1.8586250     0.0456800     0.8905520
  H       -1.4535700    -1.4316540    -0.0164900
  H       -1.8684430     0.0738120    -0.8718410
units angstrom
no_reorient  #important for SAPT in psi4, default
symmetry c1  #important for SAPT in psi4, default
}

set PROPERTIES_ORIGIN ["COM"]
properties('MP2/aug-cc-pvtz', properties = ['dipole'])
--------------------------------------------------------------------------

  Memory set to  29.802 GiB by Python driver.
    SCF Algorithm Type (re)set to DF.

*** tstart() called on node142.bme.utexas.edu
*** at Tue Nov  3 15:36:35 2020

   => Loading Basis Set <=

    Name: AUG-CC-PVTZ
    Role: ORBITAL
    Keyword: BASIS
    atoms 1, 6     entry C          line   235 file /home/xy3866/psi4conda/share/psi4/basis/aug-cc-pvtz.gbs 
    atoms 2        entry O          line   327 file /home/xy3866/psi4conda/share/psi4/basis/aug-cc-pvtz.gbs 
    atoms 3        entry N          line   281 file /home/xy3866/psi4conda/share/psi4/basis/aug-cc-pvtz.gbs 
    atoms 4-5, 7-9 entry H          line    36 file /home/xy3866/psi4conda/share/psi4/basis/aug-cc-pvtz.gbs 


         ---------------------------------------------------------
                                   SCF
               by Justin Turney, Rob Parrish, Andy Simmonett
                          and Daniel G. A. Smith
                              RHF Reference
                        8 Threads,  30517 MiB Core
         ---------------------------------------------------------

  ==> Geometry <==

    Molecular point group: c1
    Full point group: C1

    Geometry (in Angstrom), charge = 0, multiplicity = 1:

       Center              X                  Y                   Z               Mass       
    ------------   -----------------  -----------------  -----------------  -----------------
         C            0.028605986900     0.055896281528    -0.000580994734    12.000000000000
         O            0.336979086900     1.348875081528     0.000223505266    15.994914619570
         N            0.983388986900    -0.922320718472    -0.000185994734    14.003074004430
         H            1.953317986900    -0.638541718472     0.002011005266     1.007825032230
         H            0.763140986900    -1.905489718472     0.000492005266     1.007825032230
         C           -1.406720013100    -0.431500718472     0.000088005266    12.000000000000
         H           -1.904794013100    -0.042362718472     0.890613005266     1.007825032230
         H           -1.499739013100    -1.519696718472    -0.016428994734     1.007825032230
         H           -1.914612013100    -0.014230718472    -0.871779994734     1.007825032230

  Running in c1 symmetry.

  Rotational constants: A =      0.33278  B =      0.30471  C =      0.16390 [cm^-1]
  Rotational constants: A =   9976.48160  B =   9134.83672  C =   4913.74131 [MHz]
  Nuclear repulsion =  118.685292678784194

  Charge       = 0
  Multiplicity = 1
  Electrons    = 32
  Nalpha       = 16
  Nbeta        = 16

  ==> Algorithm <==

  SCF Algorithm Type is DF.
  DIIS enabled.
  MOM disabled.
  Fractional occupation disabled.
  Guess Type is SAD.
  Energy threshold   = 1.00e-10
  Density threshold  = 1.00e-10
  Integral threshold = 0.00e+00

  ==> Primary Basis <==

  Basis Set: AUG-CC-PVTZ
    Blend: AUG-CC-PVTZ
    Number of shells: 101
    Number of basis function: 299
    Number of Cartesian functions: 345
    Spherical Harmonics?: true
    Max angular momentum: 3

   => Loading Basis Set <=

    Name: (AUG-CC-PVTZ AUX)
    Role: JKFIT
    Keyword: DF_BASIS_SCF
    atoms 1, 6     entry C          line   162 file /home/xy3866/psi4conda/share/psi4/basis/aug-cc-pvtz-jkfit.gbs 
    atoms 2        entry O          line   286 file /home/xy3866/psi4conda/share/psi4/basis/aug-cc-pvtz-jkfit.gbs 
    atoms 3        entry N          line   224 file /home/xy3866/psi4conda/share/psi4/basis/aug-cc-pvtz-jkfit.gbs 
    atoms 4-5, 7-9 entry H          line    70 file /home/xy3866/psi4conda/share/psi4/basis/aug-cc-pvtz-jkfit.gbs 

  ==> Pre-Iterations <==

   -------------------------------------------------------
    Irrep   Nso     Nmo     Nalpha   Nbeta   Ndocc  Nsocc
   -------------------------------------------------------
     A        299     299       0       0       0       0
   -------------------------------------------------------
    Total     299     299      16      16      16       0
   -------------------------------------------------------

  ==> Integral Setup <==

  DFHelper Memory: AOs need 0.455 GiB; user supplied 22.352 GiB. Using in-core AOs.

  ==> MemDFJK: Density-Fitted J/K Matrices <==

    J tasked:                   Yes
    K tasked:                   Yes
    wK tasked:                   No
    OpenMP threads:               8
    Memory [MiB]:             22888
    Algorithm:                 Core
    Schwarz Cutoff:           1E-12
    Mask sparsity (%):       0.4273
    Fitting Condition:        1E-10

   => Auxiliary Basis Set <=

  Basis Set: (AUG-CC-PVTZ AUX)
    Blend: AUG-CC-PVTZ-JKFIT
    Number of shells: 190
    Number of basis function: 646
    Number of Cartesian functions: 799
    Spherical Harmonics?: true
    Max angular momentum: 4

  Minimum eigenvalue in the overlap matrix is 2.0120328651E-05.
  Using Symmetric Orthogonalization.

  SCF Guess: Superposition of Atomic Densities via on-the-fly atomic UHF.

  ==> Iterations <==

                           Total Energy        Delta E     RMS |[F,P]|

   @DF-RHF iter SAD:  -206.97620149797564   -2.06976e+02   0.00000e+00 
   @DF-RHF iter   1:  -207.85406025176184   -8.77859e-01   2.07503e-03 DIIS
   @DF-RHF iter   2:  -207.97882286221804   -1.24763e-01   1.37942e-03 DIIS
   @DF-RHF iter   3:  -208.03581637394322   -5.69935e-02   2.71563e-04 DIIS
   @DF-RHF iter   4:  -208.03911747443740   -3.30110e-03   9.63777e-05 DIIS
   @DF-RHF iter   5:  -208.03973159549199   -6.14121e-04   1.90994e-05 DIIS
   @DF-RHF iter   6:  -208.03976308142924   -3.14859e-05   8.17300e-06 DIIS
   @DF-RHF iter   7:  -208.03976839301515   -5.31159e-06   2.37041e-06 DIIS
   @DF-RHF iter   8:  -208.03976916483586   -7.71821e-07   8.35695e-07 DIIS
   @DF-RHF iter   9:  -208.03976927539944   -1.10564e-07   2.83225e-07 DIIS
   @DF-RHF iter  10:  -208.03976928892578   -1.35263e-08   1.20574e-07 DIIS
   @DF-RHF iter  11:  -208.03976929099724   -2.07146e-09   4.11938e-08 DIIS
   @DF-RHF iter  12:  -208.03976929122084   -2.23594e-10   9.19356e-09 DIIS
   @DF-RHF iter  13:  -208.03976929123195   -1.11129e-11   1.79820e-09 DIIS
   @DF-RHF iter  14:  -208.03976929123220   -2.55795e-13   4.04377e-10 DIIS
   @DF-RHF iter  15:  -208.03976929123260   -3.97904e-13   1.26678e-10 DIIS
   @DF-RHF iter  16:  -208.03976929123246    1.42109e-13   3.61735e-11 DIIS
  Energy and wave function converged.


  ==> Post-Iterations <==

    Orbital Energies [Eh]
    ---------------------

    Doubly Occupied:                                                      

       1A    -20.514748     2A    -15.605560     3A    -11.375369  
       4A    -11.249122     5A     -1.320066     6A     -1.212389  
       7A     -1.011812     8A     -0.811784     9A     -0.734235  
      10A     -0.654914    11A     -0.610240    12A     -0.568049  
      13A     -0.557256    14A     -0.516381    15A     -0.420060  
      16A     -0.405626  

    Virtual:                                                              

      17A      0.019416    18A      0.034717    19A      0.044561  
      20A      0.048783    21A      0.060388    22A      0.085395  
      23A      0.106166    24A      0.106242    25A      0.116700  
      26A      0.121418    27A      0.132627    28A      0.140899  
      29A      0.145606    30A      0.149615    31A      0.159248  
      32A      0.161075    33A      0.177217    34A      0.212836  
      35A      0.226578    36A      0.231771    37A      0.240848  
      38A      0.257372    39A      0.260230    40A      0.269420  
      41A      0.290955    42A      0.295454    43A      0.307774  
      44A      0.314827    45A      0.334198    46A      0.340485  
      47A      0.341187    48A      0.353341    49A      0.360239  
      50A      0.361909    51A      0.373973    52A      0.384553  
      53A      0.391292    54A      0.409901    55A      0.411811  
      56A      0.417745    57A      0.429308    58A      0.434130  
      59A      0.449941    60A      0.464902    61A      0.473017  
      62A      0.494927    63A      0.499466    64A      0.515786  
      65A      0.522066    66A      0.524597    67A      0.554640  
      68A      0.561882    69A      0.571506    70A      0.594955  
      71A      0.607422    72A      0.629890    73A      0.637241  
      74A      0.641754    75A      0.679299    76A      0.723624  
      77A      0.732648    78A      0.762268    79A      0.768505  
      80A      0.781648    81A      0.805850    82A      0.817443  
      83A      0.827146    84A      0.830117    85A      0.831596  
      86A      0.863493    87A      0.872119    88A      0.874774  
      89A      0.895692    90A      0.898580    91A      0.919249  
      92A      0.923673    93A      0.944228    94A      0.964141  
      95A      0.980580    96A      0.998985    97A      1.000528  
      98A      1.014015    99A      1.020642   100A      1.026690  
     101A      1.047868   102A      1.058879   103A      1.061392  
     104A      1.070815   105A      1.079214   106A      1.098798  
     107A      1.104823   108A      1.120120   109A      1.121312  
     110A      1.138204   111A      1.162044   112A      1.176543  
     113A      1.192288   114A      1.207827   115A      1.228300  
     116A      1.231506   117A      1.248539   118A      1.259462  
     119A      1.271008   120A      1.302807   121A      1.326405  
     122A      1.336750   123A      1.345140   124A      1.346057  
     125A      1.396357   126A      1.400474   127A      1.432954  
     128A      1.435668   129A      1.458286   130A      1.492430  
     131A      1.497637   132A      1.505114   133A      1.532392  
     134A      1.560897   135A      1.569567   136A      1.596664  
     137A      1.608047   138A      1.627255   139A      1.662747  
     140A      1.667925   141A      1.687469   142A      1.704343  
     143A      1.721784   144A      1.768855   145A      1.774620  
     146A      1.819216   147A      1.837596   148A      1.841918  
     149A      1.863683   150A      1.869662   151A      1.894330  
     152A      1.940726   153A      1.978536   154A      2.021388  
     155A      2.035509   156A      2.066062   157A      2.090354  
     158A      2.094819   159A      2.126677   160A      2.150642  
     161A      2.187164   162A      2.202393   163A      2.224057  
     164A      2.236631   165A      2.262111   166A      2.300269  
     167A      2.313836   168A      2.370083   169A      2.385266  
     170A      2.414773   171A      2.435161   172A      2.473271  
     173A      2.495933   174A      2.514321   175A      2.537781  
     176A      2.577470   177A      2.608970   178A      2.615543  
     179A      2.681255   180A      2.686589   181A      2.754385  
     182A      2.763058   183A      2.802306   184A      2.874984  
     185A      2.921678   186A      2.939457   187A      2.974301  
     188A      3.060278   189A      3.121306   190A      3.193364  
     191A      3.217483   192A      3.346226   193A      3.355801  
     194A      3.389303   195A      3.450815   196A      3.488333  
     197A      3.506508   198A      3.528976   199A      3.592951  
     200A      3.606195   201A      3.651305   202A      3.661496  
     203A      3.698658   204A      3.758770   205A      3.764151  
     206A      3.818280   207A      3.834901   208A      3.844631  
     209A      3.857054   210A      3.891445   211A      3.900873  
     212A      3.931223   213A      3.958031   214A      4.006579  
     215A      4.044842   216A      4.053269   217A      4.090818  
     218A      4.118300   219A      4.121912   220A      4.168375  
     221A      4.198265   222A      4.232293   223A      4.260573  
     224A      4.290250   225A      4.315853   226A      4.324528  
     227A      4.356856   228A      4.401203   229A      4.406346  
     230A      4.436628   231A      4.441564   232A      4.466806  
     233A      4.522026   234A      4.617716   235A      4.642916  
     236A      4.660951   237A      4.682304   238A      4.765882  
     239A      4.787459   240A      4.807199   241A      4.813144  
     242A      4.831739   243A      4.868564   244A      4.905183  
     245A      4.929120   246A      4.968989   247A      5.024655  
     248A      5.058945   249A      5.106727   250A      5.126111  
     251A      5.140025   252A      5.177907   253A      5.201413  
     254A      5.310152   255A      5.314157   256A      5.322375  
     257A      5.430033   258A      5.436217   259A      5.513340  
     260A      5.516089   261A      5.559702   262A      5.588879  
     263A      5.609475   264A      5.672465   265A      5.744361  
     266A      5.749389   267A      5.846968   268A      5.885013  
     269A      6.043708   270A      6.063691   271A      6.096221  
     272A      6.110904   273A      6.181445   274A      6.202651  
     275A      6.272574   276A      6.357912   277A      6.548375  
     278A      6.631872   279A      6.704906   280A      6.744365  
     281A      6.759965   282A      6.764083   283A      6.955018  
     284A      6.955898   285A      7.019968   286A      7.066911  
     287A      7.319349   288A      7.333478   289A      7.367906  
     290A      7.505591   291A      7.624050   292A      7.654210  
     293A      7.717734   294A      7.869274   295A      7.939714  
     296A     13.858384   297A     15.753033   298A     17.735316  
     299A     18.790917  

    Final Occupation by Irrep:
              A 
    DOCC [    16 ]

  @DF-RHF Final Energy:  -208.03976929123246

   => Energetics <=

    Nuclear Repulsion Energy =            118.6852926787841938
    One-Electron Energy =                -518.3149004278440088
    Two-Electron Energy =                 191.5898384578273408
    Total Energy =                       -208.0397692912324601

Computation Completed

*** tstop() called on node142.bme.utexas.edu at Tue Nov  3 15:36:44 2020
Module time:
	user time   =      52.54 seconds =       0.88 minutes
	system time =       2.90 seconds =       0.05 minutes
	total time  =          9 seconds =       0.15 minutes
Total time:
	user time   =      52.54 seconds =       0.88 minutes
	system time =       2.90 seconds =       0.05 minutes
	total time  =          9 seconds =       0.15 minutes
   => Loading Basis Set <=

    Name: (AUG-CC-PVTZ AUX)
    Role: RIFIT
    Keyword: DF_BASIS_MP2
    atoms 1, 6     entry C          line   148 file /home/xy3866/psi4conda/share/psi4/basis/aug-cc-pvtz-ri.gbs 
    atoms 2        entry O          line   264 file /home/xy3866/psi4conda/share/psi4/basis/aug-cc-pvtz-ri.gbs 
    atoms 3        entry N          line   206 file /home/xy3866/psi4conda/share/psi4/basis/aug-cc-pvtz-ri.gbs 
    atoms 4-5, 7-9 entry H          line    30 file /home/xy3866/psi4conda/share/psi4/basis/aug-cc-pvtz-ri.gbs 


*** tstart() called on node142.bme.utexas.edu
*** at Tue Nov  3 15:36:44 2020


  //>>>>>>>>>>>>>>>>>>>>>>>>>>>>>>>>>>>//
  //               DFMP2               //
  //<<<<<<<<<<<<<<<<<<<<<<<<<<<<<<<<<<<//

	 --------------------------------------------------------
	                          DF-MP2                         
	      2nd-Order Density-Fitted Moller-Plesset Theory     
	              RMP2 Wavefunction,   8 Threads             
	                                                         
	        Rob Parrish, Justin Turney, Andy Simmonett,      
	           Ed Hohenstein, and C. David Sherrill          
	 --------------------------------------------------------

   => Auxiliary Basis Set <=

  Basis Set: (AUG-CC-PVTZ AUX)
    Blend: AUG-CC-PVTZ-RI
    Number of shells: 182
    Number of basis function: 654
    Number of Cartesian functions: 819
    Spherical Harmonics?: true
    Max angular momentum: 4

	 --------------------------------------------------------
	                 NBF =   299, NAUX =   654
	 --------------------------------------------------------
	   CLASS    FOCC     OCC    AOCC    AVIR     VIR    FVIR
	   PAIRS       0      16      16     283     283       0
	 --------------------------------------------------------

  DFHelper Memory: AOs need 0.455 GiB; user supplied 22.352 GiB. Using in-core AOs.


         ------------------------------------------------------------
                                     CPHF                           
                                  Rob Parrish                       
         ------------------------------------------------------------

  ==> Geometry <==

    Molecular point group: c1
    Full point group: C1

    Geometry (in Angstrom), charge = 0, multiplicity = 1:

       Center              X                  Y                   Z               Mass       
    ------------   -----------------  -----------------  -----------------  -----------------
         C            0.028605986900     0.055896281528    -0.000580994734    12.000000000000
         O            0.336979086900     1.348875081528     0.000223505266    15.994914619570
         N            0.983388986900    -0.922320718472    -0.000185994734    14.003074004430
         H            1.953317986900    -0.638541718472     0.002011005266     1.007825032230
         H            0.763140986900    -1.905489718472     0.000492005266     1.007825032230
         C           -1.406720013100    -0.431500718472     0.000088005266    12.000000000000
         H           -1.904794013100    -0.042362718472     0.890613005266     1.007825032230
         H           -1.499739013100    -1.519696718472    -0.016428994734     1.007825032230
         H           -1.914612013100    -0.014230718472    -0.871779994734     1.007825032230

  Nuclear repulsion =  118.685292678784194
  Reference energy  = -208.039769291232460

  ==> Basis Set <==

  Basis Set: AUG-CC-PVTZ
    Blend: AUG-CC-PVTZ
    Number of shells: 101
    Number of basis function: 299
    Number of Cartesian functions: 345
    Spherical Harmonics?: true
    Max angular momentum: 3

  ==> CGRSolver (by Rob Parrish) <==

   Number of roots    =         1
   Preconditioning    =    JACOBI
   Convergence cutoff =     1E-06
   Maximum iterations =       100

  ==> CPHFRHamiltonian (by Rob Parrish) <== 

  ==> MemDFJK: Density-Fitted J/K Matrices <==

    J tasked:                   Yes
    K tasked:                   Yes
    wK tasked:                   No
    OpenMP threads:               8
    Memory [MiB]:             22888
    Algorithm:                 Core
    Schwarz Cutoff:           1E-12
    Mask sparsity (%):       0.4273
    Fitting Condition:        1E-10

   => Auxiliary Basis Set <=

  Basis Set: (AUG-CC-PVTZ AUX)
    Blend: AUG-CC-PVTZ-JKFIT
    Number of shells: 190
    Number of basis function: 646
    Number of Cartesian functions: 799
    Spherical Harmonics?: true
    Max angular momentum: 4

  ==> CPHF Iterations <==

  => Iterations <=

             Iter  Converged  Remaining    Residual
  CGR           1          0          1   1.440E-01
  CGR           2          0          1   5.307E-02
  CGR           3          0          1   2.184E-02
  CGR           4          0          1   7.029E-03
  CGR           5          0          1   2.761E-03
  CGR           6          0          1   1.202E-03
  CGR           7          0          1   2.667E-04
  CGR           8          0          1   8.754E-05
  CGR           9          0          1   2.237E-05
  CGR          10          0          1   4.735E-06
  CGR          11          1          0   9.849E-07

    CGRSolver converged.

	-----------------------------------------------------------
	 ==================> DF-MP2 Energies <==================== 
	-----------------------------------------------------------
	 Reference Energy          =    -208.0397692912324601 [Eh]
	 Singles Energy            =      -0.0000000000000000 [Eh]
	 Same-Spin Energy          =      -0.2068852144123872 [Eh]
	 Opposite-Spin Energy      =      -0.6619918628221795 [Eh]
	 Correlation Energy        =      -0.8688770772345668 [Eh]
	 Total Energy              =    -208.9086463684670321 [Eh]
	-----------------------------------------------------------
	 ================> DF-SCS-MP2 Energies <================== 
	-----------------------------------------------------------
	 SCS Same-Spin Scale       =       0.3333333333333333 [-]
	 SCS Opposite-Spin Scale   =       1.2000000000000000 [-]
	 SCS Same-Spin Energy      =      -0.0689617381374624 [Eh]
	 SCS Opposite-Spin Energy  =      -0.7943902353866154 [Eh]
	 SCS Correlation Energy    =      -0.8633519735240778 [Eh]
	 SCS Total Energy          =    -208.9031212647565496 [Eh]
	-----------------------------------------------------------



Properties will be evaluated at   0.000000,   0.000000,  -0.000000 [a0]

Properties computed using the MP2 density matrix

  Nuclear Dipole Moment: [e a0]
     X:    -2.4412      Y:    -3.8535      Z:     0.0046

  Electronic Dipole Moment: [e a0]
     X:     2.3588      Y:     2.1161      Z:    -0.0027

  Dipole Moment: [e a0]
     X:    -0.0824      Y:    -1.7374      Z:     0.0019     Total:     1.7394

  Dipole Moment: [D]
     X:    -0.2094      Y:    -4.4160      Z:     0.0048     Total:     4.4210


*** tstop() called on node142.bme.utexas.edu at Tue Nov  3 15:37:00 2020
Module time:
	user time   =     103.52 seconds =       1.73 minutes
	system time =       3.51 seconds =       0.06 minutes
	total time  =         16 seconds =       0.27 minutes
Total time:
	user time   =     157.20 seconds =       2.62 minutes
	system time =       6.48 seconds =       0.11 minutes
	total time  =         25 seconds =       0.42 minutes

    Psi4 stopped on: Tuesday, 03 November 2020 03:37PM
    Psi4 wall time for execution: 0:00:25.07

*** Psi4 exiting successfully. Buy a developer a beer!
