
    -----------------------------------------------------------------------
          Psi4: An Open-Source Ab Initio Electronic Structure Package
                               Psi4 1.4a2.dev612 

                         Git: Rev {master} 58d3bc0 


    D. G. A. Smith, L. A. Burns, A. C. Simmonett, R. M. Parrish,
    M. C. Schieber, R. Galvelis, P. Kraus, H. Kruse, R. Di Remigio,
    A. Alenaizan, A. M. James, S. Lehtola, J. P. Misiewicz, M. Scheurer,
    R. A. Shaw, J. B. Schriber, Y. Xie, Z. L. Glick, D. A. Sirianni,
    J. S. O'Brien, J. M. Waldrop, A. Kumar, E. G. Hohenstein,
    B. P. Pritchard, B. R. Brooks, H. F. Schaefer III, A. Yu. Sokolov,
    K. Patkowski, A. E. DePrince III, U. Bozkaya, R. A. King,
    F. A. Evangelista, J. M. Turney, T. D. Crawford, C. D. Sherrill,
    J. Chem. Phys. 152(18) 184108 (2020). https://doi.org/10.1063/5.0006002

                            Additional Code Authors
    E. T. Seidl, C. L. Janssen, E. F. Valeev, M. L. Leininger,
    J. F. Gonthier, R. M. Richard, H. R. McAlexander, M. Saitow, X. Wang,
    P. Verma, and M. H. Lechner

             Previous Authors, Complete List of Code Contributors,
                       and Citations for Specific Modules
    https://github.com/psi4/psi4/blob/master/codemeta.json
    https://github.com/psi4/psi4/graphs/contributors
    http://psicode.org/psi4manual/master/introduction.html#citing-psifour

    -----------------------------------------------------------------------


    Psi4 started on: Wednesday, 24 February 2021 04:38PM

    Process ID: 95342
    Host:       node142.bme.utexas.edu
    PSIDATADIR: /home/xy3866/.conda/envs/test-rdkit/share/psi4
    Memory:     500.0 MiB
    Threads:    8
    
  ==> Input File <==

--------------------------------------------------------------------------
#psi4
#
memory 32 gb

molecule  {
-2 1
  O       -1.2921450    -0.1901730    -0.0000340
  O        0.8107920    -1.0237360    -0.0000120
  O        0.4813261     1.2139453     0.1499950
  C        0.0000340    -0.0000480     0.0000670
units angstrom
no_reorient  #important for SAPT in psi4, default
symmetry c1  #important for SAPT in psi4, default
}

set PROPERTIES_ORIGIN ["COM"]
properties('MP2/aug-cc-pvtz', properties = ['dipole'])
--------------------------------------------------------------------------

  Memory set to  29.802 GiB by Python driver.
    SCF Algorithm Type (re)set to DF.

*** tstart() called on node142.bme.utexas.edu
*** at Wed Feb 24 16:38:28 2021

   => Loading Basis Set <=

    Name: AUG-CC-PVTZ
    Role: ORBITAL
    Keyword: BASIS
    atoms 1-3 entry O          line   331 file /home/xy3866/.conda/envs/test-rdkit/share/psi4/basis/aug-cc-pvtz.gbs 
    atoms 4   entry C          line   239 file /home/xy3866/.conda/envs/test-rdkit/share/psi4/basis/aug-cc-pvtz.gbs 


         ---------------------------------------------------------
                                   SCF
               by Justin Turney, Rob Parrish, Andy Simmonett
                          and Daniel G. A. Smith
                              RHF Reference
                        8 Threads,  30517 MiB Core
         ---------------------------------------------------------

  ==> Geometry <==

    Molecular point group: c1
    Full point group: C1

    Geometry (in Angstrom), charge = -2, multiplicity = 1:

       Center              X                  Y                   Z               Mass       
    ------------   -----------------  -----------------  -----------------  -----------------
         O           -1.292144628852    -0.190173076943    -0.040031260936    15.994914619570
         O            0.810792371148    -1.023736076943    -0.040009260936    15.994914619570
         O            0.481326471148     1.213945223057     0.109997739064    15.994914619570
         C            0.000034371148    -0.000048076943    -0.039930260936    12.000000000000

  Running in c1 symmetry.

  Rotational constants: A =      0.41168  B =      0.40938  C =      0.20538 [cm^-1]
  Rotational constants: A =  12341.95724  B =  12272.85684  C =   6157.22002 [MHz]
  Nuclear repulsion =  103.073918218412501

  Charge       = -2
  Multiplicity = 1
  Electrons    = 32
  Nalpha       = 16
  Nbeta        = 16

  ==> Algorithm <==

  SCF Algorithm Type is DF.
  DIIS enabled.
  MOM disabled.
  Fractional occupation disabled.
  Guess Type is SAD.
  Energy threshold   = 1.00e-10
  Density threshold  = 1.00e-10
  Integral threshold = 0.00e+00

  ==> Primary Basis <==

  Basis Set: AUG-CC-PVTZ
    Blend: AUG-CC-PVTZ
    Number of shells: 56
    Number of basis function: 184
    Number of Cartesian functions: 220
    Spherical Harmonics?: true
    Max angular momentum: 3

   => Loading Basis Set <=

    Name: (AUG-CC-PVTZ AUX)
    Role: JKFIT
    Keyword: DF_BASIS_SCF
    atoms 1-3 entry O          line   286 file /home/xy3866/.conda/envs/test-rdkit/share/psi4/basis/aug-cc-pvtz-jkfit.gbs 
    atoms 4   entry C          line   162 file /home/xy3866/.conda/envs/test-rdkit/share/psi4/basis/aug-cc-pvtz-jkfit.gbs 

  ==> Integral Setup <==

  DFHelper Memory: AOs need 0.115 GiB; user supplied 22.352 GiB. Using in-core AOs.

  ==> MemDFJK: Density-Fitted J/K Matrices <==

    J tasked:                   Yes
    K tasked:                   Yes
    wK tasked:                   No
    OpenMP threads:               8
    Memory [MiB]:             22888
    Algorithm:                 Core
    Schwarz Cutoff:           1E-12
    Mask sparsity (%):       0.0000
    Fitting Condition:        1E-10

   => Auxiliary Basis Set <=

  Basis Set: (AUG-CC-PVTZ AUX)
    Blend: AUG-CC-PVTZ-JKFIT
    Number of shells: 120
    Number of basis function: 416
    Number of Cartesian functions: 524
    Spherical Harmonics?: true
    Max angular momentum: 4

  Minimum eigenvalue in the overlap matrix is 3.2977803010E-04.
  Reciprocal condition number of the overlap matrix is 4.2595379344E-05.
    Using symmetric orthogonalization.

  ==> Pre-Iterations <==

  SCF Guess: Superposition of Atomic Densities via on-the-fly atomic UHF (no occupation information).

   -------------------------
    Irrep   Nso     Nmo    
   -------------------------
     A        184     184 
   -------------------------
    Total     184     184
   -------------------------

  ==> Iterations <==

                           Total Energy        Delta E     RMS |[F,P]|

   @DF-RHF iter SAD:  -261.04083252472469   -2.61041e+02   0.00000e+00 
   @DF-RHF iter   1:  -262.12794790691919   -1.08712e+00   4.53498e-03 DIIS
   @DF-RHF iter   2:  -262.28579712355634   -1.57849e-01   3.35662e-03 DIIS
   @DF-RHF iter   3:  -262.40408317424703   -1.18286e-01   1.76363e-04 DIIS
   @DF-RHF iter   4:  -262.40499546177443   -9.12288e-04   4.87322e-05 DIIS
   @DF-RHF iter   5:  -262.40505962955541   -6.41678e-05   2.08469e-05 DIIS
   @DF-RHF iter   6:  -262.40506932371159   -9.69416e-06   7.63951e-06 DIIS
   @DF-RHF iter   7:  -262.40507049445137   -1.17074e-06   2.80671e-06 DIIS
   @DF-RHF iter   8:  -262.40507065407894   -1.59628e-07   5.69271e-07 DIIS
   @DF-RHF iter   9:  -262.40507066427915   -1.02002e-08   9.10461e-08 DIIS
   @DF-RHF iter  10:  -262.40507066459350   -3.14344e-10   2.15411e-08 DIIS
   @DF-RHF iter  11:  -262.40507066461026   -1.67688e-11   5.88117e-09 DIIS
   @DF-RHF iter  12:  -262.40507066461248   -2.21689e-12   1.75840e-09 DIIS
   @DF-RHF iter  13:  -262.40507066461299   -5.11591e-13   6.80517e-10 DIIS
   @DF-RHF iter  14:  -262.40507066461259    3.97904e-13   3.32388e-10 DIIS
   @DF-RHF iter  15:  -262.40507066461237    2.27374e-13   6.74844e-11 DIIS
  Energy and wave function converged.


  ==> Post-Iterations <==

    Orbital Energies [Eh]
    ---------------------

    Doubly Occupied:                                                      

       1A    -20.063938     2A    -20.063899     3A    -20.062714  
       4A    -10.932773     5A     -0.945589     6A     -0.810349  
       7A     -0.806979     8A     -0.272707     9A     -0.176302  
      10A     -0.175832    11A     -0.145759    12A     -0.008964  
      13A     -0.008453    14A      0.023766    15A      0.024974  
      16A      0.053242  

    Virtual:                                                              

      17A      0.338264    18A      0.338402    19A      0.341716  
      20A      0.346224    21A      0.455096    22A      0.455119  
      23A      0.479495    24A      0.480276    25A      0.499157  
      26A      0.535588    27A      0.535708    28A      0.550756  
      29A      0.562072    30A      0.610745    31A      0.654840  
      32A      0.655321    33A      0.704344    34A      0.750648  
      35A      0.791769    36A      0.792515    37A      0.883220  
      38A      0.886039    39A      0.886547    40A      0.978927  
      41A      1.021347    42A      1.059321    43A      1.059781  
      44A      1.103276    45A      1.105251    46A      1.146655  
      47A      1.147938    48A      1.191595    49A      1.191960  
      50A      1.237004    51A      1.254860    52A      1.266759  
      53A      1.267061    54A      1.275256    55A      1.336974  
      56A      1.337254    57A      1.348407    58A      1.407575  
      59A      1.443216    60A      1.445613    61A      1.487948  
      62A      1.489067    63A      1.565727    64A      1.602327  
      65A      1.623721    66A      1.628420    67A      1.630039  
      68A      1.722530    69A      1.723488    70A      1.782437  
      71A      1.879952    72A      1.881083    73A      1.899692  
      74A      1.899876    75A      1.926538    76A      2.049093  
      77A      2.051456    78A      2.143534    79A      2.163692  
      80A      2.166199    81A      2.484923    82A      2.492739  
      83A      2.494146    84A      2.585796    85A      2.612352  
      86A      2.612789    87A      2.680593    88A      2.710746  
      89A      2.755139    90A      2.755384    91A      2.786358  
      92A      2.793724    93A      2.793876    94A      2.842669  
      95A      2.851752    96A      2.853122    97A      2.906593  
      98A      2.977145    99A      2.985021   100A      2.986152  
     101A      3.027345   102A      3.027903   103A      3.028587  
     104A      3.049315   105A      3.050972   106A      3.086408  
     107A      3.135125   108A      3.222589   109A      3.225108  
     110A      3.249822   111A      3.251246   112A      3.432027  
     113A      3.432965   114A      3.438185   115A      3.462695  
     116A      3.464069   117A      3.502381   118A      3.747109  
     119A      3.863171   120A      3.863836   121A      3.921894  
     122A      3.998512   123A      4.005042   124A      4.218889  
     125A      4.219412   126A      4.363607   127A      4.530915  
     128A      4.534419   129A      4.535981   130A      4.551259  
     131A      4.561478   132A      4.781191   133A      4.781956  
     134A      4.956428   135A      5.104910   136A      5.352344  
     137A      5.353927   138A      5.370102   139A      5.462685  
     140A      5.467508   141A      5.560110   142A      6.181561  
     143A      6.702109   144A      6.706518   145A      7.055897  
     146A      7.055941   147A      7.064789   148A      7.091116  
     149A      7.092108   150A      7.123641   151A      7.231872  
     152A      7.260753   153A      7.280630   154A      7.307595  
     155A      7.307969   156A      7.402496   157A      7.402890  
     158A      7.418254   159A      7.420234   160A      7.583298  
     161A      7.586284   162A      7.600112   163A      7.624483  
     164A      7.704634   165A      7.706388   166A      7.761791  
     167A      7.763181   168A      7.800498   169A      7.801584  
     170A      7.843759   171A      7.968573   172A      8.029550  
     173A      8.031121   174A      8.040176   175A      8.174214  
     176A      8.181762   177A      8.288379   178A      8.458601  
     179A      8.461618   180A      8.472981   181A     13.259740  
     182A     13.317247   183A     14.886481   184A     16.634129  

    Final Occupation by Irrep:
              A 
    DOCC [    16 ]

  @DF-RHF Final Energy:  -262.40507066461237

   => Energetics <=

    Nuclear Repulsion Energy =            103.0739182184125013
    One-Electron Energy =                -582.2134215645202175
    Two-Electron Energy =                 216.7344326814953490
    Total Energy =                       -262.4050706646123672

Computation Completed

*** tstop() called on node142.bme.utexas.edu at Wed Feb 24 16:38:31 2021
Module time:
	user time   =      17.29 seconds =       0.29 minutes
	system time =       1.33 seconds =       0.02 minutes
	total time  =          3 seconds =       0.05 minutes
Total time:
	user time   =      17.29 seconds =       0.29 minutes
	system time =       1.33 seconds =       0.02 minutes
	total time  =          3 seconds =       0.05 minutes
   => Loading Basis Set <=

    Name: (AUG-CC-PVTZ AUX)
    Role: RIFIT
    Keyword: DF_BASIS_MP2
    atoms 1-3 entry O          line   264 file /home/xy3866/.conda/envs/test-rdkit/share/psi4/basis/aug-cc-pvtz-ri.gbs 
    atoms 4   entry C          line   148 file /home/xy3866/.conda/envs/test-rdkit/share/psi4/basis/aug-cc-pvtz-ri.gbs 


*** tstart() called on node142.bme.utexas.edu
*** at Wed Feb 24 16:38:31 2021


  //>>>>>>>>>>>>>>>>>>>>>>>>>>>>>>>>>>>//
  //               DFMP2               //
  //<<<<<<<<<<<<<<<<<<<<<<<<<<<<<<<<<<<//

	 --------------------------------------------------------
	                          DF-MP2                         
	      2nd-Order Density-Fitted Moller-Plesset Theory     
	              RMP2 Wavefunction,   8 Threads             
	                                                         
	        Rob Parrish, Justin Turney, Andy Simmonett,      
	           Ed Hohenstein, and C. David Sherrill          
	 --------------------------------------------------------

   => Auxiliary Basis Set <=

  Basis Set: (AUG-CC-PVTZ AUX)
    Blend: AUG-CC-PVTZ-RI
    Number of shells: 112
    Number of basis function: 424
    Number of Cartesian functions: 544
    Spherical Harmonics?: true
    Max angular momentum: 4

	 --------------------------------------------------------
	                 NBF =   184, NAUX =   424
	 --------------------------------------------------------
	   CLASS    FOCC     OCC    AOCC    AVIR     VIR    FVIR
	   PAIRS       0      16      16     168     168       0
	 --------------------------------------------------------

  DFHelper Memory: AOs need 0.115 GiB; user supplied 22.352 GiB. Using in-core AOs.


         ------------------------------------------------------------
                                     CPHF                           
                                  Rob Parrish                       
         ------------------------------------------------------------

  ==> Geometry <==

    Molecular point group: c1
    Full point group: C1

    Geometry (in Angstrom), charge = -2, multiplicity = 1:

       Center              X                  Y                   Z               Mass       
    ------------   -----------------  -----------------  -----------------  -----------------
         O           -1.292144628852    -0.190173076943    -0.040031260936    15.994914619570
         O            0.810792371148    -1.023736076943    -0.040009260936    15.994914619570
         O            0.481326471148     1.213945223057     0.109997739064    15.994914619570
         C            0.000034371148    -0.000048076943    -0.039930260936    12.000000000000

  Nuclear repulsion =  103.073918218412501
  Reference energy  = -262.405070664612367

  ==> Basis Set <==

  Basis Set: AUG-CC-PVTZ
    Blend: AUG-CC-PVTZ
    Number of shells: 56
    Number of basis function: 184
    Number of Cartesian functions: 220
    Spherical Harmonics?: true
    Max angular momentum: 3

  ==> CGRSolver (by Rob Parrish) <==

   Number of roots    =         1
   Preconditioning    =    JACOBI
   Convergence cutoff =     1E-06
   Maximum iterations =       100

  ==> CPHFRHamiltonian (by Rob Parrish) <== 

  ==> MemDFJK: Density-Fitted J/K Matrices <==

    J tasked:                   Yes
    K tasked:                   Yes
    wK tasked:                   No
    OpenMP threads:               8
    Memory [MiB]:             22888
    Algorithm:                 Core
    Schwarz Cutoff:           1E-12
    Mask sparsity (%):       0.0000
    Fitting Condition:        1E-10

   => Auxiliary Basis Set <=

  Basis Set: (AUG-CC-PVTZ AUX)
    Blend: AUG-CC-PVTZ-JKFIT
    Number of shells: 120
    Number of basis function: 416
    Number of Cartesian functions: 524
    Spherical Harmonics?: true
    Max angular momentum: 4

  ==> CPHF Iterations <==

  => Iterations <=

             Iter  Converged  Remaining    Residual
  CGR           1          0          1   1.166E-01
  CGR           2          0          1   2.461E-02
  CGR           3          0          1   8.383E-03
  CGR           4          0          1   2.406E-03
  CGR           5          0          1   4.202E-04
  CGR           6          0          1   1.872E-04
  CGR           7          0          1   4.241E-05
  CGR           8          0          1   1.397E-05
  CGR           9          0          1   3.696E-06
  CGR          10          0          1   1.031E-06
  CGR          11          1          0   1.632E-07

    CGRSolver converged.

	-----------------------------------------------------------
	 ==================> DF-MP2 Energies <==================== 
	-----------------------------------------------------------
	 Reference Energy          =    -262.4050706646123672 [Eh]
	 Singles Energy            =      -0.0000000000000000 [Eh]
	 Same-Spin Energy          =      -0.2575721011720316 [Eh]
	 Opposite-Spin Energy      =      -0.7118935176413099 [Eh]
	 Correlation Energy        =      -0.9694656188133415 [Eh]
	 Total Energy              =    -263.3745362834256980 [Eh]
	-----------------------------------------------------------
	 ================> DF-SCS-MP2 Energies <================== 
	-----------------------------------------------------------
	 SCS Same-Spin Scale       =       0.3333333333333333 [-]
	 SCS Opposite-Spin Scale   =       1.2000000000000000 [-]
	 SCS Same-Spin Energy      =      -0.0858573670573438 [Eh]
	 SCS Opposite-Spin Energy  =      -0.8542722211695719 [Eh]
	 SCS Correlation Energy    =      -0.9401295882269157 [Eh]
	 SCS Total Energy          =    -263.3452002528392768 [Eh]
	-----------------------------------------------------------



Properties will be evaluated at   0.000000,  -0.000000,   0.000000 [a0]

Properties computed using the MP2 density matrix

  Nuclear Dipole Moment: [e a0]
     X:    -0.0000      Y:     0.0000      Z:     0.0001

  Electronic Dipole Moment: [e a0]
     X:    -0.0100      Y:    -0.0271      Z:    -0.0108

  Dipole Moment: [e a0]
     X:    -0.0100      Y:    -0.0271      Z:    -0.0106     Total:     0.0308

  Dipole Moment: [D]
     X:    -0.0255      Y:    -0.0689      Z:    -0.0270     Total:     0.0782


*** tstop() called on node142.bme.utexas.edu at Wed Feb 24 16:38:39 2021
Module time:
	user time   =      37.89 seconds =       0.63 minutes
	system time =       2.50 seconds =       0.04 minutes
	total time  =          8 seconds =       0.13 minutes
Total time:
	user time   =      55.23 seconds =       0.92 minutes
	system time =       3.83 seconds =       0.06 minutes
	total time  =         11 seconds =       0.18 minutes

    Psi4 stopped on: Wednesday, 24 February 2021 04:38PM
    Psi4 wall time for execution: 0:00:11.36

*** Psi4 exiting successfully. Buy a developer a beer!
