
    -----------------------------------------------------------------------
          Psi4: An Open-Source Ab Initio Electronic Structure Package
                               Psi4 1.3.2 release

                         Git: Rev {HEAD} ecbda83 


    R. M. Parrish, L. A. Burns, D. G. A. Smith, A. C. Simmonett,
    A. E. DePrince III, E. G. Hohenstein, U. Bozkaya, A. Yu. Sokolov,
    R. Di Remigio, R. M. Richard, J. F. Gonthier, A. M. James,
    H. R. McAlexander, A. Kumar, M. Saitow, X. Wang, B. P. Pritchard,
    P. Verma, H. F. Schaefer III, K. Patkowski, R. A. King, E. F. Valeev,
    F. A. Evangelista, J. M. Turney, T. D. Crawford, and C. D. Sherrill,
    J. Chem. Theory Comput. 13(7) pp 3185--3197 (2017).
    (doi: 10.1021/acs.jctc.7b00174)


                         Additional Contributions by
    P. Kraus, H. Kruse, M. H. Lechner, M. C. Schieber, R. A. Shaw,
    A. Alenaizan, R. Galvelis, Z. L. Glick, S. Lehtola, and J. P. Misiewicz

    -----------------------------------------------------------------------


    Psi4 started on: Tuesday, 17 November 2020 05:30AM

    Process ID: 18256
    Host:       node142.bme.utexas.edu
    PSIDATADIR: /home/xy3866/psi4conda/share/psi4
    Memory:     500.0 MiB
    Threads:    8
    
  ==> Input File <==

--------------------------------------------------------------------------
#psi4
#
memory 32 gb

molecule  {
0 1
  O        0.9504380     0.1228240    -0.1741910
  O        0.1670080    -1.9538060     0.3788190
  N       -1.2576408    -0.2874577    -0.3818411
  C       -1.4380940     1.1445880    -0.6015250
  C       -1.5086480     1.9908930     0.6655530
  C       -2.4416600    -1.0731650    -0.0476160
  C       -0.0399700    -0.8055270    -0.0009900
  C        2.2764760    -0.3829840     0.0991100
  C        3.2256880     0.7754290    -0.1091670
  H       -0.6200800     1.4811510    -1.2396720
  H       -2.3650680     1.2369900    -1.1776810
  H       -2.3202370     1.6568460     1.3177610
  H       -0.5663980     1.9180080     1.2126270
  H       -1.6843650     3.0420300     0.4158060
  H       -2.9458070    -0.7386130     0.8669600
  H       -2.1365070    -2.1105210     0.0765900
  H       -3.1412900    -0.9939370    -0.8846800
  H        2.3097600    -0.7656990     1.1223780
  H        2.4881280    -1.2160740    -0.5765640
  H        3.1624490     1.1443740    -1.1352360
  H        2.9853640     1.5953270     0.5713660
  H        4.2535110     0.4542820     0.0824610
units angstrom
no_reorient  #important for SAPT in psi4, default
symmetry c1  #important for SAPT in psi4, default
}

set PROPERTIES_ORIGIN ["COM"]
properties('MP2/aug-cc-pvtz', properties = ['dipole'])
--------------------------------------------------------------------------

  Memory set to  29.802 GiB by Python driver.
    SCF Algorithm Type (re)set to DF.

*** tstart() called on node142.bme.utexas.edu
*** at Tue Nov 17 05:30:24 2020

   => Loading Basis Set <=

    Name: AUG-CC-PVTZ
    Role: ORBITAL
    Keyword: BASIS
    atoms 1-2   entry O          line   327 file /home/xy3866/psi4conda/share/psi4/basis/aug-cc-pvtz.gbs 
    atoms 3     entry N          line   281 file /home/xy3866/psi4conda/share/psi4/basis/aug-cc-pvtz.gbs 
    atoms 4-9   entry C          line   235 file /home/xy3866/psi4conda/share/psi4/basis/aug-cc-pvtz.gbs 
    atoms 10-22 entry H          line    36 file /home/xy3866/psi4conda/share/psi4/basis/aug-cc-pvtz.gbs 


         ---------------------------------------------------------
                                   SCF
               by Justin Turney, Rob Parrish, Andy Simmonett
                          and Daniel G. A. Smith
                              RHF Reference
                        8 Threads,  30517 MiB Core
         ---------------------------------------------------------

  ==> Geometry <==

    Molecular point group: c1
    Full point group: C1

    Geometry (in Angstrom), charge = 0, multiplicity = 1:

       Center              X                  Y                   Z               Mass       
    ------------   -----------------  -----------------  -----------------  -----------------
         O            0.946143106837     0.174422299456    -0.163875222935    15.994914619570
         O            0.162713106837    -1.902207700544     0.389134777065    15.994914619570
         N           -1.261935693163    -0.235859400544    -0.371525322935    14.003074004430
         C           -1.442388893163     1.196186299456    -0.591209222935    12.000000000000
         C           -1.512942893163     2.042491299456     0.675868777065    12.000000000000
         C           -2.445954893163    -1.021566700544    -0.037300222935    12.000000000000
         C           -0.044264893163    -0.753928700544     0.009325777065    12.000000000000
         C            2.272181106837    -0.331385700544     0.109425777065    12.000000000000
         C            3.221393106837     0.827027299456    -0.098851222935    12.000000000000
         H           -0.624374893163     1.532749299456    -1.229356222935     1.007825032230
         H           -2.369362893163     1.288588299456    -1.167365222935     1.007825032230
         H           -2.324531893163     1.708444299456     1.328076777065     1.007825032230
         H           -0.570692893163     1.969606299456     1.222942777065     1.007825032230
         H           -1.688659893163     3.093628299456     0.426121777065     1.007825032230
         H           -2.950101893163    -0.687014700544     0.877275777065     1.007825032230
         H           -2.140801893163    -2.058922700544     0.086905777065     1.007825032230
         H           -3.145584893163    -0.942338700544    -0.874364222935     1.007825032230
         H            2.305465106837    -0.714100700544     1.132693777065     1.007825032230
         H            2.483833106837    -1.164475700544    -0.566248222935     1.007825032230
         H            3.158154106837     1.195972299456    -1.124920222935     1.007825032230
         H            2.981069106837     1.646925299456     0.581681777065     1.007825032230
         H            4.249216106837     0.505880299456     0.092776777065     1.007825032230

  Running in c1 symmetry.

  Rotational constants: A =      0.07891  B =      0.03661  C =      0.02709 [cm^-1]
  Rotational constants: A =   2365.80009  B =   1097.46298  C =    812.00644 [MHz]
  Nuclear repulsion =  491.866378616294185

  Charge       = 0
  Multiplicity = 1
  Electrons    = 72
  Nalpha       = 36
  Nbeta        = 36

  ==> Algorithm <==

  SCF Algorithm Type is DF.
  DIIS enabled.
  MOM disabled.
  Fractional occupation disabled.
  Guess Type is SAD.
  Energy threshold   = 1.00e-10
  Density threshold  = 1.00e-10
  Integral threshold = 0.00e+00

  ==> Primary Basis <==

  Basis Set: AUG-CC-PVTZ
    Blend: AUG-CC-PVTZ
    Number of shells: 243
    Number of basis function: 713
    Number of Cartesian functions: 820
    Spherical Harmonics?: true
    Max angular momentum: 3

   => Loading Basis Set <=

    Name: (AUG-CC-PVTZ AUX)
    Role: JKFIT
    Keyword: DF_BASIS_SCF
    atoms 1-2   entry O          line   286 file /home/xy3866/psi4conda/share/psi4/basis/aug-cc-pvtz-jkfit.gbs 
    atoms 3     entry N          line   224 file /home/xy3866/psi4conda/share/psi4/basis/aug-cc-pvtz-jkfit.gbs 
    atoms 4-9   entry C          line   162 file /home/xy3866/psi4conda/share/psi4/basis/aug-cc-pvtz-jkfit.gbs 
    atoms 10-22 entry H          line    70 file /home/xy3866/psi4conda/share/psi4/basis/aug-cc-pvtz-jkfit.gbs 

  ==> Pre-Iterations <==

   -------------------------------------------------------
    Irrep   Nso     Nmo     Nalpha   Nbeta   Ndocc  Nsocc
   -------------------------------------------------------
     A        713     713       0       0       0       0
   -------------------------------------------------------
    Total     713     713      36      36      36       0
   -------------------------------------------------------

  ==> Integral Setup <==

  DFHelper Memory: AOs need 5.566 GiB; user supplied 22.352 GiB. Using in-core AOs.

  ==> MemDFJK: Density-Fitted J/K Matrices <==

    J tasked:                   Yes
    K tasked:                   Yes
    wK tasked:                   No
    OpenMP threads:               8
    Memory [MiB]:             22888
    Algorithm:                 Disk
    Schwarz Cutoff:           1E-12
    Mask sparsity (%):       6.7789
    Fitting Condition:        1E-10

   => Auxiliary Basis Set <=

  Basis Set: (AUG-CC-PVTZ AUX)
    Blend: AUG-CC-PVTZ-JKFIT
    Number of shells: 452
    Number of basis function: 1534
    Number of Cartesian functions: 1894
    Spherical Harmonics?: true
    Max angular momentum: 4

  Minimum eigenvalue in the overlap matrix is 5.0697140777E-06.
  Using Symmetric Orthogonalization.

  SCF Guess: Superposition of Atomic Densities via on-the-fly atomic UHF.

  ==> Iterations <==

                           Total Energy        Delta E     RMS |[F,P]|

   @DF-RHF iter SAD:  -438.17887973468646   -4.38179e+02   0.00000e+00 
   @DF-RHF iter   1:  -438.81172716139446   -6.32847e-01   1.09721e-03 DIIS
   @DF-RHF iter   2:  -439.06528770051767   -2.53561e-01   5.83984e-04 DIIS
   @DF-RHF iter   3:  -439.13047528574367   -6.51876e-02   1.21265e-04 DIIS
   @DF-RHF iter   4:  -439.13498496584219   -4.50968e-03   4.98945e-05 DIIS
   @DF-RHF iter   5:  -439.13569273123017   -7.07765e-04   1.15090e-05 DIIS
   @DF-RHF iter   6:  -439.13574449898709   -5.17678e-05   4.76590e-06 DIIS
   @DF-RHF iter   7:  -439.13575413338674   -9.63440e-06   1.39732e-06 DIIS
   @DF-RHF iter   8:  -439.13575559707192   -1.46369e-06   5.92026e-07 DIIS
   @DF-RHF iter   9:  -439.13575585008238   -2.53010e-07   2.14951e-07 DIIS
   @DF-RHF iter  10:  -439.13575588053345   -3.04511e-08   7.11118e-08 DIIS
   @DF-RHF iter  11:  -439.13575588311306   -2.57961e-09   2.47789e-08 DIIS
   @DF-RHF iter  12:  -439.13575588338659   -2.73531e-10   7.44646e-09 DIIS
   @DF-RHF iter  13:  -439.13575588341007   -2.34763e-11   1.89461e-09 DIIS
   @DF-RHF iter  14:  -439.13575588341303   -2.95586e-12   5.27614e-10 DIIS
   @DF-RHF iter  15:  -439.13575588341405   -1.02318e-12   1.57964e-10 DIIS
   @DF-RHF iter  16:  -439.13575588341115    2.89901e-12   6.03980e-11 DIIS
  Energy and wave function converged.


  ==> Post-Iterations <==

    Orbital Energies [Eh]
    ---------------------

    Doubly Occupied:                                                      

       1A    -20.594486     2A    -20.520359     3A    -15.583860  
       4A    -11.395417     5A    -11.284020     6A    -11.264702  
       7A    -11.253918     8A    -11.222717     9A    -11.221376  
      10A     -1.448805    11A     -1.340975    12A     -1.245774  
      13A     -1.036598    14A     -1.024311    15A     -0.945025  
      16A     -0.878499    17A     -0.842608    18A     -0.762240  
      19A     -0.710250    20A     -0.682877    21A     -0.673456  
      22A     -0.635368    23A     -0.613182    24A     -0.593594  
      25A     -0.581464    26A     -0.566015    27A     -0.559647  
      28A     -0.542931    29A     -0.535092    30A     -0.519619  
      31A     -0.509177    32A     -0.507027    33A     -0.495987  
      34A     -0.456346    35A     -0.444461    36A     -0.376441  

    Virtual:                                                              

      37A      0.027307    38A      0.032547    39A      0.037148  
      40A      0.038574    41A      0.048914    42A      0.049887  
      43A      0.052287    44A      0.056714    45A      0.061097  
      46A      0.072290    47A      0.074787    48A      0.077553  
      49A      0.080731    50A      0.100958    51A      0.103609  
      52A      0.113228    53A      0.119593    54A      0.121033  
      55A      0.123401    56A      0.126521    57A      0.131673  
      58A      0.133672    59A      0.136362    60A      0.140846  
      61A      0.143833    62A      0.147687    63A      0.153651  
      64A      0.157900    65A      0.161231    66A      0.166106  
      67A      0.172528    68A      0.180835    69A      0.192317  
      70A      0.201346    71A      0.203067    72A      0.206022  
      73A      0.215498    74A      0.221817    75A      0.225668  
      76A      0.232176    77A      0.237148    78A      0.238240  
      79A      0.241373    80A      0.253218    81A      0.256537  
      82A      0.259033    83A      0.268258    84A      0.274114  
      85A      0.278045    86A      0.283097    87A      0.295808  
      88A      0.296431    89A      0.298633    90A      0.306513  
      91A      0.315972    92A      0.321843    93A      0.324143  
      94A      0.328238    95A      0.331339    96A      0.334030  
      97A      0.340514    98A      0.347932    99A      0.351078  
     100A      0.354560   101A      0.359764   102A      0.362104  
     103A      0.371197   104A      0.371997   105A      0.376896  
     106A      0.380532   107A      0.383084   108A      0.385767  
     109A      0.391364   110A      0.399594   111A      0.403911  
     112A      0.407229   113A      0.412219   114A      0.414197  
     115A      0.421187   116A      0.425018   117A      0.427689  
     118A      0.428981   119A      0.429789   120A      0.436434  
     121A      0.437854   122A      0.442528   123A      0.448171  
     124A      0.448651   125A      0.455682   126A      0.458842  
     127A      0.469534   128A      0.470853   129A      0.472049  
     130A      0.480315   131A      0.481520   132A      0.484871  
     133A      0.490336   134A      0.492927   135A      0.495694  
     136A      0.504467   137A      0.507928   138A      0.514070  
     139A      0.517996   140A      0.522820   141A      0.523121  
     142A      0.530260   143A      0.535079   144A      0.540842  
     145A      0.543384   146A      0.553075   147A      0.554593  
     148A      0.560836   149A      0.566573   150A      0.568812  
     151A      0.576025   152A      0.582906   153A      0.586734  
     154A      0.592394   155A      0.600590   156A      0.600744  
     157A      0.608760   158A      0.612629   159A      0.621454  
     160A      0.625856   161A      0.632491   162A      0.640313  
     163A      0.642047   164A      0.644999   165A      0.655851  
     166A      0.664966   167A      0.670222   168A      0.676137  
     169A      0.689736   170A      0.691941   171A      0.703529  
     172A      0.711834   173A      0.716078   174A      0.719911  
     175A      0.730963   176A      0.745382   177A      0.756891  
     178A      0.767521   179A      0.770393   180A      0.781632  
     181A      0.787199   182A      0.797913   183A      0.802917  
     184A      0.814326   185A      0.815839   186A      0.825982  
     187A      0.832862   188A      0.836412   189A      0.838186  
     190A      0.846235   191A      0.847737   192A      0.857366  
     193A      0.859883   194A      0.864099   195A      0.871352  
     196A      0.881296   197A      0.882086   198A      0.887404  
     199A      0.892278   200A      0.894780   201A      0.899666  
     202A      0.909279   203A      0.912714   204A      0.922216  
     205A      0.926670   206A      0.928956   207A      0.933842  
     208A      0.941562   209A      0.941962   210A      0.953835  
     211A      0.957329   212A      0.961332   213A      0.963611  
     214A      0.971075   215A      0.977397   216A      0.982644  
     217A      0.987607   218A      0.987899   219A      0.997616  
     220A      1.006578   221A      1.014319   222A      1.021634  
     223A      1.023881   224A      1.026550   225A      1.026860  
     226A      1.040246   227A      1.042516   228A      1.054126  
     229A      1.056164   230A      1.059874   231A      1.064038  
     232A      1.078513   233A      1.081302   234A      1.086773  
     235A      1.089867   236A      1.107698   237A      1.111143  
     238A      1.120066   239A      1.129471   240A      1.132796  
     241A      1.136810   242A      1.140362   243A      1.149367  
     244A      1.154361   245A      1.161678   246A      1.164292  
     247A      1.166142   248A      1.173657   249A      1.186394  
     250A      1.192095   251A      1.195163   252A      1.198521  
     253A      1.201794   254A      1.207389   255A      1.212966  
     256A      1.221845   257A      1.223590   258A      1.246346  
     259A      1.251287   260A      1.261027   261A      1.266229  
     262A      1.269007   263A      1.276555   264A      1.283294  
     265A      1.284632   266A      1.296148   267A      1.300067  
     268A      1.306566   269A      1.312088   270A      1.318269  
     271A      1.322088   272A      1.326318   273A      1.329637  
     274A      1.346109   275A      1.348774   276A      1.359501  
     277A      1.368997   278A      1.377637   279A      1.385904  
     280A      1.388778   281A      1.393614   282A      1.397252  
     283A      1.415426   284A      1.419145   285A      1.427696  
     286A      1.432236   287A      1.448386   288A      1.459602  
     289A      1.461270   290A      1.468176   291A      1.480935  
     292A      1.491632   293A      1.502052   294A      1.509166  
     295A      1.520600   296A      1.533059   297A      1.538823  
     298A      1.547559   299A      1.552893   300A      1.559765  
     301A      1.573353   302A      1.592406   303A      1.596041  
     304A      1.598126   305A      1.604907   306A      1.615842  
     307A      1.626199   308A      1.631648   309A      1.639162  
     310A      1.640958   311A      1.646975   312A      1.651961  
     313A      1.654823   314A      1.657081   315A      1.665348  
     316A      1.672293   317A      1.678995   318A      1.682924  
     319A      1.691359   320A      1.697581   321A      1.701745  
     322A      1.706798   323A      1.711311   324A      1.720488  
     325A      1.723654   326A      1.732059   327A      1.740855  
     328A      1.750537   329A      1.752724   330A      1.758745  
     331A      1.761450   332A      1.771190   333A      1.771991  
     334A      1.784377   335A      1.787903   336A      1.792595  
     337A      1.800669   338A      1.810117   339A      1.821165  
     340A      1.825559   341A      1.835250   342A      1.844063  
     343A      1.856962   344A      1.868078   345A      1.872383  
     346A      1.876487   347A      1.885138   348A      1.891863  
     349A      1.905869   350A      1.909232   351A      1.916902  
     352A      1.927169   353A      1.934511   354A      1.945629  
     355A      1.968996   356A      1.972723   357A      1.981175  
     358A      1.990505   359A      1.999848   360A      2.007107  
     361A      2.015080   362A      2.022656   363A      2.029296  
     364A      2.036074   365A      2.044271   366A      2.054158  
     367A      2.064222   368A      2.077234   369A      2.085869  
     370A      2.091897   371A      2.106375   372A      2.125273  
     373A      2.129552   374A      2.152533   375A      2.162190  
     376A      2.174351   377A      2.179835   378A      2.195523  
     379A      2.203415   380A      2.218485   381A      2.227996  
     382A      2.234790   383A      2.246339   384A      2.248269  
     385A      2.252411   386A      2.266044   387A      2.277890  
     388A      2.280393   389A      2.286896   390A      2.292896  
     391A      2.304708   392A      2.313682   393A      2.335066  
     394A      2.342456   395A      2.350754   396A      2.371340  
     397A      2.382381   398A      2.394582   399A      2.401192  
     400A      2.413510   401A      2.422774   402A      2.431703  
     403A      2.469689   404A      2.476610   405A      2.481914  
     406A      2.503859   407A      2.516199   408A      2.524915  
     409A      2.530673   410A      2.550259   411A      2.558426  
     412A      2.587167   413A      2.610393   414A      2.632477  
     415A      2.638412   416A      2.649964   417A      2.667819  
     418A      2.680946   419A      2.689569   420A      2.708745  
     421A      2.722082   422A      2.741704   423A      2.755186  
     424A      2.763385   425A      2.782886   426A      2.795342  
     427A      2.810305   428A      2.826475   429A      2.851647  
     430A      2.874628   431A      2.903956   432A      2.928439  
     433A      2.951598   434A      2.980116   435A      3.005928  
     436A      3.020678   437A      3.028680   438A      3.054204  
     439A      3.086568   440A      3.090712   441A      3.120967  
     442A      3.144274   443A      3.155312   444A      3.183122  
     445A      3.197116   446A      3.209422   447A      3.260681  
     448A      3.282739   449A      3.316998   450A      3.343358  
     451A      3.368492   452A      3.408816   453A      3.412440  
     454A      3.432847   455A      3.448683   456A      3.455681  
     457A      3.458174   458A      3.489103   459A      3.500631  
     460A      3.510390   461A      3.516383   462A      3.552097  
     463A      3.566516   464A      3.574097   465A      3.591189  
     466A      3.615851   467A      3.624871   468A      3.626619  
     469A      3.638852   470A      3.663465   471A      3.671321  
     472A      3.675704   473A      3.694265   474A      3.701437  
     475A      3.712609   476A      3.721028   477A      3.728837  
     478A      3.736500   479A      3.752148   480A      3.759553  
     481A      3.764972   482A      3.773975   483A      3.779494  
     484A      3.797641   485A      3.807601   486A      3.811185  
     487A      3.824444   488A      3.825341   489A      3.835526  
     490A      3.859674   491A      3.867512   492A      3.876941  
     493A      3.880335   494A      3.887575   495A      3.897074  
     496A      3.908706   497A      3.915532   498A      3.930028  
     499A      3.940814   500A      3.960737   501A      3.964227  
     502A      3.967165   503A      3.981864   504A      3.986549  
     505A      3.996911   506A      3.999623   507A      4.007475  
     508A      4.015002   509A      4.033684   510A      4.043782  
     511A      4.054316   512A      4.070177   513A      4.085105  
     514A      4.097333   515A      4.103048   516A      4.119176  
     517A      4.122562   518A      4.130820   519A      4.149618  
     520A      4.158828   521A      4.173383   522A      4.183766  
     523A      4.196484   524A      4.200420   525A      4.211526  
     526A      4.217586   527A      4.231775   528A      4.236231  
     529A      4.252331   530A      4.254952   531A      4.271270  
     532A      4.280861   533A      4.299815   534A      4.313238  
     535A      4.321998   536A      4.328583   537A      4.340683  
     538A      4.353324   539A      4.372383   540A      4.396818  
     541A      4.406475   542A      4.415753   543A      4.441970  
     544A      4.444884   545A      4.457031   546A      4.471818  
     547A      4.486848   548A      4.502338   549A      4.515654  
     550A      4.520161   551A      4.531858   552A      4.544899  
     553A      4.559003   554A      4.575837   555A      4.589104  
     556A      4.606052   557A      4.617932   558A      4.622917  
     559A      4.648040   560A      4.671400   561A      4.677315  
     562A      4.695356   563A      4.697521   564A      4.708943  
     565A      4.724149   566A      4.744482   567A      4.752949  
     568A      4.776971   569A      4.816764   570A      4.832649  
     571A      4.847166   572A      4.855638   573A      4.861395  
     574A      4.870380   575A      4.875375   576A      4.884533  
     577A      4.905431   578A      4.914925   579A      4.919388  
     580A      4.934003   581A      4.948264   582A      4.965857  
     583A      4.978954   584A      4.991621   585A      5.000699  
     586A      5.009525   587A      5.023398   588A      5.041069  
     589A      5.062043   590A      5.090985   591A      5.092390  
     592A      5.106778   593A      5.117108   594A      5.130896  
     595A      5.153361   596A      5.164738   597A      5.176894  
     598A      5.193118   599A      5.199297   600A      5.211728  
     601A      5.222986   602A      5.233226   603A      5.252073  
     604A      5.261377   605A      5.271992   606A      5.296426  
     607A      5.321606   608A      5.331584   609A      5.347237  
     610A      5.359387   611A      5.367752   612A      5.393865  
     613A      5.412975   614A      5.415486   615A      5.427211  
     616A      5.428255   617A      5.441818   618A      5.458765  
     619A      5.469708   620A      5.499279   621A      5.518004  
     622A      5.535014   623A      5.539595   624A      5.577543  
     625A      5.584027   626A      5.617306   627A      5.629305  
     628A      5.648165   629A      5.666872   630A      5.697911  
     631A      5.716948   632A      5.723230   633A      5.750281  
     634A      5.759959   635A      5.763088   636A      5.794014  
     637A      5.810404   638A      5.821543   639A      5.856356  
     640A      5.908081   641A      5.914601   642A      5.938985  
     643A      5.984368   644A      6.001120   645A      6.025898  
     646A      6.034195   647A      6.044498   648A      6.073166  
     649A      6.101558   650A      6.133901   651A      6.156776  
     652A      6.161686   653A      6.176765   654A      6.193829  
     655A      6.230520   656A      6.232981   657A      6.244324  
     658A      6.252704   659A      6.273426   660A      6.338247  
     661A      6.376792   662A      6.409716   663A      6.415138  
     664A      6.459588   665A      6.514968   666A      6.573001  
     667A      6.655502   668A      6.688040   669A      6.739474  
     670A      6.781780   671A      6.806972   672A      6.827115  
     673A      6.833985   674A      6.841161   675A      6.858735  
     676A      6.876862   677A      6.884927   678A      6.919217  
     679A      6.946620   680A      6.981919   681A      6.997605  
     682A      7.016782   683A      7.039633   684A      7.083768  
     685A      7.093530   686A      7.241815   687A      7.255113  
     688A      7.301061   689A      7.321758   690A      7.429175  
     691A      7.454725   692A      7.477811   693A      7.639933  
     694A      7.670767   695A      7.699695   696A      7.714285  
     697A      7.770964   698A      7.910578   699A      7.950068  
     700A      7.999926   701A      8.041501   702A      8.188183  
     703A      8.464315   704A      8.601609   705A     15.328326  
     706A     16.332030   707A     16.994630   708A     17.827119  
     709A     18.032292   710A     18.595343   711A     18.828700  
     712A     19.257669   713A     21.283352  

    Final Occupation by Irrep:
              A 
    DOCC [    36 ]

  @DF-RHF Final Energy:  -439.13575588341115

   => Energetics <=

    Nuclear Repulsion Energy =            491.8663786162941847
    One-Electron Energy =               -1574.2670223500226712
    Two-Electron Energy =                 643.2648878503173364
    Total Energy =                       -439.1357558834110932

Computation Completed

*** tstop() called on node142.bme.utexas.edu at Tue Nov 17 05:31:47 2020
Module time:
	user time   =     366.78 seconds =       6.11 minutes
	system time =      44.64 seconds =       0.74 minutes
	total time  =         83 seconds =       1.38 minutes
Total time:
	user time   =     366.78 seconds =       6.11 minutes
	system time =      44.64 seconds =       0.74 minutes
	total time  =         83 seconds =       1.38 minutes
   => Loading Basis Set <=

    Name: (AUG-CC-PVTZ AUX)
    Role: RIFIT
    Keyword: DF_BASIS_MP2
    atoms 1-2   entry O          line   264 file /home/xy3866/psi4conda/share/psi4/basis/aug-cc-pvtz-ri.gbs 
    atoms 3     entry N          line   206 file /home/xy3866/psi4conda/share/psi4/basis/aug-cc-pvtz-ri.gbs 
    atoms 4-9   entry C          line   148 file /home/xy3866/psi4conda/share/psi4/basis/aug-cc-pvtz-ri.gbs 
    atoms 10-22 entry H          line    30 file /home/xy3866/psi4conda/share/psi4/basis/aug-cc-pvtz-ri.gbs 


*** tstart() called on node142.bme.utexas.edu
*** at Tue Nov 17 05:31:47 2020


  //>>>>>>>>>>>>>>>>>>>>>>>>>>>>>>>>>>>//
  //               DFMP2               //
  //<<<<<<<<<<<<<<<<<<<<<<<<<<<<<<<<<<<//

	 --------------------------------------------------------
	                          DF-MP2                         
	      2nd-Order Density-Fitted Moller-Plesset Theory     
	              RMP2 Wavefunction,   8 Threads             
	                                                         
	        Rob Parrish, Justin Turney, Andy Simmonett,      
	           Ed Hohenstein, and C. David Sherrill          
	 --------------------------------------------------------

   => Auxiliary Basis Set <=

  Basis Set: (AUG-CC-PVTZ AUX)
    Blend: AUG-CC-PVTZ-RI
    Number of shells: 434
    Number of basis function: 1552
    Number of Cartesian functions: 1939
    Spherical Harmonics?: true
    Max angular momentum: 4

	 --------------------------------------------------------
	                 NBF =   713, NAUX =  1552
	 --------------------------------------------------------
	   CLASS    FOCC     OCC    AOCC    AVIR     VIR    FVIR
	   PAIRS       0      36      36     677     677       0
	 --------------------------------------------------------

  DFHelper Memory: AOs need 5.566 GiB; user supplied 22.352 GiB. Using in-core AOs.


         ------------------------------------------------------------
                                     CPHF                           
                                  Rob Parrish                       
         ------------------------------------------------------------

  ==> Geometry <==

    Molecular point group: c1
    Full point group: C1

    Geometry (in Angstrom), charge = 0, multiplicity = 1:

       Center              X                  Y                   Z               Mass       
    ------------   -----------------  -----------------  -----------------  -----------------
         O            0.946143106837     0.174422299456    -0.163875222935    15.994914619570
         O            0.162713106837    -1.902207700544     0.389134777065    15.994914619570
         N           -1.261935693163    -0.235859400544    -0.371525322935    14.003074004430
         C           -1.442388893163     1.196186299456    -0.591209222935    12.000000000000
         C           -1.512942893163     2.042491299456     0.675868777065    12.000000000000
         C           -2.445954893163    -1.021566700544    -0.037300222935    12.000000000000
         C           -0.044264893163    -0.753928700544     0.009325777065    12.000000000000
         C            2.272181106837    -0.331385700544     0.109425777065    12.000000000000
         C            3.221393106837     0.827027299456    -0.098851222935    12.000000000000
         H           -0.624374893163     1.532749299456    -1.229356222935     1.007825032230
         H           -2.369362893163     1.288588299456    -1.167365222935     1.007825032230
         H           -2.324531893163     1.708444299456     1.328076777065     1.007825032230
         H           -0.570692893163     1.969606299456     1.222942777065     1.007825032230
         H           -1.688659893163     3.093628299456     0.426121777065     1.007825032230
         H           -2.950101893163    -0.687014700544     0.877275777065     1.007825032230
         H           -2.140801893163    -2.058922700544     0.086905777065     1.007825032230
         H           -3.145584893163    -0.942338700544    -0.874364222935     1.007825032230
         H            2.305465106837    -0.714100700544     1.132693777065     1.007825032230
         H            2.483833106837    -1.164475700544    -0.566248222935     1.007825032230
         H            3.158154106837     1.195972299456    -1.124920222935     1.007825032230
         H            2.981069106837     1.646925299456     0.581681777065     1.007825032230
         H            4.249216106837     0.505880299456     0.092776777065     1.007825032230

  Nuclear repulsion =  491.866378616294185
  Reference energy  = -439.135755883411150

  ==> Basis Set <==

  Basis Set: AUG-CC-PVTZ
    Blend: AUG-CC-PVTZ
    Number of shells: 243
    Number of basis function: 713
    Number of Cartesian functions: 820
    Spherical Harmonics?: true
    Max angular momentum: 3

  ==> CGRSolver (by Rob Parrish) <==

   Number of roots    =         1
   Preconditioning    =    JACOBI
   Convergence cutoff =     1E-06
   Maximum iterations =       100

  ==> CPHFRHamiltonian (by Rob Parrish) <== 

  ==> MemDFJK: Density-Fitted J/K Matrices <==

    J tasked:                   Yes
    K tasked:                   Yes
    wK tasked:                   No
    OpenMP threads:               8
    Memory [MiB]:             22888
    Algorithm:                 Disk
    Schwarz Cutoff:           1E-12
    Mask sparsity (%):       6.7789
    Fitting Condition:        1E-10

   => Auxiliary Basis Set <=

  Basis Set: (AUG-CC-PVTZ AUX)
    Blend: AUG-CC-PVTZ-JKFIT
    Number of shells: 452
    Number of basis function: 1534
    Number of Cartesian functions: 1894
    Spherical Harmonics?: true
    Max angular momentum: 4

  ==> CPHF Iterations <==

  => Iterations <=

             Iter  Converged  Remaining    Residual
  CGR           1          0          1   1.070E-01
  CGR           2          0          1   3.102E-02
  CGR           3          0          1   1.171E-02
  CGR           4          0          1   3.490E-03
  CGR           5          0          1   1.226E-03
  CGR           6          0          1   3.608E-04
  CGR           7          0          1   1.463E-04
  CGR           8          0          1   5.428E-05
  CGR           9          0          1   1.993E-05
  CGR          10          0          1   6.049E-06
  CGR          11          0          1   1.938E-06
  CGR          12          1          0   5.988E-07

    CGRSolver converged.

	-----------------------------------------------------------
	 ==================> DF-MP2 Energies <==================== 
	-----------------------------------------------------------
	 Reference Energy          =    -439.1357558834111501 [Eh]
	 Singles Energy            =      -0.0000000000000000 [Eh]
	 Same-Spin Energy          =      -0.4417043571956408 [Eh]
	 Opposite-Spin Energy      =      -1.4593839698150743 [Eh]
	 Correlation Energy        =      -1.9010883270107151 [Eh]
	 Total Energy              =    -441.0368442104218616 [Eh]
	-----------------------------------------------------------
	 ================> DF-SCS-MP2 Energies <================== 
	-----------------------------------------------------------
	 SCS Same-Spin Scale       =       0.3333333333333333 [-]
	 SCS Opposite-Spin Scale   =       1.2000000000000000 [-]
	 SCS Same-Spin Energy      =      -0.1472347857318803 [Eh]
	 SCS Opposite-Spin Energy  =      -1.7512607637780893 [Eh]
	 SCS Correlation Energy    =      -1.8984955495099696 [Eh]
	 SCS Total Energy          =    -441.0342514329211099 [Eh]
	-----------------------------------------------------------



Properties will be evaluated at  -0.000000,   0.000000,   0.000000 [a0]

Properties computed using the MP2 density matrix

  Nuclear Dipole Moment: [e a0]
     X:    -0.5876      Y:     6.9062      Z:     0.7392

  Electronic Dipole Moment: [e a0]
     X:     0.3865      Y:    -5.9639      Z:    -0.8961

  Dipole Moment: [e a0]
     X:    -0.2011      Y:     0.9422      Z:    -0.1569     Total:     0.9761

  Dipole Moment: [D]
     X:    -0.5112      Y:     2.3949      Z:    -0.3988     Total:     2.4811


*** tstop() called on node142.bme.utexas.edu at Tue Nov 17 05:35:04 2020
Module time:
	user time   =    1182.42 seconds =      19.71 minutes
	system time =      51.64 seconds =       0.86 minutes
	total time  =        197 seconds =       3.28 minutes
Total time:
	user time   =    1549.40 seconds =      25.82 minutes
	system time =      96.28 seconds =       1.60 minutes
	total time  =        280 seconds =       4.67 minutes

    Psi4 stopped on: Tuesday, 17 November 2020 05:35AM
    Psi4 wall time for execution: 0:04:40.38

*** Psi4 exiting successfully. Buy a developer a beer!
