72879                                                                   
Freq      RMP2-FC                                                     6-31G(d)            
Number of atoms                            I               10
Info1-9                                    I   N=           9
          22          20        1002           0           0         100
           6           2           1
Charge                                     I                0
Multiplicity                               I                1
Number of electrons                        I               50
Number of alpha electrons                  I               25
Number of beta electrons                   I               25
Number of basis functions                  I               89
Number of independent functions            I               89
Number of point charges in /Mol/           I                0
Number of translation vectors              I                0
Atomic numbers                             I   N=          10
          16           8           8           7           6           1
           1           1           1           1
Nuclear charges                            R   N=          10
  1.60000000E+01  8.00000000E+00  8.00000000E+00  7.00000000E+00  6.00000000E+00
  1.00000000E+00  1.00000000E+00  1.00000000E+00  1.00000000E+00  1.00000000E+00
Current cartesian coordinates              R   N=          30
  9.38500558E-02 -3.34253540E-01  1.26151221E-06  3.05089148E-01 -1.62786639E+00
  2.42712435E+00  3.05089606E-01 -1.62788612E+00 -2.42711130E+00  2.32975602E+00
  1.87340460E+00 -7.24204497E-06 -2.86743552E+00  1.28924918E+00 -5.31013714E-06
 -3.01674036E+00  2.44532440E+00 -1.70005661E+00 -4.34866941E+00 -1.45889767E-01
  9.51094109E-07 -3.01674012E+00  2.44533879E+00  1.70003626E+00  2.44772011E+00
  2.89998157E+00 -1.61712932E+00  2.44771988E+00  2.89999449E+00  1.61710667E+00
Force Field                                I                0
Int Atom Types                             I   N=          10
           0           0           0           0           0           0
           0           0           0           0
MM charges                                 R   N=          10
  0.00000000E+00  0.00000000E+00  0.00000000E+00  0.00000000E+00  0.00000000E+00
  0.00000000E+00  0.00000000E+00  0.00000000E+00  0.00000000E+00  0.00000000E+00
Integer atomic weights                     I   N=          10
          32          16          16          14          12           1
           1           1           1           1
Real atomic weights                        R   N=          10
  3.19720718E+01  1.59949146E+01  1.59949146E+01  1.40030740E+01  1.20000000E+01
  1.00782504E+00  1.00782504E+00  1.00782504E+00  1.00782504E+00  1.00782504E+00
Atom fragment info                         I   N=          10
           0           0           0           0           0           0
           0           0           0           0
Atom residue num                           I   N=          10
           0           0           0           0           0           0
           0           0           0           0
Nuclear spins                              I   N=          10
           0           0           0           2           0           1
           1           1           1           1
Nuclear ZEff                               R   N=          10
 -1.36000000E+01 -5.60000000E+00 -5.60000000E+00 -4.55000000E+00 -3.60000000E+00
 -1.00000000E+00 -1.00000000E+00 -1.00000000E+00 -1.00000000E+00 -1.00000000E+00
Nuclear QMom                               R   N=          10
  0.00000000E+00  0.00000000E+00  0.00000000E+00  2.04400000E+00  0.00000000E+00
  0.00000000E+00  0.00000000E+00  0.00000000E+00  0.00000000E+00  0.00000000E+00
Nuclear GFac                               R   N=          10
  0.00000000E+00  0.00000000E+00  0.00000000E+00  4.03761000E-01  0.00000000E+00
  2.79284600E+00  2.79284600E+00  2.79284600E+00  2.79284600E+00  2.79284600E+00
MicOpt                                     I   N=          10
          -1          -1          -1          -1          -1          -1
          -1          -1          -1          -1
Number of contracted shells                I               31
Number of primitive shells                 I               81
Pure/Cartesian d shells                    I                1
Pure/Cartesian f shells                    I                0
Highest angular momentum                   I                2
Largest degree of contraction              I                6
Shell types                                I   N=          31
           0          -1          -1          -1           2           0
          -1          -1           2           0          -1          -1
           2           0          -1          -1           2           0
          -1          -1           2           0           0           0
           0           0           0           0           0           0
           0
Number of primitives per shell             I   N=          31
           6           6           3           1           1           6
           3           1           1           6           3           1
           1           6           3           1           1           6
           3           1           1           3           1           3
           1           3           1           3           1           3
           1
Shell to atom map                          I   N=          31
           1           1           1           1           1           2
           2           2           2           3           3           3
           3           4           4           4           4           5
           5           5           5           6           6           7
           7           8           8           9           9          10
          10
Primitive exponents                        R   N=          81
  2.19171000E+04  3.30149000E+03  7.54146000E+02  2.12711000E+02  6.79896000E+01
  2.30515000E+01  4.23735000E+02  1.00710000E+02  3.21599000E+01  1.18079000E+01
  4.63110000E+00  1.87025000E+00  2.61584000E+00  9.22167000E-01  3.41287000E-01
  1.17167000E-01  6.50000000E-01  5.48467166E+03  8.25234946E+02  1.88046958E+02
  5.29645000E+01  1.68975704E+01  5.79963534E+00  1.55396162E+01  3.59993359E+00
  1.01376175E+00  2.70005823E-01  8.00000000E-01  5.48467166E+03  8.25234946E+02
  1.88046958E+02  5.29645000E+01  1.68975704E+01  5.79963534E+00  1.55396162E+01
  3.59993359E+00  1.01376175E+00  2.70005823E-01  8.00000000E-01  4.17351146E+03
  6.27457911E+02  1.42902093E+02  4.02343293E+01  1.28202129E+01  4.39043701E+00
  1.16263619E+01  2.71627981E+00  7.72218397E-01  2.12031498E-01  8.00000000E-01
  3.04752488E+03  4.57369518E+02  1.03948685E+02  2.92101553E+01  9.28666296E+00
  3.16392696E+00  7.86827235E+00  1.88128854E+00  5.44249258E-01  1.68714478E-01
  8.00000000E-01  1.87311370E+01  2.82539436E+00  6.40121692E-01  1.61277759E-01
  1.87311370E+01  2.82539436E+00  6.40121692E-01  1.61277759E-01  1.87311370E+01
  2.82539436E+00  6.40121692E-01  1.61277759E-01  1.87311370E+01  2.82539436E+00
  6.40121692E-01  1.61277759E-01  1.87311370E+01  2.82539436E+00  6.40121692E-01
  1.61277759E-01
Contraction coefficients                   R   N=          81
  1.86924085E-03  1.42303065E-02  6.96962317E-02  2.38487108E-01  4.83307220E-01
  3.38074154E-01 -2.37677050E-03 -3.16930067E-02 -1.13317024E-01  5.60900118E-02
  5.92255124E-01  4.55006095E-01 -2.50373114E-01  6.69567631E-02  1.05450627E+00
  1.00000000E+00  1.00000000E+00  1.83107443E-03  1.39501722E-02  6.84450781E-02
  2.32714336E-01  4.70192898E-01  3.58520853E-01 -1.10777550E-01 -1.48026263E-01
  1.13076702E+00  1.00000000E+00  1.00000000E+00  1.83107443E-03  1.39501722E-02
  6.84450781E-02  2.32714336E-01  4.70192898E-01  3.58520853E-01 -1.10777550E-01
 -1.48026263E-01  1.13076702E+00  1.00000000E+00  1.00000000E+00  1.83477216E-03
  1.39946270E-02  6.85865518E-02  2.32240873E-01  4.69069948E-01  3.60455199E-01
 -1.14961182E-01 -1.69117479E-01  1.14585195E+00  1.00000000E+00  1.00000000E+00
  1.83473713E-03  1.40373228E-02  6.88426223E-02  2.32184443E-01  4.67941348E-01
  3.62311985E-01 -1.19332420E-01 -1.60854152E-01  1.14345644E+00  1.00000000E+00
  1.00000000E+00  3.34946043E-02  2.34726953E-01  8.13757326E-01  1.00000000E+00
  3.34946043E-02  2.34726953E-01  8.13757326E-01  1.00000000E+00  3.34946043E-02
  2.34726953E-01  8.13757326E-01  1.00000000E+00  3.34946043E-02  2.34726953E-01
  8.13757326E-01  1.00000000E+00  3.34946043E-02  2.34726953E-01  8.13757326E-01
  1.00000000E+00
P(S=P) Contraction coefficients            R   N=          81
  0.00000000E+00  0.00000000E+00  0.00000000E+00  0.00000000E+00  0.00000000E+00
  0.00000000E+00  4.06100998E-03  3.06812999E-02  1.30451999E-01  3.27204999E-01
  4.52850998E-01  2.56041999E-01 -1.45104895E-02  3.10262776E-01  7.54482456E-01
  1.00000000E+00  0.00000000E+00  0.00000000E+00  0.00000000E+00  0.00000000E+00
  0.00000000E+00  0.00000000E+00  0.00000000E+00  7.08742682E-02  3.39752839E-01
  7.27158577E-01  1.00000000E+00  0.00000000E+00  0.00000000E+00  0.00000000E+00
  0.00000000E+00  0.00000000E+00  0.00000000E+00  0.00000000E+00  7.08742682E-02
  3.39752839E-01  7.27158577E-01  1.00000000E+00  0.00000000E+00  0.00000000E+00
  0.00000000E+00  0.00000000E+00  0.00000000E+00  0.00000000E+00  0.00000000E+00
  6.75797439E-02  3.23907296E-01  7.40895140E-01  1.00000000E+00  0.00000000E+00
  0.00000000E+00  0.00000000E+00  0.00000000E+00  0.00000000E+00  0.00000000E+00
  0.00000000E+00  6.89990666E-02  3.16423961E-01  7.44308291E-01  1.00000000E+00
  0.00000000E+00  0.00000000E+00  0.00000000E+00  0.00000000E+00  0.00000000E+00
  0.00000000E+00  0.00000000E+00  0.00000000E+00  0.00000000E+00  0.00000000E+00
  0.00000000E+00  0.00000000E+00  0.00000000E+00  0.00000000E+00  0.00000000E+00
  0.00000000E+00  0.00000000E+00  0.00000000E+00  0.00000000E+00  0.00000000E+00
  0.00000000E+00
Coordinates of each shell                  R   N=          93
  9.38500558E-02 -3.34253540E-01  1.26151221E-06  9.38500558E-02 -3.34253540E-01
  1.26151221E-06  9.38500558E-02 -3.34253540E-01  1.26151221E-06  9.38500558E-02
 -3.34253540E-01  1.26151221E-06  9.38500558E-02 -3.34253540E-01  1.26151221E-06
  3.05089148E-01 -1.62786639E+00  2.42712435E+00  3.05089148E-01 -1.62786639E+00
  2.42712435E+00  3.05089148E-01 -1.62786639E+00  2.42712435E+00  3.05089148E-01
 -1.62786639E+00  2.42712435E+00  3.05089606E-01 -1.62788612E+00 -2.42711130E+00
  3.05089606E-01 -1.62788612E+00 -2.42711130E+00  3.05089606E-01 -1.62788612E+00
 -2.42711130E+00  3.05089606E-01 -1.62788612E+00 -2.42711130E+00  2.32975602E+00
  1.87340460E+00 -7.24204497E-06  2.32975602E+00  1.87340460E+00 -7.24204497E-06
  2.32975602E+00  1.87340460E+00 -7.24204497E-06  2.32975602E+00  1.87340460E+00
 -7.24204497E-06 -2.86743552E+00  1.28924918E+00 -5.31013714E-06 -2.86743552E+00
  1.28924918E+00 -5.31013714E-06 -2.86743552E+00  1.28924918E+00 -5.31013714E-06
 -2.86743552E+00  1.28924918E+00 -5.31013714E-06 -3.01674036E+00  2.44532440E+00
 -1.70005661E+00 -3.01674036E+00  2.44532440E+00 -1.70005661E+00 -4.34866941E+00
 -1.45889767E-01  9.51094109E-07 -4.34866941E+00 -1.45889767E-01  9.51094109E-07
 -3.01674012E+00  2.44533879E+00  1.70003626E+00 -3.01674012E+00  2.44533879E+00
  1.70003626E+00  2.44772011E+00  2.89998157E+00 -1.61712932E+00  2.44772011E+00
  2.89998157E+00 -1.61712932E+00  2.44771988E+00  2.89999449E+00  1.61710667E+00
  2.44771988E+00  2.89999449E+00  1.61710667E+00
Constraint Structure                       R   N=          30
  9.38500558E-02 -3.34253540E-01  1.26151221E-06  3.05089148E-01 -1.62786639E+00
  2.42712435E+00  3.05089606E-01 -1.62788612E+00 -2.42711130E+00  2.32975602E+00
  1.87340460E+00 -7.24204497E-06 -2.86743552E+00  1.28924918E+00 -5.31013714E-06
 -3.01674036E+00  2.44532440E+00 -1.70005661E+00 -4.34866941E+00 -1.45889767E-01
  9.51094109E-07 -3.01674012E+00  2.44533879E+00  1.70003626E+00  2.44772011E+00
  2.89998157E+00 -1.61712932E+00  2.44771988E+00  2.89999449E+00  1.61710667E+00
Num ILSW                                   I              100
ILSW                                       I   N=         100
           0           1           0           0           2           0
           0           0           0           0           0          -1
           0           0           0           0           0           0
           0           0           0           0           1           0
           1           0           0           0           0           0
           0           0      100000           0          -1           0
           0           0           0           0           0           0
           0           0           0           1           1           0
           0           0           1           0           0           0
           0           0           4          40           0           0
           0           0           0           0           0           0
           0           0           0           0           0           0
           0           0           0           0           0           0
           0           0           0           0           0           0
           0           0           0           0           0           0
           0           0           0           0           0           0
           0           0           0           0
Num RLSW                                   I               40
RLSW                                       R   N=          40
  1.00000000E+00  1.00000000E+00  1.00000000E+00  1.00000000E+00  1.00000000E+00
  0.00000000E+00  0.00000000E+00  1.00000000E+00  0.00000000E+00  0.00000000E+00
  0.00000000E+00  0.00000000E+00  1.00000000E+00  0.00000000E+00  0.00000000E+00
  0.00000000E+00  0.00000000E+00  1.00000000E+00  0.00000000E+00  0.00000000E+00
  0.00000000E+00  0.00000000E+00  1.00000000E+00  0.00000000E+00  0.00000000E+00
  0.00000000E+00  0.00000000E+00  1.00000000E+00  0.00000000E+00  0.00000000E+00
  0.00000000E+00  0.00000000E+00  0.00000000E+00  0.00000000E+00  0.00000000E+00
  0.00000000E+00  0.00000000E+00  0.00000000E+00  1.00000000E+00  1.00000000E+00
MxBond                                     I                4
NBond                                      I   N=          10
           4           1           1           3           4           1
           1           1           1           1
IBond                                      I   N=          40
           2           3           4           5           1           0
           0           0           1           0           0           0
           1           9          10           0           1           6
           7           8           5           0           0           0
           5           0           0           0           5           0
           0           0           4           0           0           0
           4           0           0           0
RBond                                      R   N=          40
  2.00000000E+00  2.00000000E+00  1.00000000E+00  1.00000000E+00  2.00000000E+00
  0.00000000E+00  0.00000000E+00  0.00000000E+00  2.00000000E+00  0.00000000E+00
  0.00000000E+00  0.00000000E+00  1.00000000E+00  1.00000000E+00  1.00000000E+00
  0.00000000E+00  1.00000000E+00  1.00000000E+00  1.00000000E+00  1.00000000E+00
  1.00000000E+00  0.00000000E+00  0.00000000E+00  0.00000000E+00  1.00000000E+00
  0.00000000E+00  0.00000000E+00  0.00000000E+00  1.00000000E+00  0.00000000E+00
  0.00000000E+00  0.00000000E+00  1.00000000E+00  0.00000000E+00  0.00000000E+00
  0.00000000E+00  1.00000000E+00  0.00000000E+00  0.00000000E+00  0.00000000E+00
Virial Ratio                               R      2.002046361994208E+00
SCF Energy                                 R     -6.423805927773826E+02
MP2 Energy                                 R     -6.431787370183442E+02
Total Energy                               R     -6.431787370183442E+02
Post-SCF wavefunction norm                 R      1.580370823955972E+00
RMS Force                                  R      4.385936993762640E-07
RMS Density                                R      2.694480472929513E-10
External E-field                           R   N=          35
  0.00000000E+00  0.00000000E+00  0.00000000E+00  0.00000000E+00  0.00000000E+00
  0.00000000E+00  0.00000000E+00  0.00000000E+00  0.00000000E+00  0.00000000E+00
  0.00000000E+00  0.00000000E+00  0.00000000E+00  0.00000000E+00  0.00000000E+00
  0.00000000E+00  0.00000000E+00  0.00000000E+00  0.00000000E+00  0.00000000E+00
  0.00000000E+00  0.00000000E+00  0.00000000E+00  0.00000000E+00  0.00000000E+00
  0.00000000E+00  0.00000000E+00  0.00000000E+00  0.00000000E+00  0.00000000E+00
  0.00000000E+00  0.00000000E+00  0.00000000E+00  0.00000000E+00  0.00000000E+00
IOpCl                                      I                0
IROHF                                      I                0
Alpha Orbital Energies                     R   N=          89
 -9.22181843E+01 -2.05585909E+01 -2.05585725E+01 -1.56174276E+01 -1.12843574E+01
 -9.18902773E+00 -6.87517318E+00 -6.87485929E+00 -6.87391875E+00 -1.46045564E+00
 -1.34137979E+00 -1.22309145E+00 -1.04441813E+00 -8.52741730E-01 -7.33836567E-01
 -7.23465230E-01 -6.75484470E-01 -6.47873969E-01 -6.14555860E-01 -6.04046972E-01
 -5.07801877E-01 -4.94105860E-01 -4.77390035E-01 -4.69159097E-01 -4.57323214E-01
  1.82798299E-01  2.32920072E-01  2.36030911E-01  2.49665673E-01  2.85102432E-01
  2.85210275E-01  3.01946023E-01  3.05469491E-01  3.32519965E-01  5.05370551E-01
  5.54977075E-01  6.12937069E-01  6.51797069E-01  7.22182142E-01  7.29566142E-01
  7.36109744E-01  8.81742632E-01  9.14990787E-01  9.68641819E-01  1.03525657E+00
  1.04621382E+00  1.06231037E+00  1.11855190E+00  1.11951227E+00  1.12736746E+00
  1.15988978E+00  1.17631711E+00  1.20180272E+00  1.21888196E+00  1.30773640E+00
  1.32074300E+00  1.36461927E+00  1.44434641E+00  1.46944557E+00  1.49276916E+00
  1.50875646E+00  1.54202611E+00  1.65186441E+00  1.84141806E+00  1.91075948E+00
  1.92612796E+00  2.01886581E+00  2.06865242E+00  2.10515456E+00  2.10914649E+00
  2.16090462E+00  2.20586895E+00  2.35043482E+00  2.38158918E+00  2.38391711E+00
  2.40553905E+00  2.46349163E+00  2.52024924E+00  2.54924203E+00  2.63082367E+00
  2.66498661E+00  2.76539047E+00  3.11373553E+00  3.18220692E+00  4.07411120E+00
  4.26724864E+00  4.31420087E+00  4.37190397E+00  4.60207138E+00
Alpha MO coefficients                      R   N=        7921
  9.96269813E-01  1.42110862E-02  1.33124616E-05  1.12476360E-05 -4.81626121E-11
 -1.99674684E-02  1.16595083E-05 -2.19976811E-05  8.68781453E-11  1.98444231E-03
 -1.28999367E-04  1.72072146E-04 -6.77929896E-10  6.92016909E-03  6.91972194E-03
  6.93677592E-03  6.21607249E-06 -2.23995447E-11  7.63462581E-11  1.56150331E-05
  1.20938315E-05  1.01174319E-06 -3.80152431E-05  9.11993904E-05  2.36704667E-04
  1.14776966E-05  8.53012081E-05 -2.57407913E-04  4.34879959E-05 -1.30120326E-06
 -8.48707215E-05  8.51257617E-06 -1.81157137E-05  8.84194998E-05  1.56150300E-05
  1.20938239E-05  1.01175917E-06 -3.80159838E-05 -9.11990755E-05  2.36704724E-04
  1.14776506E-05  8.53033137E-05  2.57407226E-04  4.34879792E-05 -1.30245481E-06
 -8.48694805E-05  8.51273988E-06  1.81156743E-05 -8.84202806E-05 -8.92563644E-08
  2.95225867E-05 -2.51725590E-05 -3.27994309E-05  1.33619585E-10  3.60647760E-04
 -9.06428358E-05 -3.92394371E-05  9.39582375E-11 -8.16186185E-05 -4.96375989E-05
  1.80920653E-05 -5.22354347E-05  1.98280630E-10  3.00125075E-10 -9.22900114E-06
  2.78005501E-05  1.00089799E-04 -4.79401224E-05  1.96774843E-10  4.13617694E-04
 -7.58223709E-05 -1.62367682E-05  4.27497884E-11 -5.16906148E-05 -2.31334639E-05
 -2.30725630E-05  2.04928877E-05 -8.86459323E-11 -3.86982645E-12 -3.10772979E-05
 -1.83363581E-04 -4.23344485E-05 -2.07424715E-04 -3.10772920E-05 -1.83363545E-04
 -4.29812503E-05 -1.42472349E-04 -4.29812301E-05 -1.42472293E-04  1.84251517E-08
 -7.84052865E-08 -4.52838094E-09  1.00523460E-08  2.20810517E-05  6.99896477E-07
  4.33784491E-08 -1.83242551E-07 -4.36131026E-04 -2.61709441E-08 -6.33164228E-08
  2.34282570E-07  6.01683554E-04 -1.56389704E-07 -1.60987436E-07 -1.76874232E-07
  5.94488556E-09 -1.02543219E-06 -1.54904533E-05 -7.02834480E-01 -1.47568421E-02
  7.80718308E-05 -4.73438339E-04  8.81103898E-04 -3.07138039E-03 -1.85175292E-05
  1.23888503E-04 -2.88367447E-04  2.80311390E-03  2.83728470E-03  2.85253872E-03
 -3.27558992E-08  7.08215977E-06 -4.37571733E-05  7.03854515E-01  1.47783730E-02
 -7.81938394E-05  4.74175040E-04  8.82352190E-04  3.07529189E-03  1.85726458E-05
 -1.24188263E-04 -2.88825705E-04 -2.80710663E-03 -2.84129547E-03 -2.85667330E-03
  2.64325426E-08  7.08798064E-06 -4.37813634E-05 -2.28839095E-09  1.68057949E-08
  8.11893172E-09  1.72713224E-08  2.48985417E-05 -2.15788449E-08  5.97400144E-08
  4.49202252E-08 -9.14967164E-05 -1.81104609E-08 -3.13412862E-08 -1.97178309E-08
 -1.67418788E-08 -1.01623346E-05 -3.18780336E-05  2.92422965E-09  3.39228441E-08
 -1.36180521E-08  1.14571807E-08  2.07765422E-05 -8.71630054E-08 -8.41732162E-08
  3.35690552E-08 -9.50077740E-05 -1.96041104E-08 -1.21331440E-08 -9.43635375E-09
  1.41026498E-08  6.66888720E-06 -1.53723450E-05 -1.51430483E-05  1.02596468E-05
  7.37837347E-09 -1.53466489E-08  1.51694700E-05 -1.03402857E-05 -2.95660293E-05
  2.56691168E-05  2.95925972E-05 -2.57711111E-05  2.54107456E-05 -1.08114265E-04
 -6.24027363E-06  1.37382329E-05 -1.60637860E-08  9.65300408E-04  5.97521515E-05
 -2.50257002E-04  3.17252017E-07 -3.66237458E-05 -8.72032167E-05  3.19531215E-04
 -4.37542907E-07 -2.15679402E-04 -2.21861048E-04 -2.44103603E-04  8.19578528E-06
  7.10874210E-10  1.11365860E-08  7.03872028E-01  1.48572459E-02 -8.40718378E-05
  5.03364456E-04 -8.64072765E-04  2.69954518E-03  3.79747241E-05 -2.05112707E-04
  3.16873616E-04 -2.75523782E-03 -2.76726648E-03 -2.85351614E-03 -4.40593806E-06
 -4.00890137E-06  1.65941051E-05  7.02852019E-01  1.48358295E-02 -8.39586920E-05
  5.02684376E-04  8.62789943E-04  2.69508816E-03  3.79478956E-05 -2.04935413E-04
 -3.16453420E-04 -2.75116976E-03 -2.76314909E-03 -2.84937606E-03 -4.40594565E-06
  3.99868698E-06 -1.65314613E-05 -3.16975283E-06  2.31325097E-05  1.12169948E-05
  2.36913369E-05 -1.81507239E-08 -2.94333199E-05  8.22659658E-05  6.24057627E-05
  6.61028009E-08 -2.50112431E-05 -4.29565413E-05 -2.75272398E-05 -2.30352160E-05
  7.46098067E-09  2.31842754E-08  4.02277721E-06  4.67578245E-05 -1.87878569E-05
  1.56944226E-05 -1.51247591E-08 -1.19911787E-04 -1.15968814E-04  4.67725248E-05
  6.86621310E-08 -2.70524248E-05 -1.66099946E-05 -1.31873997E-05  1.94171981E-05
 -4.91610551E-09  1.11637012E-08  1.82204582E-05 -5.55944695E-05  1.01735046E-05
 -2.11915348E-05  1.81984809E-05 -5.55794933E-05  1.83297029E-05 -7.03427353E-05
  1.82868100E-05 -7.03054504E-05  5.52080233E-06 -8.70633706E-05 -4.52379748E-05
 -3.31911072E-05  1.26613012E-10  1.42544479E-05  3.25305934E-04  2.09815921E-04
 -7.87921341E-10  2.26543717E-03 -1.28326099E-05  9.16594362E-04 -3.29007843E-09
 -7.14222627E-06  7.97750521E-06 -5.52244725E-05  1.18224705E-04 -4.74331140E-10
 -2.68334650E-10  2.57704264E-05  1.00244209E-04 -1.48873964E-05  1.17229240E-05
  1.34386683E-05 -5.61282037E-04 -8.71624217E-06 -2.42040601E-04  7.89775460E-05
  6.51295601E-05  3.30020114E-05  6.24360444E-05  7.71879860E-06  1.20471416E-05
  2.23311331E-05  2.57704015E-05  1.00244119E-04 -1.48873893E-05  1.17228210E-05
 -1.34387572E-05 -5.61281422E-04 -8.71624880E-06 -2.42041189E-04 -7.89755648E-05
  6.51295020E-05  3.30016295E-05  6.24362796E-05  7.71869313E-06 -1.20472088E-05
 -2.23308649E-05  9.94961046E-01  2.50823081E-02 -1.00597862E-03  4.86642937E-04
 -2.07008593E-09 -2.11506521E-03  1.00709522E-03  3.83572089E-05 -7.65809452E-11
 -3.48154584E-03 -3.46701971E-03 -3.46776853E-03 -1.84084506E-04  7.29394027E-10
 -2.27471395E-11  1.03730698E-05  8.89490356E-05 -5.97359771E-05 -3.04854702E-05
  1.40855597E-10 -6.33869302E-04 -3.40245502E-04  2.87831443E-04 -1.34464655E-09
 -5.87161528E-05  8.45496640E-06 -7.27484290E-06  1.60301626E-06 -1.38197461E-11
 -6.56822203E-11  2.27835970E-05 -1.91836358E-04  2.29375690E-05  7.39889534E-05
  2.27835841E-05 -1.91836205E-04  2.72430927E-04  2.59455609E-04  2.72430945E-04
  2.59455556E-04 -3.47282504E-06 -1.09207858E-04  2.14870120E-05 -1.16730096E-05
  5.58561381E-11  5.12318400E-05 -3.81138422E-04  1.76755352E-04 -7.69292670E-10
  5.36888045E-03 -1.24493335E-03  1.70066904E-03 -6.40670564E-09 -1.59367278E-04
 -1.90492315E-04 -1.37732260E-04  5.45946981E-05 -1.80220353E-10  2.70381543E-10
  2.25637543E-05  7.81344688E-05  4.76068437E-05 -1.19746474E-05  3.86650801E-05
 -8.03834943E-04  9.15580907E-06 -2.47064448E-04  8.63642409E-05  9.23399658E-05
 -1.50676185E-05  3.03311791E-05 -7.29325507E-05  1.66200212E-06 -2.17530068E-05
  2.25637367E-05  7.81344335E-05  4.76068355E-05 -1.19749348E-05 -3.86649756E-05
 -8.03834423E-04  9.15596417E-06 -2.47065237E-04 -8.63622390E-05  9.23399025E-05
 -1.50673764E-05  3.03308275E-05 -7.29324930E-05 -1.66136313E-06  2.17533883E-05
  4.95065234E-06  6.07018751E-05  4.41276193E-05 -4.39782227E-05  1.81193753E-10
 -6.88080736E-04  5.50021152E-04  5.98184392E-04 -2.38679659E-09 -4.38894328E-05
 -3.30253382E-05 -5.63306399E-05 -6.40353339E-05  2.65416918E-10 -1.10910191E-10
  9.95721353E-01  2.87751405E-02  4.54686095E-04 -1.93321489E-04  8.20571946E-10
 -1.46700283E-02 -1.33680659E-03  5.44663850E-04 -2.49478573E-09 -2.10009852E-03
 -1.88059295E-03 -1.84944817E-03  1.43415561E-04 -5.91923823E-10  1.07835663E-10
  1.53649916E-04  2.13106331E-03  1.33982737E-04  2.13003305E-03  1.53649978E-04
  2.13106348E-03  1.58362316E-05 -4.66674370E-04  1.58362800E-05 -4.66674457E-04
 -2.81892449E-01  1.03108898E+00  2.04850434E-03  8.49677813E-04 -4.27572365E-09
  2.00905762E-02  3.26763520E-04 -8.31809725E-05  2.57453246E-10 -7.01266770E-03
  9.16185345E-04 -1.81402639E-03  6.66459177E-09  1.63719608E-04  4.55857230E-04
  9.05609155E-04  1.51201365E-04 -7.01500871E-10  2.17750803E-09 -2.13438199E-04
  3.60166998E-04 -1.04393825E-05  1.83243200E-04 -4.71063225E-04 -7.25558761E-04
 -9.35407278E-05 -2.23440126E-04  1.14154067E-03  8.75303877E-05  1.12919416E-04
  1.01261671E-04 -5.04539240E-06  2.44682524E-05 -1.44006967E-05 -2.13438134E-04
  3.60167207E-04 -1.04394600E-05  1.83247020E-04  4.71061699E-04 -7.25560034E-04
 -9.35405192E-05 -2.23449604E-04 -1.14153900E-03  8.75305632E-05  1.12919754E-04
  1.01261554E-04 -5.04559184E-06 -2.44682099E-05  1.44005465E-05 -1.12219459E-04
  1.96730070E-04 -2.18187152E-05  1.98286445E-06 -4.78682321E-11  1.21237577E-04
 -1.31524997E-04  2.36013383E-05  2.36528680E-10 -3.44997068E-05 -1.76960363E-04
  3.40524478E-05 -2.11398666E-04  8.14140978E-10  9.63380349E-10 -1.42840951E-04
  1.49017715E-04 -1.04609148E-04  3.59285793E-05 -1.75015189E-10  5.98562598E-04
  1.13847785E-03 -2.81456886E-04  1.41649641E-09 -1.59094562E-04 -9.92782890E-05
  1.22628654E-05  1.14001160E-04 -4.36208877E-10  5.38984830E-10 -8.21439027E-05
  7.10299196E-04 -8.19383070E-06  7.24269094E-04 -8.21439542E-05  7.10298970E-04
 -1.74635036E-05  6.10147241E-04 -1.74636314E-05  6.10147002E-04  5.75790088E-04
 -2.20129794E-03  6.11611029E-01  7.82976286E-01 -3.52996238E-06  8.03812535E-04
  1.33939496E-02  1.72434381E-02 -7.76946514E-08 -5.42907906E-05 -2.53047377E-03
 -2.99541893E-03  1.32100952E-08  1.39475184E-04  8.84742871E-06 -1.02942886E-03
  8.98055269E-04 -3.67934684E-09 -4.55306970E-09  2.00257047E-04 -2.33485473E-04
  1.24772701E-04 -5.24875864E-05  4.11636713E-04  6.37299695E-04 -1.30422988E-04
  1.70642288E-04 -7.61189397E-04  4.67347754E-05 -1.53007268E-04 -8.57794241E-05
 -5.17746515E-05  1.01859486E-04  2.52426808E-04  2.00256577E-04 -2.33484973E-04
  1.24772682E-04 -5.24903912E-05 -4.11635435E-04  6.37298340E-04 -1.30423000E-04
  1.70647690E-04  7.61186910E-04  4.67346500E-05 -1.53010817E-04 -8.57751858E-05
 -5.17754812E-05 -1.01859141E-04 -2.52425748E-04 -2.06176255E-04  5.91612801E-04
 -1.08322413E-04 -3.75345776E-05  7.03492701E-11 -2.28415707E-03  1.37288756E-03
  8.11500385E-04 -2.23755471E-09  1.04367485E-04  3.12261997E-05  1.14102914E-05
 -2.48940758E-04  8.40390924E-10 -1.59231019E-10  3.81608751E-06 -2.10250555E-04
  1.64945050E-05 -7.77124442E-05  3.47582743E-10  6.93840852E-04 -5.48566196E-05
 -3.91123344E-04  1.71757163E-09 -1.22855043E-04  2.24924461E-04 -9.75330381E-05
 -1.78238763E-04  8.13119510E-10 -1.56003662E-09 -3.42569409E-05  1.33612927E-04
 -6.10464164E-05 -8.91691367E-04 -3.42570167E-05  1.33612979E-04  2.61638816E-04
  5.95668042E-04  2.61638572E-04  5.95666813E-04 -2.16139257E-11 -3.91588344E-11
  2.61675758E-07  4.27439844E-06  9.93420314E-01 -3.36492445E-10  5.67923448E-09
  9.48394061E-08  2.20123418E-02  2.56179069E-09 -1.43642122E-09 -9.86928045E-09
 -2.46113650E-03  1.95330029E-10 -4.92114153E-09  4.65192506E-09  2.17465591E-09
  4.06952696E-04 -7.18319997E-04 -5.42466384E-04  6.76433312E-04 -1.06152525E-04
  6.42311977E-04 -9.54959289E-04 -2.14668957E-03  1.62391480E-04 -1.04997384E-03
  1.37905873E-03 -1.37532780E-04  3.90037731E-05  8.54457590E-04 -4.86658196E-05
  1.14629612E-04 -5.05611529E-04  5.42466489E-04 -6.76433259E-04  1.06152818E-04
 -6.42319649E-04 -9.54954187E-04  2.14668905E-03 -1.62391811E-04  1.04998479E-03
  1.37905058E-03  1.37532827E-04 -3.90109157E-05 -8.54450281E-04  4.86667684E-05
  1.14629289E-04 -5.05619227E-04 -7.02193018E-11  4.38953189E-10 -9.04716323E-11
  4.64236987E-10  1.18711314E-04 -2.17110541E-09  1.32725208E-09 -4.96879615E-09
 -1.41942884E-03  2.46960937E-11  1.05781915E-09 -8.54688435E-10  1.08072624E-09
  3.15718717E-04  1.46772023E-04  3.21283239E-11  2.16143323E-11 -1.11302773E-11
 -1.42556150E-10 -2.69129654E-05 -5.85112634E-10 -5.44342254E-10 -3.15389594E-09
 -8.07502629E-04 -8.56906388E-11  5.68913695E-10 -4.72632039E-10 -1.36012520E-09
 -3.15546407E-04  7.06585356E-05 -8.40743543E-05 -5.89442988E-04 -5.84214806E-12