
    -----------------------------------------------------------------------
          Psi4: An Open-Source Ab Initio Electronic Structure Package
                               Psi4 1.4a3.dev225 

                         Git: Rev {master} 7105e37 


    D. G. A. Smith, L. A. Burns, A. C. Simmonett, R. M. Parrish,
    M. C. Schieber, R. Galvelis, P. Kraus, H. Kruse, R. Di Remigio,
    A. Alenaizan, A. M. James, S. Lehtola, J. P. Misiewicz, M. Scheurer,
    R. A. Shaw, J. B. Schriber, Y. Xie, Z. L. Glick, D. A. Sirianni,
    J. S. O'Brien, J. M. Waldrop, A. Kumar, E. G. Hohenstein,
    B. P. Pritchard, B. R. Brooks, H. F. Schaefer III, A. Yu. Sokolov,
    K. Patkowski, A. E. DePrince III, U. Bozkaya, R. A. King,
    F. A. Evangelista, J. M. Turney, T. D. Crawford, C. D. Sherrill,
    J. Chem. Phys. 152(18) 184108 (2020). https://doi.org/10.1063/5.0006002

                            Additional Code Authors
    E. T. Seidl, C. L. Janssen, E. F. Valeev, M. L. Leininger,
    J. F. Gonthier, R. M. Richard, H. R. McAlexander, M. Saitow, X. Wang,
    P. Verma, and M. H. Lechner

             Previous Authors, Complete List of Code Contributors,
                       and Citations for Specific Modules
    https://github.com/psi4/psi4/blob/master/codemeta.json
    https://github.com/psi4/psi4/graphs/contributors
    http://psicode.org/psi4manual/master/introduction.html#citing-psifour

    -----------------------------------------------------------------------


    Psi4 started on: Monday, 08 March 2021 03:52AM

    Process ID: 57214
    Host:       c418-103.stampede2.tacc.utexas.edu
    PSIDATADIR: /home1/07844/xy3866/miniconda3/envs/p4env/share/psi4
    Memory:     500.0 MiB
    Threads:    32
    
  ==> Input File <==

--------------------------------------------------------------------------
#psi4
#
memory 32 gb

molecule  {
0 1
  O       -0.4771680     1.3164760     0.3008390
  N        0.7985240    -0.5535590    -0.2772820
  C        3.2200150    -0.4235850    -0.1586420
  C        0.6868255     0.7774141     0.1763667
  C       -1.6208490     0.5302780     0.1412880
  C        3.1140170     0.9030370     0.2913960
  C        1.8654780     1.4834140     0.4539590
  C        2.0264240    -1.0936290    -0.4226860
  C        4.5555360    -1.0893210    -0.3460000
  C       -1.9196720    -0.4880720     1.0459920
  C       -2.4970780     0.8728280    -0.8843220
  C       -3.1225630    -1.1795470     0.9070330
  C       -3.7017300     0.1773150    -1.0087090
  C       -4.0153870    -0.8504980    -0.1174150
  H        4.0120030     1.4769520     0.5152690
  H        1.7375180     2.5038470     0.8013060
  H        2.0412640    -2.1246280    -0.7760920
  H        5.1157190    -1.1239590     0.5937180
  H        4.4318450    -2.1155640    -0.7023530
  H        5.1668890    -0.5502680    -1.0765200
  H       -1.2183070    -0.7290930     1.8393240
  H       -2.2288450     1.6771480    -1.5635320
  H       -3.3650020    -1.9773860     1.6048690
  H       -4.3932510     0.4394220    -1.8057380
  H       -4.9525670    -1.3919050    -0.2175730
units angstrom
no_reorient  #important for SAPT in psi4, default
symmetry c1  #important for SAPT in psi4, default
}

set PROPERTIES_ORIGIN ["COM"]
properties('MP2/aug-cc-pvtz', properties = ['dipole'])
--------------------------------------------------------------------------

  Memory set to  29.802 GiB by Python driver.
    SCF Algorithm Type (re)set to DF.

*** tstart() called on c418-103.stampede2.tacc.utexas.edu
*** at Mon Mar  8 03:52:41 2021

   => Loading Basis Set <=

    Name: AUG-CC-PVTZ
    Role: ORBITAL
    Keyword: BASIS
    atoms 1     entry O          line   331 file /home1/07844/xy3866/miniconda3/envs/p4env/share/psi4/basis/aug-cc-pvtz.gbs 
    atoms 2     entry N          line   285 file /home1/07844/xy3866/miniconda3/envs/p4env/share/psi4/basis/aug-cc-pvtz.gbs 
    atoms 3-14  entry C          line   239 file /home1/07844/xy3866/miniconda3/envs/p4env/share/psi4/basis/aug-cc-pvtz.gbs 
    atoms 15-25 entry H          line    40 file /home1/07844/xy3866/miniconda3/envs/p4env/share/psi4/basis/aug-cc-pvtz.gbs 


         ---------------------------------------------------------
                                   SCF
               by Justin Turney, Rob Parrish, Andy Simmonett
                          and Daniel G. A. Smith
                              RHF Reference
                       32 Threads,  30517 MiB Core
         ---------------------------------------------------------

  ==> Geometry <==

    Molecular point group: c1
    Full point group: C1

    Geometry (in Angstrom), charge = 0, multiplicity = 1:

       Center              X                  Y                   Z               Mass       
    ------------   -----------------  -----------------  -----------------  -----------------
         O           -0.439556230287     1.290569229446     0.295032236792    15.994914619570
         N            0.836135769713    -0.579465770554    -0.283088763208    14.003074004430
         C            3.257626769713    -0.449491770554    -0.164448763208    12.000000000000
         C            0.724437269713     0.751507329446     0.170559936792    12.000000000000
         C           -1.583237230287     0.504371229446     0.135481236792    12.000000000000
         C            3.151628769713     0.877130229446     0.285589236792    12.000000000000
         C            1.903089769713     1.457507229446     0.448152236792    12.000000000000
         C            2.064035769713    -1.119535770554    -0.428492763208    12.000000000000
         C            4.593147769713    -1.115227770554    -0.351806763208    12.000000000000
         C           -1.882060230287    -0.513978770554     1.040185236792    12.000000000000
         C           -2.459466230287     0.846921229446    -0.890128763208    12.000000000000
         C           -3.084951230287    -1.205453770554     0.901226236792    12.000000000000
         C           -3.664118230287     0.151408229446    -1.014515763208    12.000000000000
         C           -3.977775230287    -0.876404770554    -0.123221763208    12.000000000000
         H            4.049614769713     1.451045229446     0.509462236792     1.007825032230
         H            1.775129769713     2.477940229446     0.795499236792     1.007825032230
         H            2.078875769713    -2.150534770554    -0.781898763208     1.007825032230
         H            5.153330769713    -1.149865770554     0.587911236792     1.007825032230
         H            4.469456769713    -2.141470770554    -0.708159763208     1.007825032230
         H            5.204500769713    -0.576174770554    -1.082326763208     1.007825032230
         H           -1.180695230287    -0.754999770554     1.833517236792     1.007825032230
         H           -2.191233230287     1.651241229446    -1.569338763208     1.007825032230
         H           -3.327390230287    -2.003292770554     1.599062236792     1.007825032230
         H           -4.355639230287     0.413515229446    -1.811544763208     1.007825032230
         H           -4.914955230287    -1.417811770554    -0.223379763208     1.007825032230

  Running in c1 symmetry.

  Rotational constants: A =      0.06841  B =      0.01160  C =      0.01081 [cm^-1]
  Rotational constants: A =   2050.89251  B =    347.69209  C =    324.20871 [MHz]
  Nuclear repulsion =  801.505694996052739

  Charge       = 0
  Multiplicity = 1
  Electrons    = 98
  Nalpha       = 49
  Nbeta        = 49

  ==> Algorithm <==

  SCF Algorithm Type is DF.
  DIIS enabled.
  MOM disabled.
  Fractional occupation disabled.
  Guess Type is SAD.
  Energy threshold   = 1.00e-10
  Density threshold  = 1.00e-10
  Integral threshold = 1.00e-12

  ==> Primary Basis <==

  Basis Set: AUG-CC-PVTZ
    Blend: AUG-CC-PVTZ
    Number of shells: 295
    Number of basis functions: 897
    Number of Cartesian functions: 1045
    Spherical Harmonics?: true
    Max angular momentum: 3

   => Loading Basis Set <=

    Name: (AUG-CC-PVTZ AUX)
    Role: JKFIT
    Keyword: DF_BASIS_SCF
    atoms 1     entry O          line   286 file /home1/07844/xy3866/miniconda3/envs/p4env/share/psi4/basis/aug-cc-pvtz-jkfit.gbs 
    atoms 2     entry N          line   224 file /home1/07844/xy3866/miniconda3/envs/p4env/share/psi4/basis/aug-cc-pvtz-jkfit.gbs 
    atoms 3-14  entry C          line   162 file /home1/07844/xy3866/miniconda3/envs/p4env/share/psi4/basis/aug-cc-pvtz-jkfit.gbs 
    atoms 15-25 entry H          line    70 file /home1/07844/xy3866/miniconda3/envs/p4env/share/psi4/basis/aug-cc-pvtz-jkfit.gbs 

  ==> Integral Setup <==

  DFHelper Memory: AOs need 9.721 GiB; user supplied 22.352 GiB. Using in-core AOs.

  ==> MemDFJK: Density-Fitted J/K Matrices <==

    J tasked:                   Yes
    K tasked:                   Yes
    wK tasked:                   No
    OpenMP threads:              32
    Memory [MiB]:             22888
    Algorithm:                 Core
    Schwarz Cutoff:           1E-12
    Mask sparsity (%):      20.5991
    Fitting Condition:        1E-10

   => Auxiliary Basis Set <=

  Basis Set: (AUG-CC-PVTZ AUX)
    Blend: AUG-CC-PVTZ-JKFIT
    Number of shells: 574
    Number of basis functions: 1962
    Number of Cartesian functions: 2439
    Spherical Harmonics?: true
    Max angular momentum: 4

  Minimum eigenvalue in the overlap matrix is 6.1649463121E-07.
  Reciprocal condition number of the overlap matrix is 3.2670331606E-08.
    Using symmetric orthogonalization.

  ==> Pre-Iterations <==

  SCF Guess: Superposition of Atomic Densities via on-the-fly atomic UHF (no occupation information).

   -------------------------
    Irrep   Nso     Nmo    
   -------------------------
     A        897     897 
   -------------------------
    Total     897     897
   -------------------------

  ==> Iterations <==

                           Total Energy        Delta E     RMS |[F,P]|

   @DF-RHF iter SAD:  -589.58832523272190   -5.89588e+02   0.00000e+00 
   @DF-RHF iter   1:  -589.94256617058306   -3.54241e-01   8.88664e-04 DIIS
   @DF-RHF iter   2:  -590.24110323645300   -2.98537e-01   4.34325e-04 DIIS
   @DF-RHF iter   3:  -590.31205085001420   -7.09476e-02   1.08467e-04 DIIS
   @DF-RHF iter   4:  -590.31756853458774   -5.51768e-03   5.00558e-05 DIIS
   @DF-RHF iter   5:  -590.31866704278468   -1.09851e-03   6.74329e-06 DIIS
   @DF-RHF iter   6:  -590.31870227812806   -3.52353e-05   2.97341e-06 DIIS
   @DF-RHF iter   7:  -590.31870852274812   -6.24462e-06   1.17077e-06 DIIS
   @DF-RHF iter   8:  -590.31870990492700   -1.38218e-06   4.93795e-07 DIIS
   @DF-RHF iter   9:  -590.31871028307125   -3.78144e-07   2.48830e-07 DIIS
   @DF-RHF iter  10:  -590.31871039639816   -1.13327e-07   1.03654e-07 DIIS
   @DF-RHF iter  11:  -590.31871041981651   -2.34184e-08   4.63077e-08 DIIS
   @DF-RHF iter  12:  -590.31871042350849   -3.69198e-09   1.63234e-08 DIIS
   @DF-RHF iter  13:  -590.31871042394289   -4.34397e-10   4.56975e-09 DIIS
   @DF-RHF iter  14:  -590.31871042396813   -2.52385e-11   2.28181e-09 DIIS
   @DF-RHF iter  15:  -590.31871042397393   -5.79803e-12   9.08557e-10 DIIS
   @DF-RHF iter  16:  -590.31871042397574   -1.81899e-12   5.81068e-10 DIIS
   @DF-RHF iter  17:  -590.31871042397506    6.82121e-13   2.28136e-10 DIIS
   @DF-RHF iter  18:  -590.31871042397518   -1.13687e-13   8.74458e-11 DIIS
  Energy and wave function converged.


  ==> Post-Iterations <==

    Orbital Energies [Eh]
    ---------------------

    Doubly Occupied:                                                      

       1A    -20.614492     2A    -15.558865     3A    -11.345576  
       4A    -11.304969     5A    -11.272543     6A    -11.257472  
       7A    -11.241381     8A    -11.241158     9A    -11.238192  
      10A    -11.237880    11A    -11.235518    12A    -11.235428  
      13A    -11.234056    14A    -11.228113    15A     -1.472445  
      16A     -1.225923    17A     -1.153495    18A     -1.089864  
      19A     -1.053818    20A     -1.020525    21A     -1.010830  
      22A     -0.937939    23A     -0.876786    24A     -0.847827  
      25A     -0.835162    26A     -0.800035    27A     -0.749287  
      28A     -0.707270    29A     -0.682754    30A     -0.669125  
      31A     -0.642544    32A     -0.624282    33A     -0.614730  
      34A     -0.597957    35A     -0.594666    36A     -0.586871  
      37A     -0.576114    38A     -0.560024    39A     -0.542692  
      40A     -0.518360    41A     -0.513505    42A     -0.509737  
      43A     -0.499938    44A     -0.480776    45A     -0.412954  
      46A     -0.375743    47A     -0.339855    48A     -0.334029  
      49A     -0.306119  

    Virtual:                                                              

      50A      0.026610    51A      0.030277    52A      0.033464  
      53A      0.036389    54A      0.040945    55A      0.044543  
      56A      0.048770    57A      0.051643    58A      0.055790  
      59A      0.062207    60A      0.072074    61A      0.082669  
      62A      0.086112    63A      0.092859    64A      0.095108  
      65A      0.101584    66A      0.104723    67A      0.105064  
      68A      0.107036    69A      0.110952    70A      0.112744  
      71A      0.114473    72A      0.116881    73A      0.122021  
      74A      0.125404    75A      0.127364    76A      0.128046  
      77A      0.129956    78A      0.132241    79A      0.137094  
      80A      0.137607    81A      0.140199    82A      0.142026  
      83A      0.149229    84A      0.150030    85A      0.152564  
      86A      0.153891    87A      0.157152    88A      0.160612  
      89A      0.162967    90A      0.166464    91A      0.169473  
      92A      0.172156    93A      0.181301    94A      0.187691  
      95A      0.197165    96A      0.200266    97A      0.202652  
      98A      0.210660    99A      0.211998   100A      0.216507  
     101A      0.229906   102A      0.232718   103A      0.237628  
     104A      0.239800   105A      0.249052   106A      0.251595  
     107A      0.254907   108A      0.256518   109A      0.258747  
     110A      0.264278   111A      0.267769   112A      0.269540  
     113A      0.272953   114A      0.275142   115A      0.284500  
     116A      0.287488   117A      0.289037   118A      0.297849  
     119A      0.300539   120A      0.303142   121A      0.308195  
     122A      0.309362   123A      0.313834   124A      0.316623  
     125A      0.318398   126A      0.319213   127A      0.322425  
     128A      0.328476   129A      0.330950   130A      0.333019  
     131A      0.339112   132A      0.341854   133A      0.345581  
     134A      0.349377   135A      0.350792   136A      0.355806  
     137A      0.360119   138A      0.361134   139A      0.366435  
     140A      0.367504   141A      0.374613   142A      0.380983  
     143A      0.386988   144A      0.391159   145A      0.395706  
     146A      0.398017   147A      0.403203   148A      0.406538  
     149A      0.409803   150A      0.414520   151A      0.417302  
     152A      0.424226   153A      0.428612   154A      0.432867  
     155A      0.438883   156A      0.440210   157A      0.445342  
     158A      0.450273   159A      0.452833   160A      0.455626  
     161A      0.461613   162A      0.462562   163A      0.464627  
     164A      0.471018   165A      0.471377   166A      0.473501  
     167A      0.479519   168A      0.482163   169A      0.483089  
     170A      0.487467   171A      0.490399   172A      0.493250  
     173A      0.494942   174A      0.496854   175A      0.498239  
     176A      0.500795   177A      0.502849   178A      0.508441  
     179A      0.510681   180A      0.511702   181A      0.517965  
     182A      0.523179   183A      0.527394   184A      0.531726  
     185A      0.534705   186A      0.535628   187A      0.538119  
     188A      0.541442   189A      0.543554   190A      0.547324  
     191A      0.553904   192A      0.557736   193A      0.559893  
     194A      0.562040   195A      0.564701   196A      0.566969  
     197A      0.572492   198A      0.576644   199A      0.582014  
     200A      0.586547   201A      0.589280   202A      0.593183  
     203A      0.603669   204A      0.603941   205A      0.610397  
     206A      0.615757   207A      0.620190   208A      0.628189  
     209A      0.634925   210A      0.640761   211A      0.645151  
     212A      0.648990   213A      0.654166   214A      0.658856  
     215A      0.659766   216A      0.667697   217A      0.673477  
     218A      0.679081   219A      0.684863   220A      0.693049  
     221A      0.695630   222A      0.700344   223A      0.706837  
     224A      0.713664   225A      0.714660   226A      0.720160  
     227A      0.724447   228A      0.733790   229A      0.734059  
     230A      0.736675   231A      0.739270   232A      0.745098  
     233A      0.750451   234A      0.756782   235A      0.768071  
     236A      0.773533   237A      0.784013   238A      0.786833  
     239A      0.792358   240A      0.800649   241A      0.802088  
     242A      0.810779   243A      0.816605   244A      0.821796  
     245A      0.824406   246A      0.832278   247A      0.839721  
     248A      0.842552   249A      0.844553   250A      0.849966  
     251A      0.856937   252A      0.857814   253A      0.865355  
     254A      0.869493   255A      0.872205   256A      0.880946  
     257A      0.881965   258A      0.884665   259A      0.890451  
     260A      0.890906   261A      0.894487   262A      0.895752  
     263A      0.903024   264A      0.905626   265A      0.910191  
     266A      0.916420   267A      0.919202   268A      0.922933  
     269A      0.924266   270A      0.929452   271A      0.934837  
     272A      0.938996   273A      0.944123   274A      0.947140  
     275A      0.949724   276A      0.953547   277A      0.957652  
     278A      0.964975   279A      0.969801   280A      0.975923  
     281A      0.978466   282A      0.983526   283A      0.990071  
     284A      0.996138   285A      0.996859   286A      0.999296  
     287A      1.007317   288A      1.010908   289A      1.013877  
     290A      1.022322   291A      1.026834   292A      1.028281  
     293A      1.031933   294A      1.036062   295A      1.041648  
     296A      1.046404   297A      1.049594   298A      1.053617  
     299A      1.056959   300A      1.062204   301A      1.063735  
     302A      1.069969   303A      1.073919   304A      1.075489  
     305A      1.080033   306A      1.086056   307A      1.088211  
     308A      1.090030   309A      1.093889   310A      1.098555  
     311A      1.105875   312A      1.108586   313A      1.110910  
     314A      1.115562   315A      1.119320   316A      1.125561  
     317A      1.131291   318A      1.133489   319A      1.140787  
     320A      1.143336   321A      1.146944   322A      1.155909  
     323A      1.157332   324A      1.166954   325A      1.170489  
     326A      1.173708   327A      1.178948   328A      1.184737  
     329A      1.188609   330A      1.196078   331A      1.201698  
     332A      1.202882   333A      1.203533   334A      1.210397  
     335A      1.212892   336A      1.216268   337A      1.218229  
     338A      1.222206   339A      1.227752   340A      1.229410  
     341A      1.236028   342A      1.237729   343A      1.243309  
     344A      1.246177   345A      1.252633   346A      1.257511  
     347A      1.260193   348A      1.268442   349A      1.270419  
     350A      1.276386   351A      1.278016   352A      1.286994  
     353A      1.297263   354A      1.304168   355A      1.305931  
     356A      1.320672   357A      1.324717   358A      1.336529  
     359A      1.341285   360A      1.342093   361A      1.354183  
     362A      1.357913   363A      1.360487   364A      1.368345  
     365A      1.375404   366A      1.383202   367A      1.390045  
     368A      1.393769   369A      1.398344   370A      1.405534  
     371A      1.408044   372A      1.413145   373A      1.414944  
     374A      1.429665   375A      1.433963   376A      1.442214  
     377A      1.447352   378A      1.453717   379A      1.460859  
     380A      1.465075   381A      1.470869   382A      1.474981  
     383A      1.494090   384A      1.500635   385A      1.506399  
     386A      1.512836   387A      1.514983   388A      1.521811  
     389A      1.526318   390A      1.535852   391A      1.547928  
     392A      1.558188   393A      1.561720   394A      1.563723  
     395A      1.570388   396A      1.579568   397A      1.590295  
     398A      1.597768   399A      1.601083   400A      1.606844  
     401A      1.619662   402A      1.624296   403A      1.633641  
     404A      1.636262   405A      1.642295   406A      1.651912  
     407A      1.656598   408A      1.674439   409A      1.680575  
     410A      1.686557   411A      1.689678   412A      1.693915  
     413A      1.694521   414A      1.701027   415A      1.707274  
     416A      1.710368   417A      1.719639   418A      1.727402  
     419A      1.730790   420A      1.733513   421A      1.744406  
     422A      1.752580   423A      1.758754   424A      1.761370  
     425A      1.765347   426A      1.772691   427A      1.777175  
     428A      1.787259   429A      1.796292   430A      1.802289  
     431A      1.810093   432A      1.812400   433A      1.826401  
     434A      1.828677   435A      1.832300   436A      1.844660  
     437A      1.848099   438A      1.850639   439A      1.856273  
     440A      1.858348   441A      1.870398   442A      1.871744  
     443A      1.879371   444A      1.894638   445A      1.897630  
     446A      1.914991   447A      1.917274   448A      1.923533  
     449A      1.926937   450A      1.931425   451A      1.938039  
     452A      1.952722   453A      1.958747   454A      1.961870  
     455A      1.968927   456A      1.978578   457A      1.981238  
     458A      1.992360   459A      1.996755   460A      2.000397  
     461A      2.010648   462A      2.018097   463A      2.029354  
     464A      2.032689   465A      2.033322   466A      2.035849  
     467A      2.043982   468A      2.052382   469A      2.059288  
     470A      2.073534   471A      2.076376   472A      2.086890  
     473A      2.088036   474A      2.094105   475A      2.098497  
     476A      2.102222   477A      2.116603   478A      2.124274  
     479A      2.125072   480A      2.130335   481A      2.141989  
     482A      2.148775   483A      2.156082   484A      2.165129  
     485A      2.169893   486A      2.173413   487A      2.176417  
     488A      2.187139   489A      2.195393   490A      2.200059  
     491A      2.207490   492A      2.222224   493A      2.235823  
     494A      2.244052   495A      2.250834   496A      2.256578  
     497A      2.269594   498A      2.271710   499A      2.280820  
     500A      2.290356   501A      2.308069   502A      2.310198  
     503A      2.319324   504A      2.322143   505A      2.330558  
     506A      2.342616   507A      2.354097   508A      2.356169  
     509A      2.365577   510A      2.376271   511A      2.380261  
     512A      2.391317   513A      2.398744   514A      2.400308  
     515A      2.407679   516A      2.420066   517A      2.426698  
     518A      2.435697   519A      2.445587   520A      2.458586  
     521A      2.463053   522A      2.471479   523A      2.488299  
     524A      2.500900   525A      2.505771   526A      2.526610  
     527A      2.537912   528A      2.546509   529A      2.579031  
     530A      2.581991   531A      2.592368   532A      2.604337  
     533A      2.620098   534A      2.640807   535A      2.646317  
     536A      2.663632   537A      2.676024   538A      2.699099  
     539A      2.725660   540A      2.741962   541A      2.745603  
     542A      2.755394   543A      2.761514   544A      2.771901  
     545A      2.793076   546A      2.808636   547A      2.822181  
     548A      2.826865   549A      2.837366   550A      2.857293  
     551A      2.880407   552A      2.903153   553A      2.907011  
     554A      2.925318   555A      2.949830   556A      2.977961  
     557A      2.989833   558A      3.016684   559A      3.028690  
     560A      3.069948   561A      3.072612   562A      3.093126  
     563A      3.097448   564A      3.126605   565A      3.130292  
     566A      3.151445   567A      3.167832   568A      3.177795  
     569A      3.210344   570A      3.220741   571A      3.231577  
     572A      3.247759   573A      3.248803   574A      3.271228  
     575A      3.279474   576A      3.291679   577A      3.305437  
     578A      3.312056   579A      3.336541   580A      3.345596  
     581A      3.353518   582A      3.362930   583A      3.370916  
     584A      3.381150   585A      3.385452   586A      3.388387  
     587A      3.397426   588A      3.409400   589A      3.417985  
     590A      3.432375   591A      3.434687   592A      3.444171  
     593A      3.450300   594A      3.464259   595A      3.470983  
     596A      3.481627   597A      3.489354   598A      3.493156  
     599A      3.499649   600A      3.507324   601A      3.510329  
     602A      3.522870   603A      3.529218   604A      3.542544  
     605A      3.550046   606A      3.553052   607A      3.558012  
     608A      3.566397   609A      3.576124   610A      3.586431  
     611A      3.593485   612A      3.596379   613A      3.604384  
     614A      3.617087   615A      3.622238   616A      3.631265  
     617A      3.639310   618A      3.650405   619A      3.653117  
     620A      3.659192   621A      3.661283   622A      3.666995  
     623A      3.679683   624A      3.683939   625A      3.694588  
     626A      3.704487   627A      3.707858   628A      3.710852  
     629A      3.722986   630A      3.731091   631A      3.746833  
     632A      3.761133   633A      3.771053   634A      3.773605  
     635A      3.782525   636A      3.785032   637A      3.800102  
     638A      3.809655   639A      3.819020   640A      3.826319  
     641A      3.834889   642A      3.845267   643A      3.851737  
     644A      3.858995   645A      3.859990   646A      3.863228  
     647A      3.874134   648A      3.887261   649A      3.896905  
     650A      3.903096   651A      3.905887   652A      3.912698  
     653A      3.919411   654A      3.924714   655A      3.936725  
     656A      3.938559   657A      3.949366   658A      3.955889  
     659A      3.973313   660A      3.976224   661A      3.982517  
     662A      3.984856   663A      3.995524   664A      4.002420  
     665A      4.007661   666A      4.013813   667A      4.018239  
     668A      4.026491   669A      4.036487   670A      4.044360  
     671A      4.048232   672A      4.051466   673A      4.068263  
     674A      4.087678   675A      4.091674   676A      4.100539  
     677A      4.103499   678A      4.114784   679A      4.126937  
     680A      4.144180   681A      4.146551   682A      4.151540  
     683A      4.157425   684A      4.162702   685A      4.176709  
     686A      4.184807   687A      4.190587   688A      4.195524  
     689A      4.203936   690A      4.211604   691A      4.218574  
     692A      4.234548   693A      4.248964   694A      4.257758  
     695A      4.264961   696A      4.275037   697A      4.276696  
     698A      4.286102   699A      4.290113   700A      4.304430  
     701A      4.305405   702A      4.325567   703A      4.328263  
     704A      4.335976   705A      4.344209   706A      4.364339  
     707A      4.370099   708A      4.375580   709A      4.382195  
     710A      4.397354   711A      4.403048   712A      4.409750  
     713A      4.415431   714A      4.418373   715A      4.422685  
     716A      4.426337   717A      4.442482   718A      4.453648  
     719A      4.466692   720A      4.468144   721A      4.483325  
     722A      4.489164   723A      4.490562   724A      4.498851  
     725A      4.502024   726A      4.510077   727A      4.521104  
     728A      4.540666   729A      4.552528   730A      4.567121  
     731A      4.570498   732A      4.576573   733A      4.596432  
     734A      4.604482   735A      4.616234   736A      4.630911  
     737A      4.661990   738A      4.668028   739A      4.672780  
     740A      4.689962   741A      4.703972   742A      4.719791  
     743A      4.726188   744A      4.733828   745A      4.743795  
     746A      4.747060   747A      4.766935   748A      4.777806  
     749A      4.789505   750A      4.800746   751A      4.810584  
     752A      4.824976   753A      4.844751   754A      4.852835  
     755A      4.856648   756A      4.870076   757A      4.891928  
     758A      4.898960   759A      4.909300   760A      4.927128  
     761A      4.939361   762A      4.946678   763A      4.965123  
     764A      4.969709   765A      4.988934   766A      4.997342  
     767A      5.004324   768A      5.018060   769A      5.031160  
     770A      5.054104   771A      5.055224   772A      5.065670  
     773A      5.071567   774A      5.078271   775A      5.086699  
     776A      5.091760   777A      5.106311   778A      5.107217  
     779A      5.126860   780A      5.130408   781A      5.143775  
     782A      5.150785   783A      5.161402   784A      5.168691  
     785A      5.176733   786A      5.182039   787A      5.188202  
     788A      5.194609   789A      5.211289   790A      5.212248  
     791A      5.243775   792A      5.251783   793A      5.259701  
     794A      5.287145   795A      5.294209   796A      5.308350  
     797A      5.313317   798A      5.319015   799A      5.328739  
     800A      5.341780   801A      5.361254   802A      5.369370  
     803A      5.370758   804A      5.388015   805A      5.411997  
     806A      5.432262   807A      5.440827   808A      5.457679  
     809A      5.484054   810A      5.519131   811A      5.526164  
     812A      5.541996   813A      5.556809   814A      5.582023  
     815A      5.588563   816A      5.598191   817A      5.611228  
     818A      5.617333   819A      5.665626   820A      5.676083  
     821A      5.698281   822A      5.744645   823A      5.760596  
     824A      5.766841   825A      5.786126   826A      5.795399  
     827A      5.815788   828A      5.840232   829A      5.846628  
     830A      5.876461   831A      5.895216   832A      5.908337  
     833A      5.933544   834A      5.960262   835A      5.990038  
     836A      6.053698   837A      6.086845   838A      6.107530  
     839A      6.125705   840A      6.142303   841A      6.168584  
     842A      6.178605   843A      6.185887   844A      6.195464  
     845A      6.217583   846A      6.252420   847A      6.289259  
     848A      6.301058   849A      6.323375   850A      6.348037  
     851A      6.444911   852A      6.472708   853A      6.498371  
     854A      6.528922   855A      6.569839   856A      6.607576  
     857A      6.661948   858A      6.706197   859A      6.748352  
     860A      6.759590   861A      6.772716   862A      6.822995  
     863A      6.829504   864A      6.882226   865A      6.901673  
     866A      6.941754   867A      6.995310   868A      7.019367  
     869A      7.039760   870A      7.081524   871A      7.124148  
     872A      7.143224   873A      7.209170   874A      7.268559  
     875A      7.540067   876A      7.587688   877A      7.631409  
     878A      7.697290   879A      7.888446   880A      8.003753  
     881A      8.030141   882A      8.286623   883A      8.709139  
     884A     15.471685   885A     16.036013   886A     16.130171  
     887A     16.386602   888A     17.088189   889A     18.306397  
     890A     18.542940   891A     18.860895   892A     19.511858  
     893A     19.621461   894A     19.770445   895A     20.198988  
     896A     20.582044   897A     20.878018  

    Final Occupation by Irrep:
              A 
    DOCC [    49 ]

  @DF-RHF Final Energy:  -590.31871042397518

   => Energetics <=

    Nuclear Repulsion Energy =            801.5056949960527390
    One-Electron Energy =               -2391.6295590353151965
    Two-Electron Energy =                 999.8051536152873950
    Total Energy =                       -590.3187104239751761

Computation Completed

*** tstop() called on c418-103.stampede2.tacc.utexas.edu at Mon Mar  8 03:53:55 2021
Module time:
	user time   =    1501.07 seconds =      25.02 minutes
	system time =      66.45 seconds =       1.11 minutes
	total time  =         74 seconds =       1.23 minutes
Total time:
	user time   =    1501.07 seconds =      25.02 minutes
	system time =      66.45 seconds =       1.11 minutes
	total time  =         74 seconds =       1.23 minutes
   => Loading Basis Set <=

    Name: (AUG-CC-PVTZ AUX)
    Role: RIFIT
    Keyword: DF_BASIS_MP2
    atoms 1     entry O          line   264 file /home1/07844/xy3866/miniconda3/envs/p4env/share/psi4/basis/aug-cc-pvtz-ri.gbs 
    atoms 2     entry N          line   206 file /home1/07844/xy3866/miniconda3/envs/p4env/share/psi4/basis/aug-cc-pvtz-ri.gbs 
    atoms 3-14  entry C          line   148 file /home1/07844/xy3866/miniconda3/envs/p4env/share/psi4/basis/aug-cc-pvtz-ri.gbs 
    atoms 15-25 entry H          line    30 file /home1/07844/xy3866/miniconda3/envs/p4env/share/psi4/basis/aug-cc-pvtz-ri.gbs 


*** tstart() called on c418-103.stampede2.tacc.utexas.edu
*** at Mon Mar  8 03:53:56 2021


  //>>>>>>>>>>>>>>>>>>>>>>>>>>>>>>>>>>>//
  //               DFMP2               //
  //<<<<<<<<<<<<<<<<<<<<<<<<<<<<<<<<<<<//

	 --------------------------------------------------------
	                          DF-MP2                         
	      2nd-Order Density-Fitted Moller-Plesset Theory     
	              RMP2 Wavefunction,  32 Threads             
	                                                         
	        Rob Parrish, Justin Turney, Andy Simmonett,      
	           Ed Hohenstein, and C. David Sherrill          
	 --------------------------------------------------------

   => Auxiliary Basis Set <=

  Basis Set: (AUG-CC-PVTZ AUX)
    Blend: AUG-CC-PVTZ-RI
    Number of shells: 546
    Number of basis functions: 1990
    Number of Cartesian functions: 2509
    Spherical Harmonics?: true
    Max angular momentum: 4

	 --------------------------------------------------------
	                 NBF =   897, NAUX =  1990
	 --------------------------------------------------------
	   CLASS    FOCC     OCC    AOCC    AVIR     VIR    FVIR
	   PAIRS       0      49      49     848     848       0
	 --------------------------------------------------------

  DFHelper Memory: AOs need 10.523 GiB; user supplied 22.352 GiB. Using in-core AOs.


         ------------------------------------------------------------
                                     CPHF                           
                                  Rob Parrish                       
         ------------------------------------------------------------

  ==> Geometry <==

    Molecular point group: c1
    Full point group: C1

    Geometry (in Angstrom), charge = 0, multiplicity = 1:

       Center              X                  Y                   Z               Mass       
    ------------   -----------------  -----------------  -----------------  -----------------
         O           -0.439556230287     1.290569229446     0.295032236792    15.994914619570
         N            0.836135769713    -0.579465770554    -0.283088763208    14.003074004430
         C            3.257626769713    -0.449491770554    -0.164448763208    12.000000000000
         C            0.724437269713     0.751507329446     0.170559936792    12.000000000000
         C           -1.583237230287     0.504371229446     0.135481236792    12.000000000000
         C            3.151628769713     0.877130229446     0.285589236792    12.000000000000
         C            1.903089769713     1.457507229446     0.448152236792    12.000000000000
         C            2.064035769713    -1.119535770554    -0.428492763208    12.000000000000
         C            4.593147769713    -1.115227770554    -0.351806763208    12.000000000000
         C           -1.882060230287    -0.513978770554     1.040185236792    12.000000000000
         C           -2.459466230287     0.846921229446    -0.890128763208    12.000000000000
         C           -3.084951230287    -1.205453770554     0.901226236792    12.000000000000
         C           -3.664118230287     0.151408229446    -1.014515763208    12.000000000000
         C           -3.977775230287    -0.876404770554    -0.123221763208    12.000000000000
         H            4.049614769713     1.451045229446     0.509462236792     1.007825032230
         H            1.775129769713     2.477940229446     0.795499236792     1.007825032230
         H            2.078875769713    -2.150534770554    -0.781898763208     1.007825032230
         H            5.153330769713    -1.149865770554     0.587911236792     1.007825032230
         H            4.469456769713    -2.141470770554    -0.708159763208     1.007825032230
         H            5.204500769713    -0.576174770554    -1.082326763208     1.007825032230
         H           -1.180695230287    -0.754999770554     1.833517236792     1.007825032230
         H           -2.191233230287     1.651241229446    -1.569338763208     1.007825032230
         H           -3.327390230287    -2.003292770554     1.599062236792     1.007825032230
         H           -4.355639230287     0.413515229446    -1.811544763208     1.007825032230
         H           -4.914955230287    -1.417811770554    -0.223379763208     1.007825032230

  Nuclear repulsion =  801.505694996052739
  Reference energy  = -590.318710423975176

  ==> Basis Set <==

  Basis Set: AUG-CC-PVTZ
    Blend: AUG-CC-PVTZ
    Number of shells: 295
    Number of basis functions: 897
    Number of Cartesian functions: 1045
    Spherical Harmonics?: true
    Max angular momentum: 3

  ==> CGRSolver (by Rob Parrish) <==

   Number of roots    =         1
   Preconditioning    =    JACOBI
   Convergence cutoff =     1E-06
   Maximum iterations =       100

  ==> CPHFRHamiltonian (by Rob Parrish) <== 

  ==> MemDFJK: Density-Fitted J/K Matrices <==

    J tasked:                   Yes
    K tasked:                   Yes
    wK tasked:                   No
    OpenMP threads:              32
    Memory [MiB]:             22888
    Algorithm:                 Core
    Schwarz Cutoff:           1E-12
    Mask sparsity (%):      13.7818
    Fitting Condition:        1E-10

   => Auxiliary Basis Set <=

  Basis Set: (AUG-CC-PVTZ AUX)
    Blend: AUG-CC-PVTZ-JKFIT
    Number of shells: 574
    Number of basis functions: 1962
    Number of Cartesian functions: 2439
    Spherical Harmonics?: true
    Max angular momentum: 4

  ==> CPHF Iterations <==

  => Iterations <=

             Iter  Converged  Remaining    Residual
  CGR           1          0          1   9.898E-02
  CGR           2          0          1   3.460E-02
  CGR           3          0          1   2.349E-02
  CGR           4          0          1   9.012E-03
  CGR           5          0          1   3.749E-03
  CGR           6          0          1   1.508E-03
  CGR           7          0          1   4.640E-04
  CGR           8          0          1   1.915E-04
  CGR           9          0          1   7.982E-05
  CGR          10          0          1   4.075E-05
  CGR          11          0          1   1.878E-05
  CGR          12          0          1   6.391E-06
  CGR          13          0          1   2.507E-06
  CGR          14          1          0   6.433E-07

    CGRSolver converged.

	-----------------------------------------------------------
	 ==================> DF-MP2 Energies <==================== 
	-----------------------------------------------------------
	 Reference Energy          =    -590.3187104239751761 [Eh]
	 Singles Energy            =      -0.0000000000000000 [Eh]
	 Same-Spin Energy          =      -0.6446852231345839 [Eh]
	 Opposite-Spin Energy      =      -1.9823710699792831 [Eh]
	 Correlation Energy        =      -2.6270562931138670 [Eh]
	 Total Energy              =    -592.9457667170891000 [Eh]
	-----------------------------------------------------------
	 ================> DF-SCS-MP2 Energies <================== 
	-----------------------------------------------------------
	 SCS Same-Spin Scale       =       0.3333333333333333 [-]
	 SCS Opposite-Spin Scale   =       1.2000000000000000 [-]
	 SCS Same-Spin Energy      =      -0.2148950743781946 [Eh]
	 SCS Opposite-Spin Energy  =      -2.3788452839751395 [Eh]
	 SCS Correlation Energy    =      -2.5937403583533341 [Eh]
	 SCS Total Energy          =    -592.9124507823285057 [Eh]
	-----------------------------------------------------------



Properties will be evaluated at   0.000000,   0.000000,   0.000000 [a0]

Properties computed using the MP2 density matrix

  Nuclear Dipole Moment: [e a0]
     X:     6.3337      Y:    -3.9299      Z:    -0.7957

  Electronic Dipole Moment: [e a0]
     X:    -5.8891      Y:     3.9207      Z:     0.8824

  Dipole Moment: [e a0]
     X:     0.4446      Y:    -0.0091      Z:     0.0867     Total:     0.4531

  Dipole Moment: [D]
     X:     1.1301      Y:    -0.0233      Z:     0.2203     Total:     1.1516


*** tstop() called on c418-103.stampede2.tacc.utexas.edu at Mon Mar  8 04:01:58 2021
Module time:
	user time   =    5115.90 seconds =      85.27 minutes
	system time =     118.85 seconds =       1.98 minutes
	total time  =        482 seconds =       8.03 minutes
Total time:
	user time   =    6618.21 seconds =     110.30 minutes
	system time =     185.33 seconds =       3.09 minutes
	total time  =        557 seconds =       9.28 minutes

    Psi4 stopped on: Monday, 08 March 2021 04:02AM
    Psi4 wall time for execution: 0:09:19.20

*** Psi4 exiting successfully. Buy a developer a beer!
