
    -----------------------------------------------------------------------
          Psi4: An Open-Source Ab Initio Electronic Structure Package
                               Psi4 1.4a3.dev225 

                         Git: Rev {master} 7105e37 


    D. G. A. Smith, L. A. Burns, A. C. Simmonett, R. M. Parrish,
    M. C. Schieber, R. Galvelis, P. Kraus, H. Kruse, R. Di Remigio,
    A. Alenaizan, A. M. James, S. Lehtola, J. P. Misiewicz, M. Scheurer,
    R. A. Shaw, J. B. Schriber, Y. Xie, Z. L. Glick, D. A. Sirianni,
    J. S. O'Brien, J. M. Waldrop, A. Kumar, E. G. Hohenstein,
    B. P. Pritchard, B. R. Brooks, H. F. Schaefer III, A. Yu. Sokolov,
    K. Patkowski, A. E. DePrince III, U. Bozkaya, R. A. King,
    F. A. Evangelista, J. M. Turney, T. D. Crawford, C. D. Sherrill,
    J. Chem. Phys. 152(18) 184108 (2020). https://doi.org/10.1063/5.0006002

                            Additional Code Authors
    E. T. Seidl, C. L. Janssen, E. F. Valeev, M. L. Leininger,
    J. F. Gonthier, R. M. Richard, H. R. McAlexander, M. Saitow, X. Wang,
    P. Verma, and M. H. Lechner

             Previous Authors, Complete List of Code Contributors,
                       and Citations for Specific Modules
    https://github.com/psi4/psi4/blob/master/codemeta.json
    https://github.com/psi4/psi4/graphs/contributors
    http://psicode.org/psi4manual/master/introduction.html#citing-psifour

    -----------------------------------------------------------------------


    Psi4 started on: Monday, 08 March 2021 12:05AM

    Process ID: 31497
    Host:       c418-103.stampede2.tacc.utexas.edu
    PSIDATADIR: /home1/07844/xy3866/miniconda3/envs/p4env/share/psi4
    Memory:     500.0 MiB
    Threads:    32
    
  ==> Input File <==

--------------------------------------------------------------------------
#psi4
#
memory 32 gb

molecule  {
0 1
  O       -0.4771680     1.3164760     0.3008390
  N        0.7985240    -0.5535590    -0.2772820
  C        3.2200150    -0.4235850    -0.1586420
  C        0.7425440     0.7008700     0.1517020
  C       -1.6208490     0.5302780     0.1412880
  C        3.1140170     0.9030370     0.2913960
  C        1.8654780     1.4834140     0.4539590
  C        2.1174281    -1.1336555    -0.4334624
  C        4.5555360    -1.0893210    -0.3460000
  C       -1.9196720    -0.4880720     1.0459920
  C       -2.4970780     0.8728280    -0.8843220
  C       -3.1225630    -1.1795470     0.9070330
  C       -3.7017300     0.1773150    -1.0087090
  C       -4.0153870    -0.8504980    -0.1174150
  H        4.0120030     1.4769520     0.5152690
  H        1.7375180     2.5038470     0.8013060
  H        2.0412640    -2.1246280    -0.7760920
  H        5.1157190    -1.1239590     0.5937180
  H        4.4318450    -2.1155640    -0.7023530
  H        5.1668890    -0.5502680    -1.0765200
  H       -1.2183070    -0.7290930     1.8393240
  H       -2.2288450     1.6771480    -1.5635320
  H       -3.3650020    -1.9773860     1.6048690
  H       -4.3932510     0.4394220    -1.8057380
  H       -4.9525670    -1.3919050    -0.2175730
units angstrom
no_reorient  #important for SAPT in psi4, default
symmetry c1  #important for SAPT in psi4, default
}

set PROPERTIES_ORIGIN ["COM"]
properties('MP2/aug-cc-pvtz', properties = ['dipole'])
--------------------------------------------------------------------------

  Memory set to  29.802 GiB by Python driver.
    SCF Algorithm Type (re)set to DF.

*** tstart() called on c418-103.stampede2.tacc.utexas.edu
*** at Mon Mar  8 00:05:45 2021

   => Loading Basis Set <=

    Name: AUG-CC-PVTZ
    Role: ORBITAL
    Keyword: BASIS
    atoms 1     entry O          line   331 file /home1/07844/xy3866/miniconda3/envs/p4env/share/psi4/basis/aug-cc-pvtz.gbs 
    atoms 2     entry N          line   285 file /home1/07844/xy3866/miniconda3/envs/p4env/share/psi4/basis/aug-cc-pvtz.gbs 
    atoms 3-14  entry C          line   239 file /home1/07844/xy3866/miniconda3/envs/p4env/share/psi4/basis/aug-cc-pvtz.gbs 
    atoms 15-25 entry H          line    40 file /home1/07844/xy3866/miniconda3/envs/p4env/share/psi4/basis/aug-cc-pvtz.gbs 


         ---------------------------------------------------------
                                   SCF
               by Justin Turney, Rob Parrish, Andy Simmonett
                          and Daniel G. A. Smith
                              RHF Reference
                       32 Threads,  30517 MiB Core
         ---------------------------------------------------------

  ==> Geometry <==

    Molecular point group: c1
    Full point group: C1

    Geometry (in Angstrom), charge = 0, multiplicity = 1:

       Center              X                  Y                   Z               Mass       
    ------------   -----------------  -----------------  -----------------  -----------------
         O           -0.449069049285     1.298127131353     0.297330074817    15.994914619570
         N            0.826622950715    -0.571907868647    -0.280790925183    14.003074004430
         C            3.248113950715    -0.441933868647    -0.162150925183    12.000000000000
         C            0.770642950715     0.682521131353     0.148193074817    12.000000000000
         C           -1.592750049285     0.511929131353     0.137779074817    12.000000000000
         C            3.142115950715     0.884688131353     0.287887074817    12.000000000000
         C            1.893576950715     1.465065131353     0.450450074817    12.000000000000
         C            2.145527050715    -1.152004368647    -0.436971325183    12.000000000000
         C            4.583634950715    -1.107669868647    -0.349508925183    12.000000000000
         C           -1.891573049285    -0.506420868647     1.042483074817    12.000000000000
         C           -2.468979049285     0.854479131353    -0.887830925183    12.000000000000
         C           -3.094464049285    -1.197895868647     0.903524074817    12.000000000000
         C           -3.673631049285     0.158966131353    -1.012217925183    12.000000000000
         C           -3.987288049285    -0.868846868647    -0.120923925183    12.000000000000
         H            4.040101950715     1.458603131353     0.511760074817     1.007825032230
         H            1.765616950715     2.485498131353     0.797797074817     1.007825032230
         H            2.069362950715    -2.142976868647    -0.779600925183     1.007825032230
         H            5.143817950715    -1.142307868647     0.590209074817     1.007825032230
         H            4.459943950715    -2.133912868647    -0.705861925183     1.007825032230
         H            5.194987950715    -0.568616868647    -1.080028925183     1.007825032230
         H           -1.190208049285    -0.747441868647     1.835815074817     1.007825032230
         H           -2.200746049285     1.658799131353    -1.567040925183     1.007825032230
         H           -3.336903049285    -1.995734868647     1.601360074817     1.007825032230
         H           -4.365152049285     0.421073131353    -1.809246925183     1.007825032230
         H           -4.924468049285    -1.410253868647    -0.221081925183     1.007825032230

  Running in c1 symmetry.

  Rotational constants: A =      0.06847  B =      0.01155  C =      0.01078 [cm^-1]
  Rotational constants: A =   2052.56476  B =    346.35654  C =    323.09520 [MHz]
  Nuclear repulsion =  800.519735727296847

  Charge       = 0
  Multiplicity = 1
  Electrons    = 98
  Nalpha       = 49
  Nbeta        = 49

  ==> Algorithm <==

  SCF Algorithm Type is DF.
  DIIS enabled.
  MOM disabled.
  Fractional occupation disabled.
  Guess Type is SAD.
  Energy threshold   = 1.00e-10
  Density threshold  = 1.00e-10
  Integral threshold = 1.00e-12

  ==> Primary Basis <==

  Basis Set: AUG-CC-PVTZ
    Blend: AUG-CC-PVTZ
    Number of shells: 295
    Number of basis functions: 897
    Number of Cartesian functions: 1045
    Spherical Harmonics?: true
    Max angular momentum: 3

   => Loading Basis Set <=

    Name: (AUG-CC-PVTZ AUX)
    Role: JKFIT
    Keyword: DF_BASIS_SCF
    atoms 1     entry O          line   286 file /home1/07844/xy3866/miniconda3/envs/p4env/share/psi4/basis/aug-cc-pvtz-jkfit.gbs 
    atoms 2     entry N          line   224 file /home1/07844/xy3866/miniconda3/envs/p4env/share/psi4/basis/aug-cc-pvtz-jkfit.gbs 
    atoms 3-14  entry C          line   162 file /home1/07844/xy3866/miniconda3/envs/p4env/share/psi4/basis/aug-cc-pvtz-jkfit.gbs 
    atoms 15-25 entry H          line    70 file /home1/07844/xy3866/miniconda3/envs/p4env/share/psi4/basis/aug-cc-pvtz-jkfit.gbs 

  ==> Integral Setup <==

  DFHelper Memory: AOs need 9.714 GiB; user supplied 22.352 GiB. Using in-core AOs.

  ==> MemDFJK: Density-Fitted J/K Matrices <==

    J tasked:                   Yes
    K tasked:                   Yes
    wK tasked:                   No
    OpenMP threads:              32
    Memory [MiB]:             22888
    Algorithm:                 Core
    Schwarz Cutoff:           1E-12
    Mask sparsity (%):      20.6610
    Fitting Condition:        1E-10

   => Auxiliary Basis Set <=

  Basis Set: (AUG-CC-PVTZ AUX)
    Blend: AUG-CC-PVTZ-JKFIT
    Number of shells: 574
    Number of basis functions: 1962
    Number of Cartesian functions: 2439
    Spherical Harmonics?: true
    Max angular momentum: 4

  Minimum eigenvalue in the overlap matrix is 6.3552748593E-07.
  Reciprocal condition number of the overlap matrix is 3.3727818377E-08.
    Using symmetric orthogonalization.

  ==> Pre-Iterations <==

  SCF Guess: Superposition of Atomic Densities via on-the-fly atomic UHF (no occupation information).

   -------------------------
    Irrep   Nso     Nmo    
   -------------------------
     A        897     897 
   -------------------------
    Total     897     897
   -------------------------

  ==> Iterations <==

                           Total Energy        Delta E     RMS |[F,P]|

   @DF-RHF iter SAD:  -589.51462584928618   -5.89515e+02   0.00000e+00 
   @DF-RHF iter   1:  -589.95084453692334   -4.36219e-01   8.77813e-04 DIIS
   @DF-RHF iter   2:  -590.24949347478787   -2.98649e-01   4.08684e-04 DIIS
   @DF-RHF iter   3:  -590.31302163834562   -6.35282e-02   9.97026e-05 DIIS
   @DF-RHF iter   4:  -590.31792773052666   -4.90609e-03   4.74890e-05 DIIS
   @DF-RHF iter   5:  -590.31891935905753   -9.91629e-04   6.97225e-06 DIIS
   @DF-RHF iter   6:  -590.31896295628303   -4.35972e-05   2.75403e-06 DIIS
   @DF-RHF iter   7:  -590.31897122802911   -8.27175e-06   1.13320e-06 DIIS
   @DF-RHF iter   8:  -590.31897322387226   -1.99584e-06   5.04547e-07 DIIS
   @DF-RHF iter   9:  -590.31897372370884   -4.99837e-07   2.32678e-07 DIIS
   @DF-RHF iter  10:  -590.31897384012530   -1.16416e-07   1.05940e-07 DIIS
   @DF-RHF iter  11:  -590.31897386135006   -2.12248e-08   4.67298e-08 DIIS
   @DF-RHF iter  12:  -590.31897386437299   -3.02293e-09   1.83560e-08 DIIS
   @DF-RHF iter  13:  -590.31897386481580   -4.42810e-10   5.34928e-09 DIIS
   @DF-RHF iter  14:  -590.31897386484786   -3.20597e-11   2.53535e-09 DIIS
   @DF-RHF iter  15:  -590.31897386485787   -1.00044e-11   1.17017e-09 DIIS
   @DF-RHF iter  16:  -590.31897386485969   -1.81899e-12   5.61595e-10 DIIS
   @DF-RHF iter  17:  -590.31897386486173   -2.04636e-12   2.92635e-10 DIIS
   @DF-RHF iter  18:  -590.31897386486173    0.00000e+00   8.59412e-11 DIIS
  Energy and wave function converged.


  ==> Post-Iterations <==

    Orbital Energies [Eh]
    ---------------------

    Doubly Occupied:                                                      

       1A    -20.598355     2A    -15.563419     3A    -11.339745  
       4A    -11.294879     5A    -11.273106     6A    -11.264784  
       7A    -11.245586     8A    -11.240870     9A    -11.235811  
      10A    -11.235686    11A    -11.231875    12A    -11.231112  
      13A    -11.230540    14A    -11.229604    15A     -1.429877  
      16A     -1.231218    17A     -1.144745    18A     -1.102887  
      19A     -1.056014    20A     -1.014309    21A     -1.004241  
      22A     -0.942064    23A     -0.885350    24A     -0.839547  
      25A     -0.829282    26A     -0.796175    27A     -0.736917  
      28A     -0.699701    29A     -0.678298    30A     -0.654400  
      31A     -0.645776    32A     -0.633296    33A     -0.612913  
      34A     -0.596598    35A     -0.591423    36A     -0.585938  
      37A     -0.568195    38A     -0.563342    39A     -0.545641  
      40A     -0.518767    41A     -0.511247    42A     -0.508231  
      43A     -0.490949    44A     -0.475025    45A     -0.427445  
      46A     -0.374978    47A     -0.339703    48A     -0.333959  
      49A     -0.317710  

    Virtual:                                                              

      50A      0.024727    51A      0.031817    52A      0.032555  
      53A      0.036769    54A      0.040846    55A      0.043701  
      56A      0.048470    57A      0.051419    58A      0.055959  
      59A      0.062181    60A      0.071448    61A      0.079089  
      62A      0.083636    63A      0.093046    64A      0.094367  
      65A      0.101300    66A      0.105292    67A      0.107278  
      68A      0.108166    69A      0.111555    70A      0.113053  
      71A      0.114346    72A      0.117021    73A      0.121849  
      74A      0.126341    75A      0.128129    76A      0.128297  
      77A      0.129927    78A      0.131747    79A      0.136637  
      80A      0.138228    81A      0.138504    82A      0.142231  
      83A      0.149263    84A      0.150772    85A      0.153093  
      86A      0.155107    87A      0.155907    88A      0.162365  
      89A      0.163678    90A      0.166603    91A      0.169149  
      92A      0.172688    93A      0.180707    94A      0.188263  
      95A      0.196488    96A      0.199945    97A      0.203826  
      98A      0.209906    99A      0.213458   100A      0.215656  
     101A      0.229697   102A      0.232506   103A      0.236511  
     104A      0.241567   105A      0.247923   106A      0.249719  
     107A      0.255648   108A      0.256337   109A      0.260556  
     110A      0.264557   111A      0.268888   112A      0.269370  
     113A      0.273349   114A      0.274726   115A      0.283875  
     116A      0.287420   117A      0.288732   118A      0.298647  
     119A      0.301016   120A      0.302242   121A      0.308608  
     122A      0.310158   123A      0.314381   124A      0.315892  
     125A      0.319371   126A      0.321391   127A      0.323709  
     128A      0.328843   129A      0.331435   130A      0.332945  
     131A      0.340532   132A      0.342198   133A      0.345554  
     134A      0.348909   135A      0.351462   136A      0.354505  
     137A      0.356923   138A      0.362648   139A      0.367339  
     140A      0.369455   141A      0.374764   142A      0.380867  
     143A      0.385980   144A      0.389377   145A      0.393649  
     146A      0.394577   147A      0.402007   148A      0.405852  
     149A      0.408882   150A      0.415251   151A      0.417020  
     152A      0.421057   153A      0.428257   154A      0.432251  
     155A      0.439980   156A      0.440291   157A      0.444134  
     158A      0.449018   159A      0.450092   160A      0.453881  
     161A      0.460841   162A      0.462318   163A      0.463836  
     164A      0.465180   165A      0.469328   166A      0.473063  
     167A      0.478071   168A      0.480680   169A      0.484143  
     170A      0.487719   171A      0.489338   172A      0.492257  
     173A      0.494872   174A      0.496701   175A      0.497914  
     176A      0.500158   177A      0.502628   178A      0.510622  
     179A      0.511461   180A      0.513325   181A      0.518615  
     182A      0.522928   183A      0.526572   184A      0.531328  
     185A      0.534771   186A      0.536146   187A      0.538982  
     188A      0.539231   189A      0.542743   190A      0.548870  
     191A      0.550026   192A      0.557861   193A      0.558462  
     194A      0.560295   195A      0.564955   196A      0.568178  
     197A      0.573439   198A      0.576554   199A      0.581893  
     200A      0.584801   201A      0.590912   202A      0.590998  
     203A      0.600687   204A      0.605424   205A      0.607686  
     206A      0.614744   207A      0.620488   208A      0.623642  
     209A      0.636046   210A      0.640258   211A      0.643830  
     212A      0.647158   213A      0.653306   214A      0.659102  
     215A      0.660408   216A      0.670706   217A      0.674280  
     218A      0.680375   219A      0.691795   220A      0.695712  
     221A      0.698102   222A      0.703414   223A      0.706408  
     224A      0.712180   225A      0.718640   226A      0.720535  
     227A      0.723267   228A      0.727678   229A      0.733547  
     230A      0.736444   231A      0.736995   232A      0.744964  
     233A      0.751995   234A      0.757774   235A      0.769348  
     236A      0.772994   237A      0.780167   238A      0.783181  
     239A      0.794335   240A      0.800886   241A      0.803678  
     242A      0.811113   243A      0.814942   244A      0.819780  
     245A      0.821346   246A      0.832627   247A      0.839751  
     248A      0.842076   249A      0.848408   250A      0.852307  
     251A      0.854231   252A      0.861676   253A      0.867982  
     254A      0.869949   255A      0.872303   256A      0.878569  
     257A      0.884009   258A      0.886383   259A      0.887862  
     260A      0.889042   261A      0.891166   262A      0.895350  
     263A      0.905103   264A      0.906741   265A      0.910002  
     266A      0.914285   267A      0.921385   268A      0.923763  
     269A      0.925899   270A      0.927809   271A      0.933926  
     272A      0.939560   273A      0.945274   274A      0.948921  
     275A      0.952985   276A      0.953855   277A      0.959299  
     278A      0.965461   279A      0.967263   280A      0.975275  
     281A      0.978741   282A      0.986989   283A      0.989076  
     284A      0.994516   285A      0.997442   286A      1.002396  
     287A      1.008210   288A      1.010542   289A      1.013579  
     290A      1.020464   291A      1.027924   292A      1.029948  
     293A      1.032798   294A      1.036821   295A      1.040671  
     296A      1.044950   297A      1.050960   298A      1.052242  
     299A      1.056338   300A      1.060935   301A      1.064589  
     302A      1.068770   303A      1.070904   304A      1.078071  
     305A      1.079285   306A      1.084355   307A      1.089376  
     308A      1.090524   309A      1.097097   310A      1.100552  
     311A      1.107689   312A      1.108302   313A      1.109972  
     314A      1.115294   315A      1.118684   316A      1.124699  
     317A      1.127682   318A      1.131281   319A      1.140877  
     320A      1.142337   321A      1.148925   322A      1.156080  
     323A      1.158942   324A      1.163452   325A      1.167792  
     326A      1.173117   327A      1.178033   328A      1.181973  
     329A      1.190766   330A      1.197501   331A      1.199472  
     332A      1.202373   333A      1.203225   334A      1.208622  
     335A      1.213971   336A      1.216817   337A      1.219670  
     338A      1.223455   339A      1.226367   340A      1.231470  
     341A      1.237111   342A      1.239928   343A      1.243776  
     344A      1.247790   345A      1.250008   346A      1.256647  
     347A      1.260397   348A      1.269917   349A      1.271215  
     350A      1.276743   351A      1.280102   352A      1.287055  
     353A      1.300673   354A      1.305393   355A      1.307979  
     356A      1.320509   357A      1.324814   358A      1.335953  
     359A      1.339899   360A      1.343996   361A      1.351260  
     362A      1.358554   363A      1.360265   364A      1.366882  
     365A      1.374078   366A      1.381619   367A      1.387182  
     368A      1.390975   369A      1.395561   370A      1.405467  
     371A      1.407527   372A      1.411923   373A      1.416037  
     374A      1.430995   375A      1.434068   376A      1.440391  
     377A      1.448395   378A      1.454597   379A      1.461088  
     380A      1.464663   381A      1.473951   382A      1.480074  
     383A      1.496611   384A      1.500575   385A      1.504412  
     386A      1.511899   387A      1.519848   388A      1.521165  
     389A      1.525713   390A      1.539661   391A      1.548796  
     392A      1.562844   393A      1.566263   394A      1.567624  
     395A      1.572388   396A      1.582633   397A      1.595241  
     398A      1.599503   399A      1.602771   400A      1.606220  
     401A      1.620929   402A      1.627804   403A      1.636162  
     404A      1.639266   405A      1.642947   406A      1.645490  
     407A      1.655017   408A      1.670672   409A      1.681319  
     410A      1.682564   411A      1.692088   412A      1.693114  
     413A      1.695590   414A      1.699433   415A      1.705951  
     416A      1.713149   417A      1.717094   418A      1.728840  
     419A      1.733526   420A      1.735515   421A      1.746891  
     422A      1.748602   423A      1.755418   424A      1.762373  
     425A      1.765028   426A      1.774879   427A      1.777241  
     428A      1.788207   429A      1.793096   430A      1.802467  
     431A      1.807997   432A      1.813222   433A      1.825827  
     434A      1.827029   435A      1.835900   436A      1.840385  
     437A      1.849410   438A      1.858183   439A      1.859496  
     440A      1.863357   441A      1.871601   442A      1.873655  
     443A      1.884217   444A      1.897320   445A      1.902580  
     446A      1.911227   447A      1.912851   448A      1.924163  
     449A      1.930544   450A      1.932124   451A      1.942912  
     452A      1.950513   453A      1.955909   454A      1.963330  
     455A      1.968521   456A      1.978095   457A      1.983746  
     458A      1.994807   459A      1.999475   460A      2.003695  
     461A      2.011801   462A      2.016408   463A      2.023943  
     464A      2.032083   465A      2.033260   466A      2.037824  
     467A      2.046607   468A      2.052194   469A      2.059206  
     470A      2.071344   471A      2.075732   472A      2.082011  
     473A      2.087138   474A      2.092820   475A      2.094598  
     476A      2.100446   477A      2.110365   478A      2.120116  
     479A      2.126778   480A      2.132928   481A      2.139818  
     482A      2.150446   483A      2.156385   484A      2.160681  
     485A      2.170629   486A      2.172303   487A      2.184114  
     488A      2.190230   489A      2.194324   490A      2.196720  
     491A      2.209764   492A      2.217135   493A      2.228759  
     494A      2.240707   495A      2.252949   496A      2.262423  
     497A      2.268147   498A      2.272114   499A      2.277722  
     500A      2.287406   501A      2.309556   502A      2.314077  
     503A      2.322912   504A      2.325806   505A      2.332023  
     506A      2.334824   507A      2.351925   508A      2.360555  
     509A      2.364207   510A      2.369634   511A      2.386829  
     512A      2.392875   513A      2.398177   514A      2.401973  
     515A      2.406589   516A      2.412678   517A      2.421216  
     518A      2.440213   519A      2.443720   520A      2.452955  
     521A      2.464293   522A      2.468596   523A      2.478175  
     524A      2.500331   525A      2.506278   526A      2.525551  
     527A      2.534774   528A      2.548790   529A      2.572844  
     530A      2.580564   531A      2.591347   532A      2.603319  
     533A      2.628537   534A      2.637184   535A      2.645835  
     536A      2.658114   537A      2.672593   538A      2.687365  
     539A      2.697906   540A      2.729896   541A      2.742690  
     542A      2.754216   543A      2.766990   544A      2.773863  
     545A      2.780809   546A      2.806578   547A      2.823274  
     548A      2.828128   549A      2.839882   550A      2.853933  
     551A      2.872925   552A      2.884314   553A      2.900917  
     554A      2.924377   555A      2.937302   556A      2.959195  
     557A      2.973716   558A      3.018025   559A      3.026059  
     560A      3.051713   561A      3.072297   562A      3.078419  
     563A      3.092821   564A      3.116700   565A      3.119117  
     566A      3.150021   567A      3.163474   568A      3.180809  
     569A      3.204473   570A      3.231331   571A      3.239383  
     572A      3.242168   573A      3.251109   574A      3.261869  
     575A      3.269227   576A      3.292561   577A      3.308319  
     578A      3.315458   579A      3.331265   580A      3.349406  
     581A      3.352924   582A      3.360125   583A      3.375454  
     584A      3.380940   585A      3.384522   586A      3.392155  
     587A      3.399028   588A      3.407689   589A      3.421667  
     590A      3.427480   591A      3.435382   592A      3.440176  
     593A      3.451163   594A      3.459172   595A      3.467702  
     596A      3.473524   597A      3.483567   598A      3.494193  
     599A      3.502003   600A      3.510355   601A      3.515139  
     602A      3.518187   603A      3.522827   604A      3.542275  
     605A      3.546784   606A      3.556312   607A      3.559451  
     608A      3.564394   609A      3.576738   610A      3.582397  
     611A      3.587878   612A      3.596767   613A      3.599961  
     614A      3.609044   615A      3.623598   616A      3.634861  
     617A      3.636534   618A      3.646525   619A      3.648154  
     620A      3.659758   621A      3.659997   622A      3.665091  
     623A      3.667529   624A      3.678964   625A      3.691199  
     626A      3.698169   627A      3.705843   628A      3.713482  
     629A      3.719232   630A      3.727665   631A      3.740881  
     632A      3.759949   633A      3.762956   634A      3.768117  
     635A      3.775674   636A      3.785882   637A      3.795705  
     638A      3.803841   639A      3.824966   640A      3.833094  
     641A      3.837652   642A      3.844943   643A      3.848609  
     644A      3.856918   645A      3.865222   646A      3.867844  
     647A      3.871293   648A      3.880856   649A      3.893322  
     650A      3.900023   651A      3.903551   652A      3.922228  
     653A      3.929445   654A      3.932062   655A      3.937022  
     656A      3.941888   657A      3.952340   658A      3.961154  
     659A      3.967228   660A      3.977736   661A      3.980623  
     662A      3.988543   663A      3.994846   664A      4.003482  
     665A      4.006197   666A      4.008973   667A      4.016996  
     668A      4.030990   669A      4.042860   670A      4.043967  
     671A      4.049940   672A      4.060041   673A      4.071500  
     674A      4.089147   675A      4.101892   676A      4.103578  
     677A      4.110583   678A      4.116247   679A      4.118933  
     680A      4.136619   681A      4.140737   682A      4.147345  
     683A      4.150299   684A      4.157883   685A      4.171467  
     686A      4.179101   687A      4.187285   688A      4.201108  
     689A      4.203032   690A      4.209885   691A      4.223359  
     692A      4.230591   693A      4.242368   694A      4.255847  
     695A      4.260455   696A      4.268496   697A      4.275371  
     698A      4.283246   699A      4.296989   700A      4.305975  
     701A      4.309032   702A      4.317736   703A      4.328064  
     704A      4.335609   705A      4.343886   706A      4.362020  
     707A      4.368724   708A      4.374607   709A      4.383900  
     710A      4.395725   711A      4.403494   712A      4.406701  
     713A      4.411331   714A      4.421091   715A      4.425208  
     716A      4.429186   717A      4.432329   718A      4.442170  
     719A      4.460971   720A      4.470271   721A      4.480268  
     722A      4.483616   723A      4.488622   724A      4.490307  
     725A      4.497094   726A      4.508365   727A      4.517238  
     728A      4.529545   729A      4.540389   730A      4.562461  
     731A      4.567387   732A      4.572653   733A      4.587160  
     734A      4.597866   735A      4.608352   736A      4.628100  
     737A      4.634865   738A      4.661866   739A      4.670859  
     740A      4.696401   741A      4.706283   742A      4.710637  
     743A      4.724205   744A      4.728541   745A      4.741899  
     746A      4.749062   747A      4.761659   748A      4.787095  
     749A      4.790143   750A      4.810008   751A      4.824883  
     752A      4.831237   753A      4.837497   754A      4.849182  
     755A      4.873371   756A      4.889754   757A      4.893204  
     758A      4.902358   759A      4.914177   760A      4.919548  
     761A      4.938859   762A      4.945867   763A      4.958805  
     764A      4.974468   765A      4.990619   766A      5.002516  
     767A      5.012286   768A      5.025228   769A      5.033064  
     770A      5.036659   771A      5.058462   772A      5.067761  
     773A      5.082963   774A      5.087750   775A      5.093545  
     776A      5.106637   777A      5.110889   778A      5.121163  
     779A      5.128862   780A      5.132592   781A      5.142875  
     782A      5.148946   783A      5.163306   784A      5.171136  
     785A      5.181499   786A      5.185678   787A      5.189675  
     788A      5.202642   789A      5.214837   790A      5.226283  
     791A      5.253180   792A      5.267413   793A      5.268900  
     794A      5.286168   795A      5.306936   796A      5.314168  
     797A      5.320649   798A      5.330828   799A      5.346281  
     800A      5.361225   801A      5.361684   802A      5.370381  
     803A      5.378166   804A      5.400064   805A      5.422429  
     806A      5.423696   807A      5.441647   808A      5.462150  
     809A      5.489275   810A      5.517856   811A      5.530426  
     812A      5.545709   813A      5.566093   814A      5.586003  
     815A      5.595939   816A      5.601363   817A      5.625871  
     818A      5.636159   819A      5.672112   820A      5.676700  
     821A      5.714244   822A      5.745602   823A      5.764180  
     824A      5.774811   825A      5.795689   826A      5.806490  
     827A      5.826915   828A      5.840241   829A      5.863775  
     830A      5.877641   831A      5.908537   832A      5.925167  
     833A      5.934612   834A      5.959282   835A      5.977518  
     836A      6.062467   837A      6.079764   838A      6.113527  
     839A      6.127697   840A      6.152627   841A      6.169876  
     842A      6.176087   843A      6.201092   844A      6.212135  
     845A      6.235041   846A      6.256656   847A      6.290178  
     848A      6.301308   849A      6.310919   850A      6.342115  
     851A      6.402876   852A      6.467537   853A      6.483547  
     854A      6.529587   855A      6.552816   856A      6.605181  
     857A      6.667759   858A      6.682351   859A      6.749688  
     860A      6.758187   861A      6.762886   862A      6.833279  
     863A      6.843288   864A      6.881676   865A      6.924151  
     866A      6.953934   867A      7.001159   868A      7.030342  
     869A      7.049089   870A      7.096771   871A      7.122477  
     872A      7.145926   873A      7.198296   874A      7.245615  
     875A      7.533949   876A      7.566222   877A      7.589055  
     878A      7.673534   879A      7.797493   880A      7.925060  
     881A      7.997955   882A      8.338462   883A      8.656877  
     884A     15.687042   885A     16.054233   886A     16.154463  
     887A     16.740692   888A     16.839728   889A     18.405526  
     890A     18.531832   891A     18.973422   892A     19.375677  
     893A     19.576607   894A     19.750133   895A     20.116574  
     896A     20.672259   897A     20.732706  

    Final Occupation by Irrep:
              A 
    DOCC [    49 ]

  @DF-RHF Final Energy:  -590.31897386486173

   => Energetics <=

    Nuclear Repulsion Energy =            800.5197357272968475
    One-Electron Energy =               -2389.8743583586297063
    Two-Electron Energy =                 999.0356487664711267
    Total Energy =                       -590.3189738648617322

Computation Completed

*** tstop() called on c418-103.stampede2.tacc.utexas.edu at Mon Mar  8 00:07:00 2021
Module time:
	user time   =    1536.10 seconds =      25.60 minutes
	system time =      68.78 seconds =       1.15 minutes
	total time  =         75 seconds =       1.25 minutes
Total time:
	user time   =    1536.10 seconds =      25.60 minutes
	system time =      68.78 seconds =       1.15 minutes
	total time  =         75 seconds =       1.25 minutes
   => Loading Basis Set <=

    Name: (AUG-CC-PVTZ AUX)
    Role: RIFIT
    Keyword: DF_BASIS_MP2
    atoms 1     entry O          line   264 file /home1/07844/xy3866/miniconda3/envs/p4env/share/psi4/basis/aug-cc-pvtz-ri.gbs 
    atoms 2     entry N          line   206 file /home1/07844/xy3866/miniconda3/envs/p4env/share/psi4/basis/aug-cc-pvtz-ri.gbs 
    atoms 3-14  entry C          line   148 file /home1/07844/xy3866/miniconda3/envs/p4env/share/psi4/basis/aug-cc-pvtz-ri.gbs 
    atoms 15-25 entry H          line    30 file /home1/07844/xy3866/miniconda3/envs/p4env/share/psi4/basis/aug-cc-pvtz-ri.gbs 


*** tstart() called on c418-103.stampede2.tacc.utexas.edu
*** at Mon Mar  8 00:07:02 2021


  //>>>>>>>>>>>>>>>>>>>>>>>>>>>>>>>>>>>//
  //               DFMP2               //
  //<<<<<<<<<<<<<<<<<<<<<<<<<<<<<<<<<<<//

	 --------------------------------------------------------
	                          DF-MP2                         
	      2nd-Order Density-Fitted Moller-Plesset Theory     
	              RMP2 Wavefunction,  32 Threads             
	                                                         
	        Rob Parrish, Justin Turney, Andy Simmonett,      
	           Ed Hohenstein, and C. David Sherrill          
	 --------------------------------------------------------

   => Auxiliary Basis Set <=

  Basis Set: (AUG-CC-PVTZ AUX)
    Blend: AUG-CC-PVTZ-RI
    Number of shells: 546
    Number of basis functions: 1990
    Number of Cartesian functions: 2509
    Spherical Harmonics?: true
    Max angular momentum: 4

	 --------------------------------------------------------
	                 NBF =   897, NAUX =  1990
	 --------------------------------------------------------
	   CLASS    FOCC     OCC    AOCC    AVIR     VIR    FVIR
	   PAIRS       0      49      49     848     848       0
	 --------------------------------------------------------

  DFHelper Memory: AOs need 10.517 GiB; user supplied 22.352 GiB. Using in-core AOs.


         ------------------------------------------------------------
                                     CPHF                           
                                  Rob Parrish                       
         ------------------------------------------------------------

  ==> Geometry <==

    Molecular point group: c1
    Full point group: C1

    Geometry (in Angstrom), charge = 0, multiplicity = 1:

       Center              X                  Y                   Z               Mass       
    ------------   -----------------  -----------------  -----------------  -----------------
         O           -0.449069049285     1.298127131353     0.297330074817    15.994914619570
         N            0.826622950715    -0.571907868647    -0.280790925183    14.003074004430
         C            3.248113950715    -0.441933868647    -0.162150925183    12.000000000000
         C            0.770642950715     0.682521131353     0.148193074817    12.000000000000
         C           -1.592750049285     0.511929131353     0.137779074817    12.000000000000
         C            3.142115950715     0.884688131353     0.287887074817    12.000000000000
         C            1.893576950715     1.465065131353     0.450450074817    12.000000000000
         C            2.145527050715    -1.152004368647    -0.436971325183    12.000000000000
         C            4.583634950715    -1.107669868647    -0.349508925183    12.000000000000
         C           -1.891573049285    -0.506420868647     1.042483074817    12.000000000000
         C           -2.468979049285     0.854479131353    -0.887830925183    12.000000000000
         C           -3.094464049285    -1.197895868647     0.903524074817    12.000000000000
         C           -3.673631049285     0.158966131353    -1.012217925183    12.000000000000
         C           -3.987288049285    -0.868846868647    -0.120923925183    12.000000000000
         H            4.040101950715     1.458603131353     0.511760074817     1.007825032230
         H            1.765616950715     2.485498131353     0.797797074817     1.007825032230
         H            2.069362950715    -2.142976868647    -0.779600925183     1.007825032230
         H            5.143817950715    -1.142307868647     0.590209074817     1.007825032230
         H            4.459943950715    -2.133912868647    -0.705861925183     1.007825032230
         H            5.194987950715    -0.568616868647    -1.080028925183     1.007825032230
         H           -1.190208049285    -0.747441868647     1.835815074817     1.007825032230
         H           -2.200746049285     1.658799131353    -1.567040925183     1.007825032230
         H           -3.336903049285    -1.995734868647     1.601360074817     1.007825032230
         H           -4.365152049285     0.421073131353    -1.809246925183     1.007825032230
         H           -4.924468049285    -1.410253868647    -0.221081925183     1.007825032230

  Nuclear repulsion =  800.519735727296734
  Reference energy  = -590.318973864861732

  ==> Basis Set <==

  Basis Set: AUG-CC-PVTZ
    Blend: AUG-CC-PVTZ
    Number of shells: 295
    Number of basis functions: 897
    Number of Cartesian functions: 1045
    Spherical Harmonics?: true
    Max angular momentum: 3

  ==> CGRSolver (by Rob Parrish) <==

   Number of roots    =         1
   Preconditioning    =    JACOBI
   Convergence cutoff =     1E-06
   Maximum iterations =       100

  ==> CPHFRHamiltonian (by Rob Parrish) <== 

  ==> MemDFJK: Density-Fitted J/K Matrices <==

    J tasked:                   Yes
    K tasked:                   Yes
    wK tasked:                   No
    OpenMP threads:              32
    Memory [MiB]:             22888
    Algorithm:                 Core
    Schwarz Cutoff:           1E-12
    Mask sparsity (%):      13.8345
    Fitting Condition:        1E-10

   => Auxiliary Basis Set <=

  Basis Set: (AUG-CC-PVTZ AUX)
    Blend: AUG-CC-PVTZ-JKFIT
    Number of shells: 574
    Number of basis functions: 1962
    Number of Cartesian functions: 2439
    Spherical Harmonics?: true
    Max angular momentum: 4

  ==> CPHF Iterations <==

  => Iterations <=

             Iter  Converged  Remaining    Residual
  CGR           1          0          1   9.791E-02
  CGR           2          0          1   3.146E-02
  CGR           3          0          1   1.926E-02
  CGR           4          0          1   7.702E-03
  CGR           5          0          1   3.293E-03
  CGR           6          0          1   1.426E-03
  CGR           7          0          1   4.566E-04
  CGR           8          0          1   1.822E-04
  CGR           9          0          1   7.690E-05
  CGR          10          0          1   3.659E-05
  CGR          11          0          1   1.753E-05
  CGR          12          0          1   5.609E-06
  CGR          13          0          1   2.223E-06
  CGR          14          1          0   5.757E-07

    CGRSolver converged.

	-----------------------------------------------------------
	 ==================> DF-MP2 Energies <==================== 
	-----------------------------------------------------------
	 Reference Energy          =    -590.3189738648617322 [Eh]
	 Singles Energy            =      -0.0000000000000000 [Eh]
	 Same-Spin Energy          =      -0.6437565562912326 [Eh]
	 Opposite-Spin Energy      =      -1.9834361357799075 [Eh]
	 Correlation Energy        =      -2.6271926920711399 [Eh]
	 Total Energy              =    -592.9461665569328943 [Eh]
	-----------------------------------------------------------
	 ================> DF-SCS-MP2 Energies <================== 
	-----------------------------------------------------------
	 SCS Same-Spin Scale       =       0.3333333333333333 [-]
	 SCS Opposite-Spin Scale   =       1.2000000000000000 [-]
	 SCS Same-Spin Energy      =      -0.2145855187637442 [Eh]
	 SCS Opposite-Spin Energy  =      -2.3801233629358891 [Eh]
	 SCS Correlation Energy    =      -2.5947088816996331 [Eh]
	 SCS Total Energy          =    -592.9136827465613351 [Eh]
	-----------------------------------------------------------



Properties will be evaluated at   0.000000,  -0.000000,   0.000000 [a0]

Properties computed using the MP2 density matrix

  Nuclear Dipole Moment: [e a0]
     X:     6.2356      Y:    -3.8519      Z:    -0.7720

  Electronic Dipole Moment: [e a0]
     X:    -5.4010      Y:     3.7841      Z:     0.8376

  Dipole Moment: [e a0]
     X:     0.8346      Y:    -0.0679      Z:     0.0656     Total:     0.8399

  Dipole Moment: [D]
     X:     2.1213      Y:    -0.1725      Z:     0.1668     Total:     2.1349


*** tstop() called on c418-103.stampede2.tacc.utexas.edu at Mon Mar  8 00:15:06 2021
Module time:
	user time   =    5192.88 seconds =      86.55 minutes
	system time =     114.88 seconds =       1.91 minutes
	total time  =        484 seconds =       8.07 minutes
Total time:
	user time   =    6730.24 seconds =     112.17 minutes
	system time =     183.68 seconds =       3.06 minutes
	total time  =        561 seconds =       9.35 minutes

    Psi4 stopped on: Monday, 08 March 2021 12:15AM
    Psi4 wall time for execution: 0:09:23.50

*** Psi4 exiting successfully. Buy a developer a beer!
