
    -----------------------------------------------------------------------
          Psi4: An Open-Source Ab Initio Electronic Structure Package
                               Psi4 1.4a3.dev225 

                         Git: Rev {master} 7105e37 


    D. G. A. Smith, L. A. Burns, A. C. Simmonett, R. M. Parrish,
    M. C. Schieber, R. Galvelis, P. Kraus, H. Kruse, R. Di Remigio,
    A. Alenaizan, A. M. James, S. Lehtola, J. P. Misiewicz, M. Scheurer,
    R. A. Shaw, J. B. Schriber, Y. Xie, Z. L. Glick, D. A. Sirianni,
    J. S. O'Brien, J. M. Waldrop, A. Kumar, E. G. Hohenstein,
    B. P. Pritchard, B. R. Brooks, H. F. Schaefer III, A. Yu. Sokolov,
    K. Patkowski, A. E. DePrince III, U. Bozkaya, R. A. King,
    F. A. Evangelista, J. M. Turney, T. D. Crawford, C. D. Sherrill,
    J. Chem. Phys. 152(18) 184108 (2020). https://doi.org/10.1063/5.0006002

                            Additional Code Authors
    E. T. Seidl, C. L. Janssen, E. F. Valeev, M. L. Leininger,
    J. F. Gonthier, R. M. Richard, H. R. McAlexander, M. Saitow, X. Wang,
    P. Verma, and M. H. Lechner

             Previous Authors, Complete List of Code Contributors,
                       and Citations for Specific Modules
    https://github.com/psi4/psi4/blob/master/codemeta.json
    https://github.com/psi4/psi4/graphs/contributors
    http://psicode.org/psi4manual/master/introduction.html#citing-psifour

    -----------------------------------------------------------------------


    Psi4 started on: Wednesday, 31 March 2021 08:03PM

    Process ID: 228439
    Host:       c453-033.stampede2.tacc.utexas.edu
    PSIDATADIR: /home1/07844/xy3866/miniconda3/envs/p4env/share/psi4
    Memory:     500.0 MiB
    Threads:    8
    
  ==> Input File <==

--------------------------------------------------------------------------
#psi4
#
memory 32 gb

molecule  {
0 1
  O       -0.4771680     1.3164760     0.3008390
  N        0.7985240    -0.5535590    -0.2772820
  C        3.2200150    -0.4235850    -0.1586420
  C        0.7425440     0.7008700     0.1517020
  C       -1.6208490     0.5302780     0.1412880
  C        3.1140170     0.9030370     0.2913960
  C        1.8654780     1.4834140     0.4539590
  C        2.0264240    -1.0936290    -0.4226860
  C        4.5555360    -1.0893210    -0.3460000
  C       -1.9196720    -0.4880720     1.0459920
  C       -2.4970780     0.8728280    -0.8843220
  C       -3.1225630    -1.1795470     0.9070330
  C       -3.7017300     0.1773150    -1.0087090
  C       -4.0153870    -0.8504980    -0.1174150
  H        4.0532336     1.5033030     0.5255480
  H        1.7375180     2.5038470     0.8013060
  H        2.0412640    -2.1246280    -0.7760920
  H        5.1157190    -1.1239590     0.5937180
  H        4.4318450    -2.1155640    -0.7023530
  H        5.1668890    -0.5502680    -1.0765200
  H       -1.2183070    -0.7290930     1.8393240
  H       -2.2288450     1.6771480    -1.5635320
  H       -3.3650020    -1.9773860     1.6048690
  H       -4.3932510     0.4394220    -1.8057380
  H       -4.9525670    -1.3919050    -0.2175730
units angstrom
no_reorient  #important for SAPT in psi4, default
symmetry c1  #important for SAPT in psi4, default
}

set PROPERTIES_ORIGIN ["COM"]
properties('MP2/aug-cc-pvtz', properties = ['dipole'])
--------------------------------------------------------------------------

  Memory set to  29.802 GiB by Python driver.
    SCF Algorithm Type (re)set to DF.

*** tstart() called on c453-033.stampede2.tacc.utexas.edu
*** at Wed Mar 31 20:03:35 2021

   => Loading Basis Set <=

    Name: AUG-CC-PVTZ
    Role: ORBITAL
    Keyword: BASIS
    atoms 1     entry O          line   331 file /home1/07844/xy3866/miniconda3/envs/p4env/share/psi4/basis/aug-cc-pvtz.gbs 
    atoms 2     entry N          line   285 file /home1/07844/xy3866/miniconda3/envs/p4env/share/psi4/basis/aug-cc-pvtz.gbs 
    atoms 3-14  entry C          line   239 file /home1/07844/xy3866/miniconda3/envs/p4env/share/psi4/basis/aug-cc-pvtz.gbs 
    atoms 15-25 entry H          line    40 file /home1/07844/xy3866/miniconda3/envs/p4env/share/psi4/basis/aug-cc-pvtz.gbs 


         ---------------------------------------------------------
                                   SCF
               by Justin Turney, Rob Parrish, Andy Simmonett
                          and Daniel G. A. Smith
                              RHF Reference
                        8 Threads,  30517 MiB Core
         ---------------------------------------------------------

  ==> Geometry <==

    Molecular point group: c1
    Full point group: C1

    Geometry (in Angstrom), charge = 0, multiplicity = 1:

       Center              X                  Y                   Z               Mass       
    ------------   -----------------  -----------------  -----------------  -----------------
         O           -0.443393271767     1.295388509850     0.296575411068    15.994914619570
         N            0.832298728233    -0.574646490150    -0.281545588932    14.003074004430
         C            3.253789728233    -0.444672490150    -0.162905588932    12.000000000000
         C            0.776318728233     0.679782509850     0.147438411068    12.000000000000
         C           -1.587074271767     0.509190509850     0.137024411068    12.000000000000
         C            3.147791728233     0.881949509850     0.287132411068    12.000000000000
         C            1.899252728233     1.462326509850     0.449695411068    12.000000000000
         C            2.060198728233    -1.114716490150    -0.426949588932    12.000000000000
         C            4.589310728233    -1.110408490150    -0.350263588932    12.000000000000
         C           -1.885897271767    -0.509159490150     1.041728411068    12.000000000000
         C           -2.463303271767     0.851740509850    -0.888585588932    12.000000000000
         C           -3.088788271767    -1.200634490150     0.902769411068    12.000000000000
         C           -3.667955271767     0.156227509850    -1.012972588932    12.000000000000
         C           -3.981612271767    -0.871585490150    -0.121678588932    12.000000000000
         H            4.087008328233     1.482215509850     0.521284411068     1.007825032230
         H            1.771292728233     2.482759509850     0.797042411068     1.007825032230
         H            2.075038728233    -2.145715490150    -0.780355588932     1.007825032230
         H            5.149493728233    -1.145046490150     0.589454411068     1.007825032230
         H            4.465619728233    -2.136651490150    -0.706616588932     1.007825032230
         H            5.200663728233    -0.571355490150    -1.080783588932     1.007825032230
         H           -1.184532271767    -0.750180490150     1.835060411068     1.007825032230
         H           -2.195070271767     1.656060509850    -1.567795588932     1.007825032230
         H           -3.331227271767    -1.998473490150     1.600605411068     1.007825032230
         H           -4.359476271767     0.418334509850    -1.810001588932     1.007825032230
         H           -4.918792271767    -1.412992490150    -0.221836588932     1.007825032230

  Running in c1 symmetry.

  Rotational constants: A =      0.06878  B =      0.01159  C =      0.01081 [cm^-1]
  Rotational constants: A =   2061.93803  B =    347.38862  C =    324.18939 [MHz]
  Nuclear repulsion =  801.453171662481168

  Charge       = 0
  Multiplicity = 1
  Electrons    = 98
  Nalpha       = 49
  Nbeta        = 49

  ==> Algorithm <==

  SCF Algorithm Type is DF.
  DIIS enabled.
  MOM disabled.
  Fractional occupation disabled.
  Guess Type is SAD.
  Energy threshold   = 1.00e-10
  Density threshold  = 1.00e-10
  Integral threshold = 1.00e-12

  ==> Primary Basis <==

  Basis Set: AUG-CC-PVTZ
    Blend: AUG-CC-PVTZ
    Number of shells: 295
    Number of basis functions: 897
    Number of Cartesian functions: 1045
    Spherical Harmonics?: true
    Max angular momentum: 3

   => Loading Basis Set <=

    Name: (AUG-CC-PVTZ AUX)
    Role: JKFIT
    Keyword: DF_BASIS_SCF
    atoms 1     entry O          line   286 file /home1/07844/xy3866/miniconda3/envs/p4env/share/psi4/basis/aug-cc-pvtz-jkfit.gbs 
    atoms 2     entry N          line   224 file /home1/07844/xy3866/miniconda3/envs/p4env/share/psi4/basis/aug-cc-pvtz-jkfit.gbs 
    atoms 3-14  entry C          line   162 file /home1/07844/xy3866/miniconda3/envs/p4env/share/psi4/basis/aug-cc-pvtz-jkfit.gbs 
    atoms 15-25 entry H          line    70 file /home1/07844/xy3866/miniconda3/envs/p4env/share/psi4/basis/aug-cc-pvtz-jkfit.gbs 

  ==> Integral Setup <==

  DFHelper Memory: AOs need 9.575 GiB; user supplied 22.352 GiB. Using in-core AOs.

  ==> MemDFJK: Density-Fitted J/K Matrices <==

    J tasked:                   Yes
    K tasked:                   Yes
    wK tasked:                   No
    OpenMP threads:               8
    Memory [MiB]:             22888
    Algorithm:                 Core
    Schwarz Cutoff:           1E-12
    Mask sparsity (%):      20.6160
    Fitting Condition:        1E-10

   => Auxiliary Basis Set <=

  Basis Set: (AUG-CC-PVTZ AUX)
    Blend: AUG-CC-PVTZ-JKFIT
    Number of shells: 574
    Number of basis functions: 1962
    Number of Cartesian functions: 2439
    Spherical Harmonics?: true
    Max angular momentum: 4

  Minimum eigenvalue in the overlap matrix is 6.3523304060E-07.
  Reciprocal condition number of the overlap matrix is 3.3679064795E-08.
    Using symmetric orthogonalization.

  ==> Pre-Iterations <==

  SCF Guess: Superposition of Atomic Densities via on-the-fly atomic UHF (no occupation information).

   -------------------------
    Irrep   Nso     Nmo    
   -------------------------
     A        897     897 
   -------------------------
    Total     897     897
   -------------------------

  ==> Iterations <==

                           Total Energy        Delta E     RMS |[F,P]|

   @DF-RHF iter SAD:  -589.56429736662960   -5.89564e+02   0.00000e+00 
   @DF-RHF iter   1:  -589.95914773109530   -3.94850e-01   8.80453e-04 DIIS
   @DF-RHF iter   2:  -590.25955163670164   -3.00404e-01   4.09960e-04 DIIS
   @DF-RHF iter   3:  -590.32330344111483   -6.37518e-02   9.82754e-05 DIIS
   @DF-RHF iter   4:  -590.32807456809553   -4.77113e-03   4.77524e-05 DIIS
   @DF-RHF iter   5:  -590.32906077074313   -9.86203e-04   6.70253e-06 DIIS
   @DF-RHF iter   6:  -590.32909650887314   -3.57381e-05   2.70729e-06 DIIS
   @DF-RHF iter   7:  -590.32910218007407   -5.67120e-06   1.07009e-06 DIIS
   @DF-RHF iter   8:  -590.32910327461809   -1.09454e-06   4.42887e-07 DIIS
   @DF-RHF iter   9:  -590.32910352639055   -2.51772e-07   2.06511e-07 DIIS
   @DF-RHF iter  10:  -590.32910359791560   -7.15251e-08   8.90471e-08 DIIS
   @DF-RHF iter  11:  -590.32910361476979   -1.68542e-08   4.25803e-08 DIIS
   @DF-RHF iter  12:  -590.32910361822348   -3.45369e-09   1.63515e-08 DIIS
   @DF-RHF iter  13:  -590.32910361869449   -4.71005e-10   4.27383e-09 DIIS
   @DF-RHF iter  14:  -590.32910361871382   -1.93268e-11   1.91025e-09 DIIS
   @DF-RHF iter  15:  -590.32910361871518   -1.36424e-12   6.17142e-10 DIIS
   @DF-RHF iter  16:  -590.32910361871609   -9.09495e-13   3.52179e-10 DIIS
   @DF-RHF iter  17:  -590.32910361871905   -2.95586e-12   1.57128e-10 DIIS
   @DF-RHF iter  18:  -590.32910361871734    1.70530e-12   6.61395e-11 DIIS
  Energy and wave function converged.


  ==> Post-Iterations <==

    Orbital Energies [Eh]
    ---------------------

    Doubly Occupied:                                                      

       1A    -20.598782     2A    -15.563588     3A    -11.341073  
       4A    -11.295775     5A    -11.277683     6A    -11.267088  
       7A    -11.243722     8A    -11.241611     9A    -11.236822  
      10A    -11.236722    11A    -11.232739    12A    -11.232178  
      13A    -11.231437    14A    -11.230530    15A     -1.430929  
      16A     -1.253726    17A     -1.145967    18A     -1.101772  
      19A     -1.053188    20A     -1.015344    21A     -1.003731  
      22A     -0.942869    23A     -0.875522    24A     -0.842329  
      25A     -0.830774    26A     -0.799043    27A     -0.734759  
      28A     -0.704384    29A     -0.679233    30A     -0.655598  
      31A     -0.643464    32A     -0.626523    33A     -0.608843  
      34A     -0.593832    35A     -0.591182    36A     -0.586177  
      37A     -0.569689    38A     -0.559447    39A     -0.549299  
      40A     -0.521380    41A     -0.513698    42A     -0.511795  
      43A     -0.492773    44A     -0.477736    45A     -0.428085  
      46A     -0.384722    47A     -0.335536    48A     -0.332538  
      49A     -0.313791  

    Virtual:                                                              

      50A      0.025078    51A      0.031482    52A      0.032888  
      53A      0.036637    54A      0.040915    55A      0.043809  
      56A      0.048537    57A      0.051484    58A      0.055996  
      59A      0.062084    60A      0.071658    61A      0.082726  
      62A      0.084424    63A      0.093236    64A      0.094956  
      65A      0.100855    66A      0.105253    67A      0.107204  
      68A      0.107561    69A      0.111685    70A      0.113083  
      71A      0.114518    72A      0.116939    73A      0.121784  
      74A      0.125321    75A      0.128328    76A      0.128712  
      77A      0.129621    78A      0.132023    79A      0.136542  
      80A      0.137582    81A      0.138485    82A      0.141795  
      83A      0.149201    84A      0.150398    85A      0.150827  
      86A      0.154915    87A      0.156630    88A      0.161846  
      89A      0.163834    90A      0.166671    91A      0.168507  
      92A      0.172079    93A      0.180937    94A      0.188426  
      95A      0.196924    96A      0.199998    97A      0.203372  
      98A      0.209284    99A      0.213250   100A      0.215500  
     101A      0.230192   102A      0.232367   103A      0.236453  
     104A      0.241681   105A      0.248341   106A      0.250050  
     107A      0.254123   108A      0.255951   109A      0.259142  
     110A      0.264226   111A      0.267587   112A      0.268982  
     113A      0.271644   114A      0.274398   115A      0.284254  
     116A      0.287366   117A      0.289136   118A      0.297991  
     119A      0.301152   120A      0.301827   121A      0.308789  
     122A      0.309727   123A      0.314410   124A      0.315681  
     125A      0.319189   126A      0.320340   127A      0.322713  
     128A      0.328418   129A      0.331043   130A      0.333090  
     131A      0.340796   132A      0.342127   133A      0.344895  
     134A      0.348810   135A      0.351159   136A      0.355012  
     137A      0.357729   138A      0.362260   139A      0.366708  
     140A      0.369297   141A      0.374611   142A      0.381545  
     143A      0.386136   144A      0.389267   145A      0.393716  
     146A      0.397199   147A      0.402149   148A      0.405931  
     149A      0.409652   150A      0.416690   151A      0.417071  
     152A      0.421816   153A      0.427304   154A      0.432086  
     155A      0.440313   156A      0.442943   157A      0.447778  
     158A      0.449510   159A      0.451574   160A      0.454941  
     161A      0.459780   162A      0.462151   163A      0.463717  
     164A      0.468625   165A      0.469751   166A      0.473048  
     167A      0.479092   168A      0.480710   169A      0.485218  
     170A      0.488182   171A      0.490477   172A      0.492539  
     173A      0.494746   174A      0.496267   175A      0.497175  
     176A      0.500612   177A      0.502680   178A      0.509682  
     179A      0.510790   180A      0.512958   181A      0.518761  
     182A      0.522921   183A      0.526642   184A      0.531483  
     185A      0.535216   186A      0.536585   187A      0.538606  
     188A      0.539720   189A      0.543245   190A      0.549454  
     191A      0.552390   192A      0.557602   193A      0.558712  
     194A      0.560502   195A      0.563869   196A      0.567153  
     197A      0.573030   198A      0.574260   199A      0.582825  
     200A      0.584872   201A      0.588689   202A      0.590812  
     203A      0.600879   204A      0.603540   205A      0.608054  
     206A      0.616709   207A      0.621400   208A      0.625768  
     209A      0.636182   210A      0.641969   211A      0.642744  
     212A      0.648321   213A      0.652552   214A      0.658649  
     215A      0.659926   216A      0.669758   217A      0.673714  
     218A      0.679806   219A      0.686851   220A      0.694330  
     221A      0.696724   222A      0.702235   223A      0.707179  
     224A      0.712958   225A      0.717562   226A      0.719906  
     227A      0.722997   228A      0.732640   229A      0.733997  
     230A      0.736363   231A      0.740700   232A      0.743725  
     233A      0.751167   234A      0.757724   235A      0.768200  
     236A      0.772561   237A      0.783317   238A      0.785777  
     239A      0.792895   240A      0.800666   241A      0.804704  
     242A      0.812878   243A      0.813748   244A      0.820264  
     245A      0.823204   246A      0.832355   247A      0.839567  
     248A      0.841347   249A      0.846179   250A      0.851118  
     251A      0.854288   252A      0.860665   253A      0.865080  
     254A      0.869540   255A      0.872100   256A      0.879956  
     257A      0.883500   258A      0.886956   259A      0.888435  
     260A      0.890631   261A      0.892211   262A      0.895447  
     263A      0.905203   264A      0.906377   265A      0.911865  
     266A      0.914248   267A      0.919809   268A      0.921603  
     269A      0.926446   270A      0.927406   271A      0.935632  
     272A      0.936646   273A      0.945664   274A      0.949464  
     275A      0.950815   276A      0.953555   277A      0.958889  
     278A      0.966614   279A      0.967977   280A      0.975078  
     281A      0.978894   282A      0.984164   283A      0.991106  
     284A      0.994495   285A      0.999712   286A      1.003331  
     287A      1.007663   288A      1.011015   289A      1.012477  
     290A      1.022229   291A      1.026665   292A      1.028568  
     293A      1.030772   294A      1.035340   295A      1.042246  
     296A      1.047849   297A      1.049790   298A      1.053409  
     299A      1.057003   300A      1.063295   301A      1.064395  
     302A      1.068637   303A      1.072368   304A      1.076778  
     305A      1.077334   306A      1.085499   307A      1.088587  
     308A      1.089925   309A      1.095681   310A      1.100112  
     311A      1.107081   312A      1.107375   313A      1.111429  
     314A      1.113993   315A      1.122856   316A      1.123453  
     317A      1.130382   318A      1.135074   319A      1.140574  
     320A      1.142064   321A      1.146909   322A      1.156477  
     323A      1.158398   324A      1.163855   325A      1.168999  
     326A      1.173057   327A      1.179591   328A      1.181480  
     329A      1.190220   330A      1.197305   331A      1.199210  
     332A      1.201895   333A      1.203172   334A      1.208974  
     335A      1.212653   336A      1.215345   337A      1.219808  
     338A      1.222059   339A      1.225414   340A      1.230816  
     341A      1.236394   342A      1.237572   343A      1.241444  
     344A      1.246129   345A      1.249814   346A      1.257209  
     347A      1.258799   348A      1.266383   349A      1.269397  
     350A      1.276861   351A      1.278022   352A      1.287304  
     353A      1.298977   354A      1.303856   355A      1.305872  
     356A      1.320437   357A      1.325983   358A      1.335596  
     359A      1.338291   360A      1.340401   361A      1.351715  
     362A      1.356914   363A      1.358232   364A      1.368057  
     365A      1.374480   366A      1.379820   367A      1.388330  
     368A      1.391236   369A      1.394470   370A      1.404217  
     371A      1.406370   372A      1.411540   373A      1.413830  
     374A      1.427142   375A      1.434322   376A      1.441861  
     377A      1.446566   378A      1.452345   379A      1.459132  
     380A      1.462107   381A      1.473649   382A      1.474427  
     383A      1.491182   384A      1.496948   385A      1.502530  
     386A      1.511004   387A      1.516143   388A      1.520889  
     389A      1.524038   390A      1.539460   391A      1.548849  
     392A      1.560779   393A      1.563610   394A      1.567762  
     395A      1.571612   396A      1.579812   397A      1.593872  
     398A      1.597536   399A      1.603238   400A      1.604921  
     401A      1.621197   402A      1.624928   403A      1.633485  
     404A      1.636172   405A      1.640091   406A      1.646564  
     407A      1.653479   408A      1.672509   409A      1.676969  
     410A      1.680662   411A      1.688496   412A      1.691840  
     413A      1.695754   414A      1.701142   415A      1.706229  
     416A      1.712267   417A      1.718586   418A      1.723768  
     419A      1.732668   420A      1.732831   421A      1.744537  
     422A      1.751677   423A      1.753602   424A      1.760027  
     425A      1.763967   426A      1.775061   427A      1.777843  
     428A      1.790048   429A      1.796251   430A      1.804171  
     431A      1.808646   432A      1.810940   433A      1.826073  
     434A      1.827626   435A      1.832615   436A      1.839998  
     437A      1.848798   438A      1.855444   439A      1.856323  
     440A      1.860840   441A      1.870764   442A      1.872222  
     443A      1.884120   444A      1.896474   445A      1.903892  
     446A      1.912670   447A      1.916862   448A      1.923213  
     449A      1.931136   450A      1.932068   451A      1.938479  
     452A      1.952777   453A      1.958382   454A      1.962353  
     455A      1.966909   456A      1.974885   457A      1.982394  
     458A      1.994508   459A      1.996655   460A      1.999167  
     461A      2.012849   462A      2.017042   463A      2.025781  
     464A      2.031513   465A      2.032051   466A      2.038395  
     467A      2.046702   468A      2.051939   469A      2.057241  
     470A      2.071065   471A      2.075977   472A      2.082147  
     473A      2.087315   474A      2.092371   475A      2.100396  
     476A      2.102358   477A      2.117930   478A      2.121766  
     479A      2.125008   480A      2.134190   481A      2.140095  
     482A      2.147126   483A      2.154844   484A      2.161736  
     485A      2.171919   486A      2.175044   487A      2.182898  
     488A      2.188558   489A      2.190920   490A      2.196896  
     491A      2.205264   492A      2.217803   493A      2.230960  
     494A      2.238883   495A      2.248819   496A      2.261681  
     497A      2.271685   498A      2.273492   499A      2.277648  
     500A      2.285798   501A      2.303722   502A      2.310473  
     503A      2.319952   504A      2.323518   505A      2.331990  
     506A      2.341258   507A      2.353815   508A      2.356072  
     509A      2.362739   510A      2.370860   511A      2.382031  
     512A      2.390685   513A      2.398741   514A      2.400587  
     515A      2.407592   516A      2.414905   517A      2.424018  
     518A      2.434016   519A      2.445715   520A      2.462702  
     521A      2.466726   522A      2.472295   523A      2.484411  
     524A      2.503751   525A      2.515190   526A      2.529628  
     527A      2.540419   528A      2.551799   529A      2.571736  
     530A      2.580950   531A      2.583927   532A      2.601614  
     533A      2.628926   534A      2.638779   535A      2.645380  
     536A      2.657442   537A      2.676840   538A      2.706420  
     539A      2.707569   540A      2.740598   541A      2.744903  
     542A      2.755462   543A      2.766030   544A      2.776469  
     545A      2.785466   546A      2.804919   547A      2.825232  
     548A      2.833824   549A      2.845370   550A      2.852282  
     551A      2.884192   552A      2.894719   553A      2.909871  
     554A      2.925945   555A      2.945933   556A      2.976856  
     557A      2.996705   558A      3.023297   559A      3.023653  
     560A      3.066924   561A      3.069555   562A      3.089691  
     563A      3.111710   564A      3.119068   565A      3.129337  
     566A      3.156797   567A      3.173539   568A      3.182178  
     569A      3.212437   570A      3.230015   571A      3.235607  
     572A      3.242064   573A      3.251092   574A      3.264475  
     575A      3.275104   576A      3.299428   577A      3.309522  
     578A      3.315992   579A      3.334789   580A      3.346705  
     581A      3.350552   582A      3.360125   583A      3.373838  
     584A      3.377013   585A      3.386281   586A      3.389872  
     587A      3.399213   588A      3.406647   589A      3.422203  
     590A      3.427818   591A      3.436114   592A      3.441920  
     593A      3.452943   594A      3.462857   595A      3.469586  
     596A      3.475151   597A      3.477608   598A      3.495097  
     599A      3.498000   600A      3.505138   601A      3.511105  
     602A      3.522375   603A      3.524095   604A      3.541512  
     605A      3.547279   606A      3.552031   607A      3.561672  
     608A      3.567403   609A      3.576834   610A      3.578486  
     611A      3.585226   612A      3.596341   613A      3.603658  
     614A      3.609454   615A      3.627813   616A      3.633078  
     617A      3.638649   618A      3.648697   619A      3.652039  
     620A      3.654177   621A      3.663180   622A      3.667625  
     623A      3.672164   624A      3.677766   625A      3.687886  
     626A      3.695691   627A      3.705829   628A      3.712020  
     629A      3.722875   630A      3.728325   631A      3.741408  
     632A      3.760581   633A      3.762905   634A      3.771720  
     635A      3.773903   636A      3.786732   637A      3.795955  
     638A      3.808243   639A      3.818014   640A      3.827824  
     641A      3.835979   642A      3.837051   643A      3.848743  
     644A      3.856484   645A      3.863458   646A      3.866584  
     647A      3.874046   648A      3.879837   649A      3.895213  
     650A      3.902990   651A      3.907452   652A      3.907863  
     653A      3.919440   654A      3.930493   655A      3.938756  
     656A      3.945103   657A      3.953638   658A      3.959089  
     659A      3.967833   660A      3.974517   661A      3.982840  
     662A      3.987944   663A      3.995660   664A      3.999216  
     665A      4.006048   666A      4.009165   667A      4.015260  
     668A      4.024147   669A      4.034198   670A      4.047156  
     671A      4.049340   672A      4.061656   673A      4.070630  
     674A      4.075679   675A      4.092239   676A      4.104767  
     677A      4.110136   678A      4.119854   679A      4.125176  
     680A      4.136336   681A      4.141180   682A      4.148030  
     683A      4.154626   684A      4.162126   685A      4.170606  
     686A      4.176980   687A      4.186480   688A      4.198359  
     689A      4.205603   690A      4.208909   691A      4.229794  
     692A      4.235542   693A      4.241020   694A      4.252846  
     695A      4.261892   696A      4.269826   697A      4.277002  
     698A      4.283965   699A      4.290939   700A      4.302203  
     701A      4.306710   702A      4.309041   703A      4.328254  
     704A      4.334735   705A      4.347837   706A      4.353733  
     707A      4.363833   708A      4.369203   709A      4.378349  
     710A      4.385427   711A      4.398137   712A      4.403013  
     713A      4.409626   714A      4.415113   715A      4.423095  
     716A      4.427279   717A      4.431062   718A      4.443897  
     719A      4.463174   720A      4.464841   721A      4.480742  
     722A      4.484396   723A      4.486905   724A      4.493028  
     725A      4.501042   726A      4.512199   727A      4.522471  
     728A      4.538089   729A      4.547865   730A      4.558072  
     731A      4.567890   732A      4.578878   733A      4.586201  
     734A      4.603232   735A      4.612212   736A      4.632145  
     737A      4.638473   738A      4.659832   739A      4.668943  
     740A      4.686731   741A      4.699675   742A      4.705611  
     743A      4.717159   744A      4.722839   745A      4.735832  
     746A      4.748582   747A      4.758622   748A      4.777928  
     749A      4.784838   750A      4.799136   751A      4.808141  
     752A      4.819091   753A      4.834937   754A      4.843730  
     755A      4.849281   756A      4.873356   757A      4.880226  
     758A      4.890711   759A      4.903269   760A      4.918990  
     761A      4.921709   762A      4.943623   763A      4.953498  
     764A      4.961783   765A      4.982433   766A      4.989657  
     767A      5.002487   768A      5.015019   769A      5.023388  
     770A      5.034025   771A      5.053999   772A      5.056765  
     773A      5.062341   774A      5.066250   775A      5.077195  
     776A      5.089825   777A      5.093091   778A      5.102141  
     779A      5.111441   780A      5.120603   781A      5.139110  
     782A      5.143665   783A      5.150666   784A      5.167315  
     785A      5.176228   786A      5.177017   787A      5.182907  
     788A      5.190718   789A      5.192114   790A      5.208101  
     791A      5.232630   792A      5.249482   793A      5.250487  
     794A      5.272485   795A      5.277414   796A      5.298706  
     797A      5.305757   798A      5.319415   799A      5.325412  
     800A      5.344985   801A      5.351587   802A      5.363306  
     803A      5.374658   804A      5.389223   805A      5.416304  
     806A      5.435432   807A      5.443729   808A      5.449479  
     809A      5.475809   810A      5.516478   811A      5.526667  
     812A      5.544230   813A      5.546634   814A      5.567783  
     815A      5.578601   816A      5.585994   817A      5.596498  
     818A      5.618193   819A      5.652727   820A      5.676158  
     821A      5.716794   822A      5.726840   823A      5.761170  
     824A      5.769794   825A      5.784797   826A      5.801311  
     827A      5.812752   828A      5.825073   829A      5.874447  
     830A      5.887766   831A      5.907535   832A      5.919536  
     833A      5.952443   834A      5.958893   835A      5.974340  
     836A      6.060047   837A      6.090112   838A      6.112108  
     839A      6.142042   840A      6.161710   841A      6.169286  
     842A      6.176693   843A      6.196139   844A      6.201829  
     845A      6.218029   846A      6.256998   847A      6.286579  
     848A      6.299285   849A      6.315163   850A      6.338460  
     851A      6.394735   852A      6.472483   853A      6.500142  
     854A      6.519004   855A      6.550993   856A      6.605082  
     857A      6.655804   858A      6.686077   859A      6.753972  
     860A      6.756251   861A      6.790502   862A      6.816694  
     863A      6.825920   864A      6.882661   865A      6.937576  
     866A      6.953743   867A      6.986937   868A      7.017551  
     869A      7.039076   870A      7.099371   871A      7.135935  
     872A      7.143488   873A      7.245854   874A      7.274261  
     875A      7.543475   876A      7.569368   877A      7.598091  
     878A      7.676095   879A      7.811415   880A      7.933883  
     881A      8.005641   882A      8.343495   883A      8.659535  
     884A     15.861976   885A     16.050825   886A     16.158848  
     887A     16.388498   888A     16.882033   889A     18.208258  
     890A     18.466121   891A     18.719719   892A     19.518581  
     893A     19.725686   894A     19.855282   895A     20.096656  
     896A     20.596505   897A     20.760484  

    Final Occupation by Irrep:
              A 
    DOCC [    49 ]

  @DF-RHF Final Energy:  -590.32910361871734

   => Energetics <=

    Nuclear Repulsion Energy =            801.4531716624811679
    One-Electron Energy =               -2391.6856951656859565
    Two-Electron Energy =                 999.9034198844875618
    Total Energy =                       -590.3291036187173404

Computation Completed

*** tstop() called on c453-033.stampede2.tacc.utexas.edu at Wed Mar 31 20:06:06 2021
Module time:
	user time   =     997.52 seconds =      16.63 minutes
	system time =      19.73 seconds =       0.33 minutes
	total time  =        151 seconds =       2.52 minutes
Total time:
	user time   =     997.52 seconds =      16.63 minutes
	system time =      19.73 seconds =       0.33 minutes
	total time  =        151 seconds =       2.52 minutes
   => Loading Basis Set <=

    Name: (AUG-CC-PVTZ AUX)
    Role: RIFIT
    Keyword: DF_BASIS_MP2
    atoms 1     entry O          line   264 file /home1/07844/xy3866/miniconda3/envs/p4env/share/psi4/basis/aug-cc-pvtz-ri.gbs 
    atoms 2     entry N          line   206 file /home1/07844/xy3866/miniconda3/envs/p4env/share/psi4/basis/aug-cc-pvtz-ri.gbs 
    atoms 3-14  entry C          line   148 file /home1/07844/xy3866/miniconda3/envs/p4env/share/psi4/basis/aug-cc-pvtz-ri.gbs 
    atoms 15-25 entry H          line    30 file /home1/07844/xy3866/miniconda3/envs/p4env/share/psi4/basis/aug-cc-pvtz-ri.gbs 


*** tstart() called on c453-033.stampede2.tacc.utexas.edu
*** at Wed Mar 31 20:06:08 2021


  //>>>>>>>>>>>>>>>>>>>>>>>>>>>>>>>>>>>//
  //               DFMP2               //
  //<<<<<<<<<<<<<<<<<<<<<<<<<<<<<<<<<<<//

	 --------------------------------------------------------
	                          DF-MP2                         
	      2nd-Order Density-Fitted Moller-Plesset Theory     
	              RMP2 Wavefunction,   8 Threads             
	                                                         
	        Rob Parrish, Justin Turney, Andy Simmonett,      
	           Ed Hohenstein, and C. David Sherrill          
	 --------------------------------------------------------

   => Auxiliary Basis Set <=

  Basis Set: (AUG-CC-PVTZ AUX)
    Blend: AUG-CC-PVTZ-RI
    Number of shells: 546
    Number of basis functions: 1990
    Number of Cartesian functions: 2509
    Spherical Harmonics?: true
    Max angular momentum: 4

	 --------------------------------------------------------
	                 NBF =   897, NAUX =  1990
	 --------------------------------------------------------
	   CLASS    FOCC     OCC    AOCC    AVIR     VIR    FVIR
	   PAIRS       0      49      49     848     848       0
	 --------------------------------------------------------

  DFHelper Memory: AOs need 10.377 GiB; user supplied 22.352 GiB. Using in-core AOs.


         ------------------------------------------------------------
                                     CPHF                           
                                  Rob Parrish                       
         ------------------------------------------------------------

  ==> Geometry <==

    Molecular point group: c1
    Full point group: C1

    Geometry (in Angstrom), charge = 0, multiplicity = 1:

       Center              X                  Y                   Z               Mass       
    ------------   -----------------  -----------------  -----------------  -----------------
         O           -0.443393271767     1.295388509850     0.296575411068    15.994914619570
         N            0.832298728233    -0.574646490150    -0.281545588932    14.003074004430
         C            3.253789728233    -0.444672490150    -0.162905588932    12.000000000000
         C            0.776318728233     0.679782509850     0.147438411068    12.000000000000
         C           -1.587074271767     0.509190509850     0.137024411068    12.000000000000
         C            3.147791728233     0.881949509850     0.287132411068    12.000000000000
         C            1.899252728233     1.462326509850     0.449695411068    12.000000000000
         C            2.060198728233    -1.114716490150    -0.426949588932    12.000000000000
         C            4.589310728233    -1.110408490150    -0.350263588932    12.000000000000
         C           -1.885897271767    -0.509159490150     1.041728411068    12.000000000000
         C           -2.463303271767     0.851740509850    -0.888585588932    12.000000000000
         C           -3.088788271767    -1.200634490150     0.902769411068    12.000000000000
         C           -3.667955271767     0.156227509850    -1.012972588932    12.000000000000
         C           -3.981612271767    -0.871585490150    -0.121678588932    12.000000000000
         H            4.087008328233     1.482215509850     0.521284411068     1.007825032230
         H            1.771292728233     2.482759509850     0.797042411068     1.007825032230
         H            2.075038728233    -2.145715490150    -0.780355588932     1.007825032230
         H            5.149493728233    -1.145046490150     0.589454411068     1.007825032230
         H            4.465619728233    -2.136651490150    -0.706616588932     1.007825032230
         H            5.200663728233    -0.571355490150    -1.080783588932     1.007825032230
         H           -1.184532271767    -0.750180490150     1.835060411068     1.007825032230
         H           -2.195070271767     1.656060509850    -1.567795588932     1.007825032230
         H           -3.331227271767    -1.998473490150     1.600605411068     1.007825032230
         H           -4.359476271767     0.418334509850    -1.810001588932     1.007825032230
         H           -4.918792271767    -1.412992490150    -0.221836588932     1.007825032230

  Nuclear repulsion =  801.453171662481168
  Reference energy  = -590.329103618717340

  ==> Basis Set <==

  Basis Set: AUG-CC-PVTZ
    Blend: AUG-CC-PVTZ
    Number of shells: 295
    Number of basis functions: 897
    Number of Cartesian functions: 1045
    Spherical Harmonics?: true
    Max angular momentum: 3

  ==> CGRSolver (by Rob Parrish) <==

   Number of roots    =         1
   Preconditioning    =    JACOBI
   Convergence cutoff =     1E-06
   Maximum iterations =       100

  ==> CPHFRHamiltonian (by Rob Parrish) <== 

  ==> MemDFJK: Density-Fitted J/K Matrices <==

    J tasked:                   Yes
    K tasked:                   Yes
    wK tasked:                   No
    OpenMP threads:               8
    Memory [MiB]:             22888
    Algorithm:                 Core
    Schwarz Cutoff:           1E-12
    Mask sparsity (%):      13.7995
    Fitting Condition:        1E-10

   => Auxiliary Basis Set <=

  Basis Set: (AUG-CC-PVTZ AUX)
    Blend: AUG-CC-PVTZ-JKFIT
    Number of shells: 574
    Number of basis functions: 1962
    Number of Cartesian functions: 2439
    Spherical Harmonics?: true
    Max angular momentum: 4

  ==> CPHF Iterations <==

  => Iterations <=

             Iter  Converged  Remaining    Residual
  CGR           1          0          1   9.759E-02
  CGR           2          0          1   3.152E-02
  CGR           3          0          1   2.014E-02
  CGR           4          0          1   7.910E-03
  CGR           5          0          1   3.341E-03
  CGR           6          0          1   1.368E-03
  CGR           7          0          1   4.178E-04
  CGR           8          0          1   1.489E-04
  CGR           9          0          1   5.074E-05
  CGR          10          0          1   2.023E-05
  CGR          11          0          1   9.820E-06
  CGR          12          0          1   4.351E-06
  CGR          13          0          1   1.960E-06
  CGR          14          1          0   4.994E-07

    CGRSolver converged.

	-----------------------------------------------------------
	 ==================> DF-MP2 Energies <==================== 
	-----------------------------------------------------------
	 Reference Energy          =    -590.3291036187173404 [Eh]
	 Singles Energy            =      -0.0000000000000000 [Eh]
	 Same-Spin Energy          =      -0.6441098981420567 [Eh]
	 Opposite-Spin Energy      =      -1.9818863443596215 [Eh]
	 Correlation Energy        =      -2.6259962425016781 [Eh]
	 Total Energy              =    -592.9550998612189687 [Eh]
	-----------------------------------------------------------
	 ================> DF-SCS-MP2 Energies <================== 
	-----------------------------------------------------------
	 SCS Same-Spin Scale       =       0.3333333333333333 [-]
	 SCS Opposite-Spin Scale   =       1.2000000000000000 [-]
	 SCS Same-Spin Energy      =      -0.2147032993806856 [Eh]
	 SCS Opposite-Spin Energy  =      -2.3782636132315456 [Eh]
	 SCS Correlation Energy    =      -2.5929669126122312 [Eh]
	 SCS Total Energy          =    -592.9220705313296094 [Eh]
	-----------------------------------------------------------



Properties will be evaluated at  -0.000000,   0.000000,   0.000000 [a0]

Properties computed using the MP2 density matrix

  Nuclear Dipole Moment: [e a0]
     X:     6.3328      Y:    -3.8555      Z:    -0.7702

  Electronic Dipole Moment: [e a0]
     X:    -5.5473      Y:     3.7791      Z:     0.8301

  Dipole Moment: [e a0]
     X:     0.7855      Y:    -0.0763      Z:     0.0600     Total:     0.7915

  Dipole Moment: [D]
     X:     1.9966      Y:    -0.1940      Z:     0.1524     Total:     2.0117


*** tstop() called on c453-033.stampede2.tacc.utexas.edu at Wed Mar 31 20:17:18 2021
Module time:
	user time   =    4290.37 seconds =      71.51 minutes
	system time =      58.47 seconds =       0.97 minutes
	total time  =        670 seconds =      11.17 minutes
Total time:
	user time   =    5289.12 seconds =      88.15 minutes
	system time =      78.22 seconds =       1.30 minutes
	total time  =        823 seconds =      13.72 minutes

    Psi4 stopped on: Wednesday, 31 March 2021 08:17PM
    Psi4 wall time for execution: 0:13:45.93

*** Psi4 exiting successfully. Buy a developer a beer!
