5249138                                                                 
Freq      RMP2-FC                                                     6-31G(d)            
Number of atoms                            I               18
Info1-9                                    I   N=           9
          30          28        1002           0           0         100
           6           2           1
Charge                                     I                1
Multiplicity                               I                1
Number of electrons                        I               50
Number of alpha electrons                  I               25
Number of beta electrons                   I               25
Number of basis functions                  I              114
Number of independent functions            I              114
Number of point charges in /Mol/           I                0
Number of translation vectors              I                0
Atomic numbers                             I   N=          18
           8           7           6           6           6           6
           1           1           1           1           1           1
           1           1           1           1           1           1
Nuclear charges                            R   N=          18
  8.00000000E+00  7.00000000E+00  6.00000000E+00  6.00000000E+00  6.00000000E+00
  6.00000000E+00  1.00000000E+00  1.00000000E+00  1.00000000E+00  1.00000000E+00
  1.00000000E+00  1.00000000E+00  1.00000000E+00  1.00000000E+00  1.00000000E+00
  1.00000000E+00  1.00000000E+00  1.00000000E+00
Current cartesian coordinates              R   N=          54
 -3.36012438E+00  9.10633041E-02 -1.68182461E+00  1.33842377E+00  1.08046010E-02
 -3.63341137E-01 -5.07463290E-01 -1.34052189E+00  1.32805042E+00  1.80246049E+00
  2.68425406E+00  4.35782770E-01  3.75827405E+00 -1.42716347E+00 -6.32482929E-01
 -3.12101366E+00 -1.98756340E-01  9.86804630E-01  4.30710923E-01  7.83130050E-02
 -2.09133292E+00 -5.15672980E-01 -3.31128409E+00  7.16818104E-01  1.78767767E-01
 -1.22238113E+00  3.27218509E+00  2.57482556E+00  2.67193639E+00  2.34578501E+00
  3.15026931E+00  3.53116621E+00 -8.70724515E-01  2.85448516E-02  3.72152766E+00
  3.68059783E-01  4.65462683E+00 -1.54826047E+00  1.21840035E+00  3.33710433E+00
 -3.31114142E+00 -1.34868996E+00  4.98177251E+00 -4.25068690E-01 -1.95147926E+00
 -4.51957659E+00 -1.50930601E+00  1.76937938E+00 -3.30860487E+00  1.61237305E+00
  1.97435201E+00 -5.07428456E+00  6.01112698E-01 -2.11369755E+00
Force Field                                I                0
Int Atom Types                             I   N=          18
           0           0           0           0           0           0
           0           0           0           0           0           0
           0           0           0           0           0           0
MM charges                                 R   N=          18
  0.00000000E+00  0.00000000E+00  0.00000000E+00  0.00000000E+00  0.00000000E+00
  0.00000000E+00  0.00000000E+00  0.00000000E+00  0.00000000E+00  0.00000000E+00
  0.00000000E+00  0.00000000E+00  0.00000000E+00  0.00000000E+00  0.00000000E+00
  0.00000000E+00  0.00000000E+00  0.00000000E+00
Integer atomic weights                     I   N=          18
          16          14          12          12          12          12
           1           1           1           1           1           1
           1           1           1           1           1           1
Real atomic weights                        R   N=          18
  1.59949146E+01  1.40030740E+01  1.20000000E+01  1.20000000E+01  1.20000000E+01
  1.20000000E+01  1.00782504E+00  1.00782504E+00  1.00782504E+00  1.00782504E+00
  1.00782504E+00  1.00782504E+00  1.00782504E+00  1.00782504E+00  1.00782504E+00
  1.00782504E+00  1.00782504E+00  1.00782504E+00
Atom fragment info                         I   N=          18
           0           0           0           0           0           0
           0           0           0           0           0           0
           0           0           0           0           0           0
Atom residue num                           I   N=          18
           0           0           0           0           0           0
           0           0           0           0           0           0
           0           0           0           0           0           0
Nuclear spins                              I   N=          18
           0           2           0           0           0           0
           1           1           1           1           1           1
           1           1           1           1           1           1
Nuclear ZEff                               R   N=          18
 -5.60000000E+00 -4.55000000E+00 -3.60000000E+00 -3.60000000E+00 -3.60000000E+00
 -3.60000000E+00 -1.00000000E+00 -1.00000000E+00 -1.00000000E+00 -1.00000000E+00
 -1.00000000E+00 -1.00000000E+00 -1.00000000E+00 -1.00000000E+00 -1.00000000E+00
 -1.00000000E+00 -1.00000000E+00 -1.00000000E+00
Nuclear QMom                               R   N=          18
  0.00000000E+00  2.04400000E+00  0.00000000E+00  0.00000000E+00  0.00000000E+00
  0.00000000E+00  0.00000000E+00  0.00000000E+00  0.00000000E+00  0.00000000E+00
  0.00000000E+00  0.00000000E+00  0.00000000E+00  0.00000000E+00  0.00000000E+00
  0.00000000E+00  0.00000000E+00  0.00000000E+00
Nuclear GFac                               R   N=          18
  0.00000000E+00  4.03761000E-01  0.00000000E+00  0.00000000E+00  0.00000000E+00
  0.00000000E+00  2.79284600E+00  2.79284600E+00  2.79284600E+00  2.79284600E+00
  2.79284600E+00  2.79284600E+00  2.79284600E+00  2.79284600E+00  2.79284600E+00
  2.79284600E+00  2.79284600E+00  2.79284600E+00
MicOpt                                     I   N=          18
          -1          -1          -1          -1          -1          -1
          -1          -1          -1          -1          -1          -1
          -1          -1          -1          -1          -1          -1
Number of contracted shells                I               48
Number of primitive shells                 I              114
Pure/Cartesian d shells                    I                1
Pure/Cartesian f shells                    I                0
Highest angular momentum                   I                2
Largest degree of contraction              I                6
Shell types                                I   N=          48
           0          -1          -1           2           0          -1
          -1           2           0          -1          -1           2
           0          -1          -1           2           0          -1
          -1           2           0          -1          -1           2
           0           0           0           0           0           0
           0           0           0           0           0           0
           0           0           0           0           0           0
           0           0           0           0           0           0
Number of primitives per shell             I   N=          48
           6           3           1           1           6           3
           1           1           6           3           1           1
           6           3           1           1           6           3
           1           1           6           3           1           1
           3           1           3           1           3           1
           3           1           3           1           3           1
           3           1           3           1           3           1
           3           1           3           1           3           1
Shell to atom map                          I   N=          48
           1           1           1           1           2           2
           2           2           3           3           3           3
           4           4           4           4           5           5
           5           5           6           6           6           6
           7           7           8           8           9           9
          10          10          11          11          12          12
          13          13          14          14          15          15
          16          16          17          17          18          18
Primitive exponents                        R   N=         114
  5.48467166E+03  8.25234946E+02  1.88046958E+02  5.29645000E+01  1.68975704E+01
  5.79963534E+00  1.55396162E+01  3.59993359E+00  1.01376175E+00  2.70005823E-01
  8.00000000E-01  4.17351146E+03  6.27457911E+02  1.42902093E+02  4.02343293E+01
  1.28202129E+01  4.39043701E+00  1.16263619E+01  2.71627981E+00  7.72218397E-01
  2.12031498E-01  8.00000000E-01  3.04752488E+03  4.57369518E+02  1.03948685E+02
  2.92101553E+01  9.28666296E+00  3.16392696E+00  7.86827235E+00  1.88128854E+00
  5.44249258E-01  1.68714478E-01  8.00000000E-01  3.04752488E+03  4.57369518E+02
  1.03948685E+02  2.92101553E+01  9.28666296E+00  3.16392696E+00  7.86827235E+00
  1.88128854E+00  5.44249258E-01  1.68714478E-01  8.00000000E-01  3.04752488E+03
  4.57369518E+02  1.03948685E+02  2.92101553E+01  9.28666296E+00  3.16392696E+00
  7.86827235E+00  1.88128854E+00  5.44249258E-01  1.68714478E-01  8.00000000E-01
  3.04752488E+03  4.57369518E+02  1.03948685E+02  2.92101553E+01  9.28666296E+00
  3.16392696E+00  7.86827235E+00  1.88128854E+00  5.44249258E-01  1.68714478E-01
  8.00000000E-01  1.87311370E+01  2.82539436E+00  6.40121692E-01  1.61277759E-01
  1.87311370E+01  2.82539436E+00  6.40121692E-01  1.61277759E-01  1.87311370E+01
  2.82539436E+00  6.40121692E-01  1.61277759E-01  1.87311370E+01  2.82539436E+00
  6.40121692E-01  1.61277759E-01  1.87311370E+01  2.82539436E+00  6.40121692E-01
  1.61277759E-01  1.87311370E+01  2.82539436E+00  6.40121692E-01  1.61277759E-01
  1.87311370E+01  2.82539436E+00  6.40121692E-01  1.61277759E-01  1.87311370E+01
  2.82539436E+00  6.40121692E-01  1.61277759E-01  1.87311370E+01  2.82539436E+00
  6.40121692E-01  1.61277759E-01  1.87311370E+01  2.82539436E+00  6.40121692E-01
  1.61277759E-01  1.87311370E+01  2.82539436E+00  6.40121692E-01  1.61277759E-01
  1.87311370E+01  2.82539436E+00  6.40121692E-01  1.61277759E-01
Contraction coefficients                   R   N=         114
  1.83107443E-03  1.39501722E-02  6.84450781E-02  2.32714336E-01  4.70192898E-01
  3.58520853E-01 -1.10777550E-01 -1.48026263E-01  1.13076702E+00  1.00000000E+00
  1.00000000E+00  1.83477216E-03  1.39946270E-02  6.85865518E-02  2.32240873E-01
  4.69069948E-01  3.60455199E-01 -1.14961182E-01 -1.69117479E-01  1.14585195E+00
  1.00000000E+00  1.00000000E+00  1.83473713E-03  1.40373228E-02  6.88426223E-02
  2.32184443E-01  4.67941348E-01  3.62311985E-01 -1.19332420E-01 -1.60854152E-01
  1.14345644E+00  1.00000000E+00  1.00000000E+00  1.83473713E-03  1.40373228E-02
  6.88426223E-02  2.32184443E-01  4.67941348E-01  3.62311985E-01 -1.19332420E-01
 -1.60854152E-01  1.14345644E+00  1.00000000E+00  1.00000000E+00  1.83473713E-03
  1.40373228E-02  6.88426223E-02  2.32184443E-01  4.67941348E-01  3.62311985E-01
 -1.19332420E-01 -1.60854152E-01  1.14345644E+00  1.00000000E+00  1.00000000E+00
  1.83473713E-03  1.40373228E-02  6.88426223E-02  2.32184443E-01  4.67941348E-01
  3.62311985E-01 -1.19332420E-01 -1.60854152E-01  1.14345644E+00  1.00000000E+00
  1.00000000E+00  3.34946043E-02  2.34726953E-01  8.13757326E-01  1.00000000E+00
  3.34946043E-02  2.34726953E-01  8.13757326E-01  1.00000000E+00  3.34946043E-02
  2.34726953E-01  8.13757326E-01  1.00000000E+00  3.34946043E-02  2.34726953E-01
  8.13757326E-01  1.00000000E+00  3.34946043E-02  2.34726953E-01  8.13757326E-01
  1.00000000E+00  3.34946043E-02  2.34726953E-01  8.13757326E-01  1.00000000E+00
  3.34946043E-02  2.34726953E-01  8.13757326E-01  1.00000000E+00  3.34946043E-02
  2.34726953E-01  8.13757326E-01  1.00000000E+00  3.34946043E-02  2.34726953E-01
  8.13757326E-01  1.00000000E+00  3.34946043E-02  2.34726953E-01  8.13757326E-01
  1.00000000E+00  3.34946043E-02  2.34726953E-01  8.13757326E-01  1.00000000E+00
  3.34946043E-02  2.34726953E-01  8.13757326E-01  1.00000000E+00
P(S=P) Contraction coefficients            R   N=         114
  0.00000000E+00  0.00000000E+00  0.00000000E+00  0.00000000E+00  0.00000000E+00
  0.00000000E+00  7.08742682E-02  3.39752839E-01  7.27158577E-01  1.00000000E+00
  0.00000000E+00  0.00000000E+00  0.00000000E+00  0.00000000E+00  0.00000000E+00
  0.00000000E+00  0.00000000E+00  6.75797439E-02  3.23907296E-01  7.40895140E-01
  1.00000000E+00  0.00000000E+00  0.00000000E+00  0.00000000E+00  0.00000000E+00
  0.00000000E+00  0.00000000E+00  0.00000000E+00  6.89990666E-02  3.16423961E-01
  7.44308291E-01  1.00000000E+00  0.00000000E+00  0.00000000E+00  0.00000000E+00
  0.00000000E+00  0.00000000E+00  0.00000000E+00  0.00000000E+00  6.89990666E-02
  3.16423961E-01  7.44308291E-01  1.00000000E+00  0.00000000E+00  0.00000000E+00
  0.00000000E+00  0.00000000E+00  0.00000000E+00  0.00000000E+00  0.00000000E+00
  6.89990666E-02  3.16423961E-01  7.44308291E-01  1.00000000E+00  0.00000000E+00
  0.00000000E+00  0.00000000E+00  0.00000000E+00  0.00000000E+00  0.00000000E+00
  0.00000000E+00  6.89990666E-02  3.16423961E-01  7.44308291E-01  1.00000000E+00
  0.00000000E+00  0.00000000E+00  0.00000000E+00  0.00000000E+00  0.00000000E+00
  0.00000000E+00  0.00000000E+00  0.00000000E+00  0.00000000E+00  0.00000000E+00
  0.00000000E+00  0.00000000E+00  0.00000000E+00  0.00000000E+00  0.00000000E+00
  0.00000000E+00  0.00000000E+00  0.00000000E+00  0.00000000E+00  0.00000000E+00
  0.00000000E+00  0.00000000E+00  0.00000000E+00  0.00000000E+00  0.00000000E+00
  0.00000000E+00  0.00000000E+00  0.00000000E+00  0.00000000E+00  0.00000000E+00
  0.00000000E+00  0.00000000E+00  0.00000000E+00  0.00000000E+00  0.00000000E+00
  0.00000000E+00  0.00000000E+00  0.00000000E+00  0.00000000E+00  0.00000000E+00
  0.00000000E+00  0.00000000E+00  0.00000000E+00  0.00000000E+00  0.00000000E+00
  0.00000000E+00  0.00000000E+00  0.00000000E+00  0.00000000E+00
Coordinates of each shell                  R   N=         144
 -3.36012438E+00  9.10633041E-02 -1.68182461E+00 -3.36012438E+00  9.10633041E-02
 -1.68182461E+00 -3.36012438E+00  9.10633041E-02 -1.68182461E+00 -3.36012438E+00
  9.10633041E-02 -1.68182461E+00  1.33842377E+00  1.08046010E-02 -3.63341137E-01
  1.33842377E+00  1.08046010E-02 -3.63341137E-01  1.33842377E+00  1.08046010E-02
 -3.63341137E-01  1.33842377E+00  1.08046010E-02 -3.63341137E-01 -5.07463290E-01
 -1.34052189E+00  1.32805042E+00 -5.07463290E-01 -1.34052189E+00  1.32805042E+00
 -5.07463290E-01 -1.34052189E+00  1.32805042E+00 -5.07463290E-01 -1.34052189E+00
  1.32805042E+00  1.80246049E+00  2.68425406E+00  4.35782770E-01  1.80246049E+00
  2.68425406E+00  4.35782770E-01  1.80246049E+00  2.68425406E+00  4.35782770E-01
  1.80246049E+00  2.68425406E+00  4.35782770E-01  3.75827405E+00 -1.42716347E+00
 -6.32482929E-01  3.75827405E+00 -1.42716347E+00 -6.32482929E-01  3.75827405E+00
 -1.42716347E+00 -6.32482929E-01  3.75827405E+00 -1.42716347E+00 -6.32482929E-01
 -3.12101366E+00 -1.98756340E-01  9.86804630E-01 -3.12101366E+00 -1.98756340E-01
  9.86804630E-01 -3.12101366E+00 -1.98756340E-01  9.86804630E-01 -3.12101366E+00
 -1.98756340E-01  9.86804630E-01  4.30710923E-01  7.83130050E-02 -2.09133292E+00
  4.30710923E-01  7.83130050E-02 -2.09133292E+00 -5.15672980E-01 -3.31128409E+00
  7.16818104E-01 -5.15672980E-01 -3.31128409E+00  7.16818104E-01  1.78767767E-01
 -1.22238113E+00  3.27218509E+00  1.78767767E-01 -1.22238113E+00  3.27218509E+00
  2.57482556E+00  2.67193639E+00  2.34578501E+00  2.57482556E+00  2.67193639E+00
  2.34578501E+00  3.15026931E+00  3.53116621E+00 -8.70724515E-01  3.15026931E+00
  3.53116621E+00 -8.70724515E-01  2.85448516E-02  3.72152766E+00  3.68059783E-01
  2.85448516E-02  3.72152766E+00  3.68059783E-01  4.65462683E+00 -1.54826047E+00
  1.21840035E+00  4.65462683E+00 -1.54826047E+00  1.21840035E+00  3.33710433E+00
 -3.31114142E+00 -1.34868996E+00  3.33710433E+00 -3.31114142E+00 -1.34868996E+00
  4.98177251E+00 -4.25068690E-01 -1.95147926E+00  4.98177251E+00 -4.25068690E-01
 -1.95147926E+00 -4.51957659E+00 -1.50930601E+00  1.76937938E+00 -4.51957659E+00
 -1.50930601E+00  1.76937938E+00 -3.30860487E+00  1.61237305E+00  1.97435201E+00
 -3.30860487E+00  1.61237305E+00  1.97435201E+00 -5.07428456E+00  6.01112698E-01
 -2.11369755E+00 -5.07428456E+00  6.01112698E-01 -2.11369755E+00
Constraint Structure                       R   N=          54
 -3.36012438E+00  9.10633041E-02 -1.68182461E+00  1.33842377E+00  1.08046010E-02
 -3.63341137E-01 -5.07463290E-01 -1.34052189E+00  1.32805042E+00  1.80246049E+00
  2.68425406E+00  4.35782770E-01  3.75827405E+00 -1.42716347E+00 -6.32482929E-01
 -3.12101366E+00 -1.98756340E-01  9.86804630E-01  4.30710923E-01  7.83130050E-02
 -2.09133292E+00 -5.15672980E-01 -3.31128409E+00  7.16818104E-01  1.78767767E-01
 -1.22238113E+00  3.27218509E+00  2.57482556E+00  2.67193639E+00  2.34578501E+00
  3.15026931E+00  3.53116621E+00 -8.70724515E-01  2.85448516E-02  3.72152766E+00
  3.68059783E-01  4.65462683E+00 -1.54826047E+00  1.21840035E+00  3.33710433E+00
 -3.31114142E+00 -1.34868996E+00  4.98177251E+00 -4.25068690E-01 -1.95147926E+00
 -4.51957659E+00 -1.50930601E+00  1.76937938E+00 -3.30860487E+00  1.61237305E+00
  1.97435201E+00 -5.07428456E+00  6.01112698E-01 -2.11369755E+00
Num ILSW                                   I              100
ILSW                                       I   N=         100
           0           1           0           0           2           0
           0           0           0           0           0          -1
           0           0           0           0           0           0
           0           0           0           0           1           0
           1           0           0           0           0           0
           0           0      100000           0          -1           0
           0           0           0           0           0           0
           0           0           0           1           1           0
           0           0           1           0           0           0
           0           0           4          40           0           0
           0           0           0           0           0           0
           0           0           0           0           0           0
           0           0           0           0           0           0
           0           0           0           0           0           0
           0           0           0           0           0           0
           0           0           0           0           0           0
           0           0           0           0
Num RLSW                                   I               40
RLSW                                       R   N=          40
  1.00000000E+00  1.00000000E+00  1.00000000E+00  1.00000000E+00  1.00000000E+00
  0.00000000E+00  0.00000000E+00  1.00000000E+00  0.00000000E+00  0.00000000E+00
  0.00000000E+00  0.00000000E+00  1.00000000E+00  0.00000000E+00  0.00000000E+00
  0.00000000E+00  0.00000000E+00  1.00000000E+00  0.00000000E+00  0.00000000E+00
  0.00000000E+00  0.00000000E+00  1.00000000E+00  0.00000000E+00  0.00000000E+00
  0.00000000E+00  0.00000000E+00  1.00000000E+00  0.00000000E+00  0.00000000E+00
  0.00000000E+00  0.00000000E+00  0.00000000E+00  0.00000000E+00  0.00000000E+00
  0.00000000E+00  0.00000000E+00  0.00000000E+00  1.00000000E+00  1.00000000E+00
MxBond                                     I                4
NBond                                      I   N=          18
           2           4           4           4           4           4
           1           1           1           1           1           1
           1           1           1           1           1           1
IBond                                      I   N=          72
           6          18           0           0           3           4
           5           7           2           6           8           9
           2          10          11          12           2          13
          14          15           1           3          16          17
           2           0           0           0           3           0
           0           0           3           0           0           0
           4           0           0           0           4           0
           0           0           4           0           0           0
           5           0           0           0           5           0
           0           0           5           0           0           0
           6           0           0           0           6           0
           0           0           1           0           0           0
RBond                                      R   N=          72
  1.00000000E+00  1.00000000E+00  0.00000000E+00  0.00000000E+00  1.00000000E+00
  1.00000000E+00  1.00000000E+00  1.00000000E+00  1.00000000E+00  1.00000000E+00
  1.00000000E+00  1.00000000E+00  1.00000000E+00  1.00000000E+00  1.00000000E+00
  1.00000000E+00  1.00000000E+00  1.00000000E+00  1.00000000E+00  1.00000000E+00
  1.00000000E+00  1.00000000E+00  1.00000000E+00  1.00000000E+00  1.00000000E+00
  0.00000000E+00  0.00000000E+00  0.00000000E+00  1.00000000E+00  0.00000000E+00
  0.00000000E+00  0.00000000E+00  1.00000000E+00  0.00000000E+00  0.00000000E+00
  0.00000000E+00  1.00000000E+00  0.00000000E+00  0.00000000E+00  0.00000000E+00
  1.00000000E+00  0.00000000E+00  0.00000000E+00  0.00000000E+00  1.00000000E+00
  0.00000000E+00  0.00000000E+00  0.00000000E+00  1.00000000E+00  0.00000000E+00
  0.00000000E+00  0.00000000E+00  1.00000000E+00  0.00000000E+00  0.00000000E+00
  0.00000000E+00  1.00000000E+00  0.00000000E+00  0.00000000E+00  0.00000000E+00
  1.00000000E+00  0.00000000E+00  0.00000000E+00  0.00000000E+00  1.00000000E+00
  0.00000000E+00  0.00000000E+00  0.00000000E+00  1.00000000E+00  0.00000000E+00
  0.00000000E+00  0.00000000E+00
Virial Ratio                               R      2.002238684643451E+00
SCF Energy                                 R     -2.875422968071723E+02
MP2 Energy                                 R     -2.884087320137554E+02
Total Energy                               R     -2.884087320137554E+02
Post-SCF wavefunction norm                 R      1.591796158577212E+00
RMS Force                                  R      5.576267901154964E-07
RMS Density                                R      1.744126872587106E-09
External E-field                           R   N=          35
  0.00000000E+00  0.00000000E+00  0.00000000E+00  0.00000000E+00  0.00000000E+00
  0.00000000E+00  0.00000000E+00  0.00000000E+00  0.00000000E+00  0.00000000E+00
  0.00000000E+00  0.00000000E+00  0.00000000E+00  0.00000000E+00  0.00000000E+00
  0.00000000E+00  0.00000000E+00  0.00000000E+00  0.00000000E+00  0.00000000E+00
  0.00000000E+00  0.00000000E+00  0.00000000E+00  0.00000000E+00  0.00000000E+00
  0.00000000E+00  0.00000000E+00  0.00000000E+00  0.00000000E+00  0.00000000E+00
  0.00000000E+00  0.00000000E+00  0.00000000E+00  0.00000000E+00  0.00000000E+00
IOpCl                                      I                0
IROHF                                      I                0
Alpha Orbital Energies                     R   N=         114
 -2.07384514E+01 -1.58642091E+01 -1.14603695E+01 -1.14560914E+01 -1.14526890E+01
 -1.14522059E+01 -1.53785685E+00 -1.49101272E+00 -1.20944848E+00 -1.16939065E+00
 -1.09543890E+00 -1.02715050E+00 -9.21761286E-01 -8.78548859E-01 -8.54600288E-01
 -8.40080691E-01 -7.93027377E-01 -7.59760080E-01 -7.47023335E-01 -7.40168038E-01
 -7.27370907E-01 -7.18285739E-01 -7.12809555E-01 -6.73630304E-01 -6.21038788E-01
  2.64632969E-02  7.42228729E-02  8.44386962E-02  9.37680235E-02  1.04215827E-01
  1.14365805E-01  1.30049255E-01  1.35146725E-01  1.45355927E-01  1.58362646E-01
  1.68537469E-01  1.85583654E-01  1.95417744E-01  2.07272371E-01  2.12165359E-01
  2.36022886E-01  2.67272078E-01  5.03676760E-01  5.15818297E-01  5.27917433E-01
  5.38972677E-01  5.86395425E-01  6.31731869E-01  6.60441530E-01  6.86918940E-01
  7.30804396E-01  7.50221327E-01  7.88876397E-01  8.25390325E-01  8.64116661E-01
  8.79145289E-01  9.15556155E-01  9.40367261E-01  9.52628177E-01  9.61715502E-01
  9.80030711E-01  9.86101945E-01  9.89756399E-01  1.00755331E+00  1.01725802E+00
  1.03545523E+00  1.04473483E+00  1.05614410E+00  1.07206578E+00  1.09891155E+00
  1.16107033E+00  1.17535877E+00  1.26270147E+00  1.37858353E+00  1.43865569E+00
  1.47149607E+00  1.50447125E+00  1.58334865E+00  1.65732090E+00  1.75116833E+00
  1.77560502E+00  1.82636179E+00  1.88086862E+00  1.95465891E+00  1.97655782E+00
  1.99555183E+00  2.05949429E+00  2.07066954E+00  2.11184974E+00  2.17237481E+00
  2.20315004E+00  2.22703590E+00  2.25218237E+00  2.26105820E+00  2.36471291E+00
  2.37132596E+00  2.38887262E+00  2.43136810E+00  2.49624870E+00  2.54767723E+00
  2.57986517E+00  2.63166267E+00  2.66411413E+00  2.71478489E+00  2.82230497E+00
  2.88065421E+00  2.89113814E+00  3.05183030E+00  4.02505388E+00  4.22489211E+00
  4.47778014E+00  4.49095457E+00  4.55639150E+00  4.70656345E+00
Alpha MO coefficients                      R   N=       12996
  9.94625198E-01  2.11413534E-02 -9.07500306E-04  2.05287006E-04  7.96598129E-04
  4.14188567E-03  6.05104446E-04 -9.99607943E-05 -4.30077289E-04 -4.13586716E-03
 -3.96784563E-03 -4.28287352E-03  7.35760630E-05 -5.97831622E-05  4.99681742E-05
 -6.93147954E-06 -9.96574794E-06 -3.26289458E-05  1.52830663E-05  3.21056049E-05
  2.76306829E-04  1.16888191E-04 -1.15434014E-04 -2.69726603E-04 -3.66189879E-05
 -1.29886460E-05 -6.54208841E-06 -9.46676835E-06  7.56118962E-06  5.42955895E-06
  3.89988317E-06  5.29453853E-05  2.05626032E-05 -5.01848319E-06 -2.40211042E-05
  1.08317304E-04  8.19744559E-05  1.22994983E-04  2.51099630E-04 -2.15853558E-05
 -6.92759926E-06 -2.38362611E-05  2.29655956E-05 -3.52045845E-05  6.97602591E-06
 -2.93476622E-06 -2.39878935E-05 -8.12688528E-06 -1.47854003E-05  4.89975087E-06
  1.56372048E-04 -6.56467712E-05 -1.47653559E-05 -1.76389868E-05  5.41116765E-06
  2.89356070E-06 -3.39635964E-06  1.39932692E-05  7.47828884E-06 -7.09143297E-06
 -3.41908605E-06  1.24983732E-07  3.75828066E-05 -1.36106227E-05  1.91638245E-05
 -1.35209038E-04 -9.19353885E-06 -2.67610686E-05 -4.42371680E-05 -1.80419791E-05
 -9.97034387E-06 -1.22362698E-05  6.38841396E-06 -9.96835720E-06  9.76820936E-06
 -2.66481231E-05  1.95595035E-04 -2.47377262E-05  2.94946476E-05 -3.34698095E-04
  1.54386289E-04 -1.87835729E-04  1.26294184E-05 -2.98780860E-05 -5.66957981E-05
 -6.75349239E-05  7.46853472E-05 -1.09373804E-05  3.42278829E-05 -2.24976512E-05
 -3.95139891E-06 -5.09034698E-04  4.31905319E-05  4.86006746E-05 -2.37402614E-05
 -1.52263804E-04 -6.83507533E-06  1.07916841E-05 -1.39072539E-05  1.29480663E-05
  1.15435445E-05 -9.14012564E-05  1.08509683E-05  5.52267508E-05 -1.03830832E-05
  2.14721614E-05  4.87549900E-07  1.72146921E-05 -3.99169811E-05 -8.74928162E-05
 -2.94669102E-05 -6.01828041E-05  4.51432695E-04 -2.49852116E-04 -2.04374801E-06
 -2.03982848E-05 -1.63609346E-05 -1.00189783E-05 -1.90838418E-05  8.17798503E-05
 -1.76628921E-05  2.82367871E-05  1.00364372E-04 -2.64797412E-05 -2.71879469E-05
  3.08743234E-06  1.31431380E-05  8.27623464E-06  2.46739591E-06  9.95093308E-01
  2.52298379E-02 -1.03974809E-05  4.65459533E-06 -1.48121684E-05 -4.11636411E-03
 -4.35384912E-05  9.49860018E-05 -3.15727134E-04 -3.24471819E-03 -3.25997156E-03
 -3.16254508E-03 -9.31395652E-06  6.28609717E-05  8.26850962E-07 -2.13157565E-05
  5.96912300E-05  2.23204489E-04  1.59643533E-04 -1.75333895E-04  1.62738792E-03
  2.93267139E-04  2.85498232E-04 -4.03815243E-04 -3.47209526E-05 -6.35489748E-05
 -7.19464322E-05  2.19776572E-05 -1.55599687E-05 -2.12193136E-05 -8.21657706E-06
  1.31918797E-04 -5.00708152E-05 -3.10068176E-04 -7.86549218E-05  1.24447113E-03
 -6.55242321E-05 -4.14761758E-04 -1.14433505E-04 -6.29288111E-05 -2.78700026E-05
 -6.04532685E-05  1.95188044E-06  5.30773064E-06 -7.32504711E-06 -1.01928091E-05
  1.20004414E-04 -2.80366355E-04  1.66985932E-04  4.58285422E-05  1.32565882E-03
 -3.96189967E-04  2.14756064E-04  3.94752582E-05 -3.93666008E-05 -6.10241048E-05
 -5.34121930E-05 -1.62696018E-05 -1.17361547E-05  1.16089561E-05 -2.56187257E-06
  1.93415965E-05 -5.98809373E-05  3.10844469E-06  2.65081575E-05 -3.51466355E-04
 -1.13783529E-04  3.76234516E-05  6.02968211E-05 -3.81243127E-05 -1.89496395E-05
 -2.85256672E-05  8.95949258E-06 -5.79844817E-06 -1.59056898E-05  3.85532755E-04
  4.29799828E-04 -8.80734269E-05 -1.91083305E-04 -8.47756561E-05 -9.40808897E-05
 -7.72924144E-05 -1.13294857E-04 -7.20726275E-05 -1.44252871E-04 -7.90627445E-05
 -1.11377176E-04 -7.93557337E-05 -1.12948455E-04 -7.90979494E-05 -1.51205885E-04
 -7.62831615E-05 -1.45289895E-04  1.89153510E-06  7.46545359E-05  3.32431590E-05
 -5.89325190E-05  5.80678219E-06 -4.09826424E-06 -3.51647433E-05 -1.85305921E-04
 -8.89100879E-05  5.55002895E-05 -4.70714149E-05  4.20543008E-04  4.88153177E-04
 -2.58978724E-04  2.46399907E-04 -1.68127637E-05 -1.30501158E-04 -9.95666482E-05
 -9.76777532E-05  9.02832021E-05 -5.13225153E-05 -1.54571049E-04  2.61598137E-04
 -1.22626231E-04 -2.13051372E-05  1.08495640E-04  1.97904379E-03 -7.49899616E-04
 -8.39024933E-04  1.10271146E-04 -1.98901501E-04 -2.12139331E-04 -2.32722641E-04
 -1.99637742E-04  2.82615030E-04  1.99460890E-04  9.93151569E-01  2.83023039E-02
  5.56121639E-04  5.74912208E-04 -5.69545285E-04 -1.58502214E-02 -1.36496679E-04
 -9.58335153E-04  8.61618868E-04 -1.54453830E-03 -1.50091671E-03 -1.49212296E-03
 -1.59912650E-05  9.95085361E-05  9.55743121E-05 -1.17304795E-03 -4.84225720E-04
  7.91846634E-05  6.02447907E-05 -1.07873481E-04  1.86591177E-03 -7.19926778E-04
 -7.94624451E-04  7.04800541E-04 -9.87392089E-05 -5.78449261E-06 -1.24632543E-04
  8.05772369E-05 -5.85518317E-07 -2.98502052E-05 -1.13282604E-03 -3.16048318E-04