
    -----------------------------------------------------------------------
          Psi4: An Open-Source Ab Initio Electronic Structure Package
                               Psi4 1.3.2 release

                         Git: Rev {HEAD} ecbda83 


    R. M. Parrish, L. A. Burns, D. G. A. Smith, A. C. Simmonett,
    A. E. DePrince III, E. G. Hohenstein, U. Bozkaya, A. Yu. Sokolov,
    R. Di Remigio, R. M. Richard, J. F. Gonthier, A. M. James,
    H. R. McAlexander, A. Kumar, M. Saitow, X. Wang, B. P. Pritchard,
    P. Verma, H. F. Schaefer III, K. Patkowski, R. A. King, E. F. Valeev,
    F. A. Evangelista, J. M. Turney, T. D. Crawford, and C. D. Sherrill,
    J. Chem. Theory Comput. 13(7) pp 3185--3197 (2017).
    (doi: 10.1021/acs.jctc.7b00174)


                         Additional Contributions by
    P. Kraus, H. Kruse, M. H. Lechner, M. C. Schieber, R. A. Shaw,
    A. Alenaizan, R. Galvelis, Z. L. Glick, S. Lehtola, and J. P. Misiewicz

    -----------------------------------------------------------------------


    Psi4 started on: Tuesday, 03 November 2020 02:48PM

    Process ID: 63032
    Host:       node93.bme.utexas.edu
    PSIDATADIR: /home/xy3866/psi4conda/share/psi4
    Memory:     500.0 MiB
    Threads:    8
    
  ==> Input File <==

--------------------------------------------------------------------------
#psi4
#
memory 32 gb

molecule  {
-4 1
  P        2.5828670     0.0826120    -0.3559070
  P       -0.1833470    -1.1435920     0.2927960
  P       -2.7088530     0.4754690    -0.2006980
  O        1.9534540     1.6068400    -0.1842610
  O        1.2509400    -0.8782220    -0.5450080
  O        3.2679280     0.0927970    -1.6978490
  O        3.3289310    -0.2934220     0.9022790
  O       -0.9823316     0.2118844    -0.2986221
  O        0.0932830    -1.0798150     1.7822090
  O       -0.7150640    -2.4305380    -0.3003910
  O       -3.3067764    -0.2421215     1.0233953
  O       -2.7128520     2.0086770    -0.0959300
  O       -3.2113930    -0.0752120    -1.5473660
  C        1.4216660     1.9681570     1.1052990
  H        1.0169430     1.1016800     1.6278780
  H        2.2027140     2.4392170     1.7103290
  H        0.6160650     2.6819120     0.9264900
units angstrom
no_reorient  #important for SAPT in psi4, default
symmetry c1  #important for SAPT in psi4, default
}

set PROPERTIES_ORIGIN ["COM"]
properties('MP2/aug-cc-pvtz', properties = ['dipole'])
--------------------------------------------------------------------------

  Memory set to  29.802 GiB by Python driver.
    SCF Algorithm Type (re)set to DF.

*** tstart() called on node93.bme.utexas.edu
*** at Tue Nov  3 14:48:14 2020

   => Loading Basis Set <=

    Name: AUG-CC-PVTZ
    Role: ORBITAL
    Keyword: BASIS
    atoms 1-3   entry P          line   820 file /home/xy3866/psi4conda/share/psi4/basis/aug-cc-pvtz.gbs 
    atoms 4-13  entry O          line   327 file /home/xy3866/psi4conda/share/psi4/basis/aug-cc-pvtz.gbs 
    atoms 14    entry C          line   235 file /home/xy3866/psi4conda/share/psi4/basis/aug-cc-pvtz.gbs 
    atoms 15-17 entry H          line    36 file /home/xy3866/psi4conda/share/psi4/basis/aug-cc-pvtz.gbs 


         ---------------------------------------------------------
                                   SCF
               by Justin Turney, Rob Parrish, Andy Simmonett
                          and Daniel G. A. Smith
                              RHF Reference
                        8 Threads,  30517 MiB Core
         ---------------------------------------------------------

  ==> Geometry <==

    Molecular point group: c1
    Full point group: C1

    Geometry (in Angstrom), charge = -4, multiplicity = 1:

       Center              X                  Y                   Z               Mass       
    ------------   -----------------  -----------------  -----------------  -----------------
         P            2.602248987617     0.103167590603    -0.333549971308    30.973761998420
         P           -0.163965012383    -1.123036409397     0.315153028692    30.973761998420
         P           -2.689471012383     0.496024590603    -0.178340971308    30.973761998420
         O            1.972835987617     1.627395590603    -0.161903971308    15.994914619570
         O            1.270321987617    -0.857666409397    -0.522650971308    15.994914619570
         O            3.287309987617     0.113352590603    -1.675491971308    15.994914619570
         O            3.348312987617    -0.272866409397     0.924636028692    15.994914619570
         O           -0.962949612383     0.232439990603    -0.276265071308    15.994914619570
         O            0.112664987617    -1.059259409397     1.804566028692    15.994914619570
         O           -0.695682012383    -2.409982409397    -0.278033971308    15.994914619570
         O           -3.287394412383    -0.221565909397     1.045752328692    15.994914619570
         O           -2.693470012383     2.029232590603    -0.073572971308    15.994914619570
         O           -3.192011012383    -0.054656409397    -1.525008971308    15.994914619570
         C            1.441047987617     1.988712590603     1.127656028692    12.000000000000
         H            1.036324987617     1.122235590603     1.650235028692     1.007825032230
         H            2.222095987617     2.459772590603     1.732686028692     1.007825032230
         H            0.635446987617     2.702467590603     0.948847028692     1.007825032230

  Running in c1 symmetry.

  Rotational constants: A =      0.03092  B =      0.01065  C =      0.00977 [cm^-1]
  Rotational constants: A =    927.09112  B =    319.34216  C =    293.04083 [MHz]
  Nuclear repulsion = 1459.608289373820980

  Charge       = -4
  Multiplicity = 1
  Electrons    = 138
  Nalpha       = 69
  Nbeta        = 69

  ==> Algorithm <==

  SCF Algorithm Type is DF.
  DIIS enabled.
  MOM disabled.
  Fractional occupation disabled.
  Guess Type is SAD.
  Energy threshold   = 1.00e-10
  Density threshold  = 1.00e-10
  Integral threshold = 0.00e+00

  ==> Primary Basis <==

  Basis Set: AUG-CC-PVTZ
    Blend: AUG-CC-PVTZ
    Number of shells: 229
    Number of basis function: 725
    Number of Cartesian functions: 857
    Spherical Harmonics?: true
    Max angular momentum: 3

   => Loading Basis Set <=

    Name: (AUG-CC-PVTZ AUX)
    Role: JKFIT
    Keyword: DF_BASIS_SCF
    atoms 1-3   entry P          line   644 file /home/xy3866/psi4conda/share/psi4/basis/aug-cc-pvtz-jkfit.gbs 
    atoms 4-13  entry O          line   286 file /home/xy3866/psi4conda/share/psi4/basis/aug-cc-pvtz-jkfit.gbs 
    atoms 14    entry C          line   162 file /home/xy3866/psi4conda/share/psi4/basis/aug-cc-pvtz-jkfit.gbs 
    atoms 15-17 entry H          line    70 file /home/xy3866/psi4conda/share/psi4/basis/aug-cc-pvtz-jkfit.gbs 

  ==> Pre-Iterations <==

   -------------------------------------------------------
    Irrep   Nso     Nmo     Nalpha   Nbeta   Ndocc  Nsocc
   -------------------------------------------------------
     A        725     725       0       0       0       0
   -------------------------------------------------------
    Total     725     725      69      69      69       0
   -------------------------------------------------------

  ==> Integral Setup <==

  DFHelper Memory: AOs need 6.150 GiB; user supplied 22.352 GiB. Using in-core AOs.

  ==> MemDFJK: Density-Fitted J/K Matrices <==

    J tasked:                   Yes
    K tasked:                   Yes
    wK tasked:                   No
    OpenMP threads:               8
    Memory [MiB]:             22888
    Algorithm:                 Disk
    Schwarz Cutoff:           1E-12
    Mask sparsity (%):      11.0664
    Fitting Condition:        1E-10

   => Auxiliary Basis Set <=

  Basis Set: (AUG-CC-PVTZ AUX)
    Blend: AUG-CC-PVTZ-JKFIT
    Number of shells: 498
    Number of basis function: 1720
    Number of Cartesian functions: 2146
    Spherical Harmonics?: true
    Max angular momentum: 4

  Minimum eigenvalue in the overlap matrix is 1.4842822334E-05.
  Using Symmetric Orthogonalization.

  SCF Guess: Superposition of Atomic Densities via on-the-fly atomic UHF.

  ==> Iterations <==

                           Total Energy        Delta E     RMS |[F,P]|

   @DF-RHF iter SAD: -1808.41847671635105   -1.80842e+03   0.00000e+00 
   @DF-RHF iter   1: -1809.92173992924495   -1.50326e+00   1.94884e-03 DIIS
   @DF-RHF iter   2: -1809.58668934944603    3.35051e-01   1.86138e-03 DIIS
   @DF-RHF iter   3: -1810.58891938641523   -1.00223e+00   6.02641e-04 DIIS
   @DF-RHF iter   4: -1810.66251718545664   -7.35978e-02   2.24014e-04 DIIS
   @DF-RHF iter   5: -1810.67859556772396   -1.60784e-02   7.11380e-05 DIIS
   @DF-RHF iter   6: -1810.68046340742353   -1.86784e-03   2.40071e-05 DIIS
   @DF-RHF iter   7: -1810.68075469297719   -2.91286e-04   8.13568e-06 DIIS
   @DF-RHF iter   8: -1810.68078999357476   -3.53006e-05   3.52187e-06 DIIS
   @DF-RHF iter   9: -1810.68079478948221   -4.79591e-06   1.10759e-06 DIIS
   @DF-RHF iter  10: -1810.68079543426188   -6.44780e-07   3.08622e-07 DIIS
   @DF-RHF iter  11: -1810.68079548271908   -4.84572e-08   1.11908e-07 DIIS
   @DF-RHF iter  12: -1810.68079548831201   -5.59294e-09   3.35595e-08 DIIS
   @DF-RHF iter  13: -1810.68079548895184   -6.39830e-10   9.19488e-09 DIIS
   @DF-RHF iter  14: -1810.68079548900687   -5.50244e-11   3.70579e-09 DIIS
   @DF-RHF iter  15: -1810.68079548901915   -1.22782e-11   1.47412e-09 DIIS
   @DF-RHF iter  16: -1810.68079548902506   -5.91172e-12   4.51302e-10 DIIS
   @DF-RHF iter  17: -1810.68079548902551   -4.54747e-13   1.66818e-10 DIIS
   @DF-RHF iter  18: -1810.68079548901915    6.36646e-12   6.49424e-11 DIIS
  Energy and wave function converged.


  ==> Post-Iterations <==

    Orbital Energies [Eh]
    ---------------------

    Doubly Occupied:                                                      

       1A    -79.574353     2A    -79.537102     3A    -79.475433  
       4A    -20.086633     5A    -20.041540     6A    -20.004734  
       7A    -20.003869     8A    -19.998375     9A    -19.960759  
      10A    -19.952733    11A    -19.919673    12A    -19.917070  
      13A    -19.912200    14A    -10.812897    15A     -7.088175  
      16A     -7.049223    17A     -6.989187    18A     -4.987118  
      19A     -4.986190    20A     -4.985356    21A     -4.948560  
      22A     -4.946859    23A     -4.946199    24A     -4.888509  
      25A     -4.886521    26A     -4.886349    27A     -0.903228  
      28A     -0.845897    29A     -0.803672    30A     -0.775842  
      31A     -0.759273    32A     -0.746604    33A     -0.710863  
      34A     -0.706759    35A     -0.659376    36A     -0.655046  
      37A     -0.467936    38A     -0.295414    39A     -0.232724  
      40A     -0.179825    41A     -0.162530    42A     -0.149161  
      43A     -0.128771    44A     -0.102353    45A     -0.084635  
      46A     -0.065423    47A     -0.052190    48A     -0.044494  
      49A     -0.030331    50A     -0.015801    51A     -0.007530  
      52A     -0.000061    53A      0.008589    54A      0.013299  
      55A      0.020823    56A      0.036953    57A      0.046773  
      58A      0.051563    59A      0.062676    60A      0.068194  
      61A      0.086895    62A      0.097881    63A      0.105777  
      64A      0.107759    65A      0.110339    66A      0.119385  
      67A      0.146856    68A      0.154902    69A      0.176190  

    Virtual:                                                              

      70A      0.318703    71A      0.364288    72A      0.378352  
      73A      0.394473    74A      0.421164    75A      0.426805  
      76A      0.428564    77A      0.436172    78A      0.455450  
      79A      0.459820    80A      0.463621    81A      0.466275  
      82A      0.476055    83A      0.495857    84A      0.510081  
      85A      0.523297    86A      0.546012    87A      0.556985  
      88A      0.566565    89A      0.574208    90A      0.582585  
      91A      0.585721    92A      0.588840    93A      0.597389  
      94A      0.613722    95A      0.619599    96A      0.624343  
      97A      0.633889    98A      0.639055    99A      0.640861  
     100A      0.650150   101A      0.657590   102A      0.661075  
     103A      0.665557   104A      0.673382   105A      0.682140  
     106A      0.686161   107A      0.688862   108A      0.690615  
     109A      0.696012   110A      0.698146   111A      0.703596  
     112A      0.708130   113A      0.713682   114A      0.720535  
     115A      0.725289   116A      0.738830   117A      0.744661  
     118A      0.749865   119A      0.758433   120A      0.765878  
     121A      0.770581   122A      0.782617   123A      0.787830  
     124A      0.794875   125A      0.804556   126A      0.817420  
     127A      0.819557   128A      0.821165   129A      0.828612  
     130A      0.834501   131A      0.837116   132A      0.842742  
     133A      0.853649   134A      0.863419   135A      0.867111  
     136A      0.872761   137A      0.875855   138A      0.889512  
     139A      0.894137   140A      0.895961   141A      0.897647  
     142A      0.902915   143A      0.914632   144A      0.916748  
     145A      0.925173   146A      0.926292   147A      0.940366  
     148A      0.941501   149A      0.951524   150A      0.952768  
     151A      0.956666   152A      0.962969   153A      0.969565  
     154A      0.974361   155A      0.979096   156A      0.982217  
     157A      0.986326   158A      0.991480   159A      0.995202  
     160A      1.007973   161A      1.009027   162A      1.017333  
     163A      1.020513   164A      1.027139   165A      1.033697  
     166A      1.035148   167A      1.042252   168A      1.052083  
     169A      1.063389   170A      1.066816   171A      1.081117  
     172A      1.107656   173A      1.112306   174A      1.128314  
     175A      1.145395   176A      1.153920   177A      1.167219  
     178A      1.178230   179A      1.185159   180A      1.187390  
     181A      1.192832   182A      1.203907   183A      1.216776  
     184A      1.217873   185A      1.226319   186A      1.237035  
     187A      1.246714   188A      1.248062   189A      1.255883  
     190A      1.266128   191A      1.269921   192A      1.286703  
     193A      1.292488   194A      1.297116   195A      1.304820  
     196A      1.314903   197A      1.321484   198A      1.327437  
     199A      1.335154   200A      1.341672   201A      1.347355  
     202A      1.350561   203A      1.354603   204A      1.356923  
     205A      1.368380   206A      1.373366   207A      1.377202  
     208A      1.378515   209A      1.385497   210A      1.395609  
     211A      1.401191   212A      1.403256   213A      1.413444  
     214A      1.416602   215A      1.419118   216A      1.426232  
     217A      1.434091   218A      1.440096   219A      1.444740  
     220A      1.450752   221A      1.454024   222A      1.461571  
     223A      1.467079   224A      1.472675   225A      1.477686  
     226A      1.480020   227A      1.488364   228A      1.488832  
     229A      1.497519   230A      1.504863   231A      1.509250  
     232A      1.515439   233A      1.520368   234A      1.523731  
     235A      1.528379   236A      1.533009   237A      1.540760  
     238A      1.548367   239A      1.553632   240A      1.556420  
     241A      1.564282   242A      1.569958   243A      1.575866  
     244A      1.587213   245A      1.588206   246A      1.594264  
     247A      1.603029   248A      1.605980   249A      1.619670  
     250A      1.624051   251A      1.628367   252A      1.634125  
     253A      1.646306   254A      1.649365   255A      1.659233  
     256A      1.666889   257A      1.668707   258A      1.676245  
     259A      1.684195   260A      1.688751   261A      1.696019  
     262A      1.702198   263A      1.707597   264A      1.718816  
     265A      1.724230   266A      1.730310   267A      1.733990  
     268A      1.743333   269A      1.754794   270A      1.759525  
     271A      1.768527   272A      1.774961   273A      1.780998  
     274A      1.793583   275A      1.808185   276A      1.814904  
     277A      1.820216   278A      1.826468   279A      1.839846  
     280A      1.842437   281A      1.853216   282A      1.860867  
     283A      1.875694   284A      1.893196   285A      1.895490  
     286A      1.901120   287A      1.917718   288A      1.928557  
     289A      1.933745   290A      1.936076   291A      1.951343  
     292A      1.959297   293A      1.971980   294A      1.975328  
     295A      1.989091   296A      1.991867   297A      2.022237  
     298A      2.028589   299A      2.037698   300A      2.040539  
     301A      2.050401   302A      2.055567   303A      2.065576  
     304A      2.081926   305A      2.083778   306A      2.095365  
     307A      2.103917   308A      2.112572   309A      2.123487  
     310A      2.129520   311A      2.142266   312A      2.144199  
     313A      2.157785   314A      2.162760   315A      2.170093  
     316A      2.175706   317A      2.196059   318A      2.219360  
     319A      2.221668   320A      2.234778   321A      2.243316  
     322A      2.252472   323A      2.270325   324A      2.285609  
     325A      2.296106   326A      2.303204   327A      2.319328  
     328A      2.323503   329A      2.337229   330A      2.350439  
     331A      2.367809   332A      2.375332   333A      2.389881  
     334A      2.414030   335A      2.420747   336A      2.440906  
     337A      2.456768   338A      2.461832   339A      2.476956  
     340A      2.480646   341A      2.484695   342A      2.492373  
     343A      2.500703   344A      2.505190   345A      2.516802  
     346A      2.529524   347A      2.533582   348A      2.537933  
     349A      2.541163   350A      2.555156   351A      2.560367  
     352A      2.570227   353A      2.577657   354A      2.590285  
     355A      2.597318   356A      2.605795   357A      2.619327  
     358A      2.626897   359A      2.631764   360A      2.635196  
     361A      2.635989   362A      2.644252   363A      2.647757  
     364A      2.663068   365A      2.671839   366A      2.686678  
     367A      2.693373   368A      2.711218   369A      2.718293  
     370A      2.735719   371A      2.743352   372A      2.746124  
     373A      2.756213   374A      2.763725   375A      2.767440  
     376A      2.776996   377A      2.786988   378A      2.787746  
     379A      2.792787   380A      2.802855   381A      2.809942  
     382A      2.813960   383A      2.825626   384A      2.836691  
     385A      2.845048   386A      2.851716   387A      2.856759  
     388A      2.874128   389A      2.879753   390A      2.885177  
     391A      2.891487   392A      2.898068   393A      2.910419  
     394A      2.917795   395A      2.929740   396A      2.939809  
     397A      2.948403   398A      2.954766   399A      2.963639  
     400A      2.974456   401A      2.979198   402A      2.983259  
     403A      2.989687   404A      2.997349   405A      3.002563  
     406A      3.011404   407A      3.018633   408A      3.031725  
     409A      3.034528   410A      3.039044   411A      3.057046  
     412A      3.062091   413A      3.067442   414A      3.078566  
     415A      3.084236   416A      3.087890   417A      3.094535  
     418A      3.104452   419A      3.112592   420A      3.120984  
     421A      3.126377   422A      3.130247   423A      3.142347  
     424A      3.148782   425A      3.153794   426A      3.158148  
     427A      3.160202   428A      3.176997   429A      3.188974  
     430A      3.193620   431A      3.200126   432A      3.203242  
     433A      3.207339   434A      3.218096   435A      3.227535  
     436A      3.233798   437A      3.239422   438A      3.249698  
     439A      3.262978   440A      3.266309   441A      3.284574  
     442A      3.292365   443A      3.297908   444A      3.303967  
     445A      3.308990   446A      3.322238   447A      3.336236  
     448A      3.352604   449A      3.359517   450A      3.368267  
     451A      3.374761   452A      3.389186   453A      3.398108  
     454A      3.436951   455A      3.440184   456A      3.451731  
     457A      3.466253   458A      3.476877   459A      3.485098  
     460A      3.492142   461A      3.509884   462A      3.519410  
     463A      3.529980   464A      3.535495   465A      3.550095  
     466A      3.582693   467A      3.588317   468A      3.606573  
     469A      3.612411   470A      3.631828   471A      3.642041  
     472A      3.653905   473A      3.665468   474A      3.689946  
     475A      3.707351   476A      3.709524   477A      3.758843  
     478A      3.783252   479A      3.792875   480A      3.812655  
     481A      3.822027   482A      3.828081   483A      3.834951  
     484A      3.847769   485A      3.859793   486A      3.876148  
     487A      3.877977   488A      3.892080   489A      3.905158  
     490A      3.917663   491A      3.924328   492A      3.933583  
     493A      3.951248   494A      3.966526   495A      3.972408  
     496A      3.982589   497A      3.997661   498A      4.015726  
     499A      4.023390   500A      4.050651   501A      4.057433  
     502A      4.084025   503A      4.097033   504A      4.105586  
     505A      4.114243   506A      4.143295   507A      4.161226  
     508A      4.181865   509A      4.203133   510A      4.212211  
     511A      4.222189   512A      4.231591   513A      4.248372  
     514A      4.269971   515A      4.305578   516A      4.320201  
     517A      4.330589   518A      4.343587   519A      4.358873  
     520A      4.365405   521A      4.381519   522A      4.395782  
     523A      4.420477   524A      4.434626   525A      4.455505  
     526A      4.465897   527A      4.486106   528A      4.520973  
     529A      4.543302   530A      4.606473   531A      4.618553  
     532A      4.634776   533A      4.659935   534A      4.700666  
     535A      4.752912   536A      4.788208   537A      4.822406  
     538A      4.839270   539A      4.906925   540A      4.967010  
     541A      5.088064   542A      5.105738   543A      5.145093  
     544A      5.194016   545A      5.205347   546A      5.233594  
     547A      5.264023   548A      5.292846   549A      5.319466  
     550A      5.339255   551A      5.350860   552A      5.376850  
     553A      5.383151   554A      5.387931   555A      5.392599  
     556A      5.415470   557A      5.423608   558A      5.473979  
     559A      5.490852   560A      5.516855   561A      5.520367  
     562A      5.545414   563A      5.578824   564A      5.608785  
     565A      5.616193   566A      5.639652   567A      5.660073  
     568A      5.687506   569A      5.740127   570A      5.818885  
     571A      5.849904   572A      5.885188   573A      5.960941  
     574A      6.035360   575A      6.094826   576A      6.123053  
     577A      6.143696   578A      6.173397   579A      6.183920  
     580A      6.199832   581A      6.208735   582A      6.217374  
     583A      6.235405   584A      6.273004   585A      6.297352  
     586A      6.495548   587A      6.579503   588A      6.643878  
     589A      6.834679   590A      7.159016   591A      7.179131  
     592A      7.187824   593A      7.208453   594A      7.219939  
     595A      7.224421   596A      7.239045   597A      7.247458  
     598A      7.255621   599A      7.261276   600A      7.263751  
     601A      7.272254   602A      7.280755   603A      7.286676  
     604A      7.294573   605A      7.304086   606A      7.311226  
     607A      7.316432   608A      7.328706   609A      7.336327  
     610A      7.351824   611A      7.364817   612A      7.371122  
     613A      7.380564   614A      7.382824   615A      7.391848  
     616A      7.394706   617A      7.399707   618A      7.411987  
     619A      7.421348   620A      7.422438   621A      7.426980  
     622A      7.433264   623A      7.438082   624A      7.443211  
     625A      7.447825   626A      7.454098   627A      7.462041  
     628A      7.466921   629A      7.474404   630A      7.477181  
     631A      7.480723   632A      7.491192   633A      7.498321  
     634A      7.503062   635A      7.504150   636A      7.509314  
     637A      7.519137   638A      7.521289   639A      7.537628  
     640A      7.540640   641A      7.549165   642A      7.559556  
     643A      7.564052   644A      7.569528   645A      7.577605  
     646A      7.584471   647A      7.595338   648A      7.599790  
     649A      7.611782   650A      7.621099   651A      7.641313  
     652A      7.655376   653A      7.664337   654A      7.679449  
     655A      7.708566   656A      7.730212   657A      7.756358  
     658A      7.772205   659A      7.789897   660A      7.798091  
     661A      7.809561   662A      7.813769   663A      7.818806  
     664A      7.827182   665A      7.841246   666A      7.844075  
     667A      7.849316   668A      7.859542   669A      7.863944  
     670A      7.875799   671A      7.886811   672A      7.890552  
     673A      7.899451   674A      7.920215   675A      7.922338  
     676A      7.927768   677A      7.944464   678A      7.968243  
     679A      7.974235   680A      7.990698   681A      8.005164  
     682A      8.030934   683A      8.041957   684A      8.050541  
     685A      8.096260   686A      8.137004   687A      8.142036  
     688A      8.144519   689A      8.153419   690A      8.165932  
     691A      8.199449   692A      8.202894   693A      8.213562  
     694A      8.230798   695A      8.236174   696A      8.240077  
     697A      8.240573   698A      8.253561   699A      8.264236  
     700A      8.273604   701A      8.323696   702A      8.324589  
     703A      8.332994   704A      8.352826   705A      8.361157  
     706A      8.398556   707A      8.444481   708A      8.462587  
     709A      8.473945   710A      8.565519   711A      8.624282  
     712A     10.602858   713A     11.121414   714A     11.406110  
     715A     12.687604   716A     12.773651   717A     12.803569  
     718A     13.071313   719A     13.295054   720A     13.677927  
     721A     14.108962   722A     14.783001   723A     15.402662  
     724A     15.586950   725A     18.786478  

    Final Occupation by Irrep:
              A 
    DOCC [    69 ]

  @DF-RHF Final Energy: -1810.68079548901915

   => Energetics <=

    Nuclear Repulsion Energy =           1459.6082893738209805
    One-Electron Energy =               -5494.6651600246714224
    Two-Electron Energy =                2224.3760751618310678
    Total Energy =                      -1810.6807954890191468

Computation Completed

*** tstop() called on node93.bme.utexas.edu at Tue Nov  3 14:50:23 2020
Module time:
	user time   =     528.67 seconds =       8.81 minutes
	system time =      49.35 seconds =       0.82 minutes
	total time  =        129 seconds =       2.15 minutes
Total time:
	user time   =     528.67 seconds =       8.81 minutes
	system time =      49.35 seconds =       0.82 minutes
	total time  =        129 seconds =       2.15 minutes
   => Loading Basis Set <=

    Name: (AUG-CC-PVTZ AUX)
    Role: RIFIT
    Keyword: DF_BASIS_MP2
    atoms 1-3   entry P          line   590 file /home/xy3866/psi4conda/share/psi4/basis/aug-cc-pvtz-ri.gbs 
    atoms 4-13  entry O          line   264 file /home/xy3866/psi4conda/share/psi4/basis/aug-cc-pvtz-ri.gbs 
    atoms 14    entry C          line   148 file /home/xy3866/psi4conda/share/psi4/basis/aug-cc-pvtz-ri.gbs 
    atoms 15-17 entry H          line    30 file /home/xy3866/psi4conda/share/psi4/basis/aug-cc-pvtz-ri.gbs 


*** tstart() called on node93.bme.utexas.edu
*** at Tue Nov  3 14:50:23 2020


  //>>>>>>>>>>>>>>>>>>>>>>>>>>>>>>>>>>>//
  //               DFMP2               //
  //<<<<<<<<<<<<<<<<<<<<<<<<<<<<<<<<<<<//

	 --------------------------------------------------------
	                          DF-MP2                         
	      2nd-Order Density-Fitted Moller-Plesset Theory     
	              RMP2 Wavefunction,   8 Threads             
	                                                         
	        Rob Parrish, Justin Turney, Andy Simmonett,      
	           Ed Hohenstein, and C. David Sherrill          
	 --------------------------------------------------------

   => Auxiliary Basis Set <=

  Basis Set: (AUG-CC-PVTZ AUX)
    Blend: AUG-CC-PVTZ-RI
    Number of shells: 461
    Number of basis function: 1745
    Number of Cartesian functions: 2234
    Spherical Harmonics?: true
    Max angular momentum: 4

	 --------------------------------------------------------
	                 NBF =   725, NAUX =  1745
	 --------------------------------------------------------
	   CLASS    FOCC     OCC    AOCC    AVIR     VIR    FVIR
	   PAIRS       0      69      69     656     656       0
	 --------------------------------------------------------

  DFHelper Memory: AOs need 6.150 GiB; user supplied 22.352 GiB. Using in-core AOs.


         ------------------------------------------------------------
                                     CPHF                           
                                  Rob Parrish                       
         ------------------------------------------------------------

  ==> Geometry <==

    Molecular point group: c1
    Full point group: C1

    Geometry (in Angstrom), charge = -4, multiplicity = 1:

       Center              X                  Y                   Z               Mass       
    ------------   -----------------  -----------------  -----------------  -----------------
         P            2.602248987617     0.103167590603    -0.333549971308    30.973761998420
         P           -0.163965012383    -1.123036409397     0.315153028692    30.973761998420
         P           -2.689471012383     0.496024590603    -0.178340971308    30.973761998420
         O            1.972835987617     1.627395590603    -0.161903971308    15.994914619570
         O            1.270321987617    -0.857666409397    -0.522650971308    15.994914619570
         O            3.287309987617     0.113352590603    -1.675491971308    15.994914619570
         O            3.348312987617    -0.272866409397     0.924636028692    15.994914619570
         O           -0.962949612383     0.232439990603    -0.276265071308    15.994914619570
         O            0.112664987617    -1.059259409397     1.804566028692    15.994914619570
         O           -0.695682012383    -2.409982409397    -0.278033971308    15.994914619570
         O           -3.287394412383    -0.221565909397     1.045752328692    15.994914619570
         O           -2.693470012383     2.029232590603    -0.073572971308    15.994914619570
         O           -3.192011012383    -0.054656409397    -1.525008971308    15.994914619570
         C            1.441047987617     1.988712590603     1.127656028692    12.000000000000
         H            1.036324987617     1.122235590603     1.650235028692     1.007825032230
         H            2.222095987617     2.459772590603     1.732686028692     1.007825032230
         H            0.635446987617     2.702467590603     0.948847028692     1.007825032230

  Nuclear repulsion = 1459.608289373820980
  Reference energy  = -1810.680795489019147

  ==> Basis Set <==

  Basis Set: AUG-CC-PVTZ
    Blend: AUG-CC-PVTZ
    Number of shells: 229
    Number of basis function: 725
    Number of Cartesian functions: 857
    Spherical Harmonics?: true
    Max angular momentum: 3

  ==> CGRSolver (by Rob Parrish) <==

   Number of roots    =         1
   Preconditioning    =    JACOBI
   Convergence cutoff =     1E-06
   Maximum iterations =       100

  ==> CPHFRHamiltonian (by Rob Parrish) <== 

  ==> MemDFJK: Density-Fitted J/K Matrices <==

    J tasked:                   Yes
    K tasked:                   Yes
    wK tasked:                   No
    OpenMP threads:               8
    Memory [MiB]:             22888
    Algorithm:                 Disk
    Schwarz Cutoff:           1E-12
    Mask sparsity (%):      11.0664
    Fitting Condition:        1E-10

   => Auxiliary Basis Set <=

  Basis Set: (AUG-CC-PVTZ AUX)
    Blend: AUG-CC-PVTZ-JKFIT
    Number of shells: 498
    Number of basis function: 1720
    Number of Cartesian functions: 2146
    Spherical Harmonics?: true
    Max angular momentum: 4

  ==> CPHF Iterations <==

  => Iterations <=

             Iter  Converged  Remaining    Residual
  CGR           1          0          1   8.178E-02
  CGR           2          0          1   1.873E-02
  CGR           3          0          1   7.103E-03
  CGR           4          0          1   2.351E-03
  CGR           5          0          1   8.447E-04
  CGR           6          0          1   2.284E-04
  CGR           7          0          1   6.807E-05
  CGR           8          0          1   2.869E-05
  CGR           9          0          1   8.993E-06
  CGR          10          0          1   3.058E-06
  CGR          11          0          1   1.053E-06
  CGR          12          1          0   4.617E-07

    CGRSolver converged.

	-----------------------------------------------------------
	 ==================> DF-MP2 Energies <==================== 
	-----------------------------------------------------------
	 Reference Energy          =   -1810.6807954890191468 [Eh]
	 Singles Energy            =      -0.0000000000000000 [Eh]
	 Same-Spin Energy          =      -0.9139989820300707 [Eh]
	 Opposite-Spin Energy      =      -2.5284850991766166 [Eh]
	 Correlation Energy        =      -3.4424840812066870 [Eh]
	 Total Energy              =   -1814.1232795702258045 [Eh]
	-----------------------------------------------------------
	 ================> DF-SCS-MP2 Energies <================== 
	-----------------------------------------------------------
	 SCS Same-Spin Scale       =       0.3333333333333333 [-]
	 SCS Opposite-Spin Scale   =       1.2000000000000000 [-]
	 SCS Same-Spin Energy      =      -0.3046663273433569 [Eh]
	 SCS Opposite-Spin Energy  =      -3.0341821190119398 [Eh]
	 SCS Correlation Energy    =      -3.3388484463552968 [Eh]
	 SCS Total Energy          =   -1814.0196439353744609 [Eh]
	-----------------------------------------------------------



Properties will be evaluated at   0.000000,  -0.000000,  -0.000000 [a0]

Properties computed using the MP2 density matrix

  Nuclear Dipole Moment: [e a0]
     X:     3.8775      Y:     6.3693      Z:     4.2384

  Electronic Dipole Moment: [e a0]
     X:    -0.0380      Y:    -5.5946      Z:    -3.5124

  Dipole Moment: [e a0]
     X:     3.8395      Y:     0.7747      Z:     0.7259     Total:     3.9836

  Dipole Moment: [D]
     X:     9.7590      Y:     1.9690      Z:     1.8452     Total:    10.1252


*** tstop() called on node93.bme.utexas.edu at Tue Nov  3 14:56:48 2020
Module time:
	user time   =    2337.07 seconds =      38.95 minutes
	system time =      78.77 seconds =       1.31 minutes
	total time  =        385 seconds =       6.42 minutes
Total time:
	user time   =    2867.00 seconds =      47.78 minutes
	system time =     128.16 seconds =       2.14 minutes
	total time  =        514 seconds =       8.57 minutes

    Psi4 stopped on: Tuesday, 03 November 2020 02:56PM
    Psi4 wall time for execution: 0:08:34.62

*** Psi4 exiting successfully. Buy a developer a beer!
