
    -----------------------------------------------------------------------
          Psi4: An Open-Source Ab Initio Electronic Structure Package
                               Psi4 1.3.2 release

                         Git: Rev {HEAD} ecbda83 


    R. M. Parrish, L. A. Burns, D. G. A. Smith, A. C. Simmonett,
    A. E. DePrince III, E. G. Hohenstein, U. Bozkaya, A. Yu. Sokolov,
    R. Di Remigio, R. M. Richard, J. F. Gonthier, A. M. James,
    H. R. McAlexander, A. Kumar, M. Saitow, X. Wang, B. P. Pritchard,
    P. Verma, H. F. Schaefer III, K. Patkowski, R. A. King, E. F. Valeev,
    F. A. Evangelista, J. M. Turney, T. D. Crawford, and C. D. Sherrill,
    J. Chem. Theory Comput. 13(7) pp 3185--3197 (2017).
    (doi: 10.1021/acs.jctc.7b00174)


                         Additional Contributions by
    P. Kraus, H. Kruse, M. H. Lechner, M. C. Schieber, R. A. Shaw,
    A. Alenaizan, R. Galvelis, Z. L. Glick, S. Lehtola, and J. P. Misiewicz

    -----------------------------------------------------------------------


    Psi4 started on: Tuesday, 03 November 2020 12:46AM

    Process ID: 108379
    Host:       node93.bme.utexas.edu
    PSIDATADIR: /home/xy3866/psi4conda/share/psi4
    Memory:     500.0 MiB
    Threads:    8
    
  ==> Input File <==

--------------------------------------------------------------------------
#psi4
#
memory 32 gb

molecule  {
-4 1
  P        2.5828670     0.0826120    -0.3559070
  P       -0.1833470    -1.1435920     0.2927960
  P       -2.7088530     0.4754690    -0.2006980
  O        1.9863400     1.6267133    -0.2620948
  O        1.2509400    -0.8782220    -0.5450080
  O        3.2455972     0.1679729    -1.7063598
  O        3.3289310    -0.2934220     0.9022790
  O       -0.9881700     0.1612780    -0.2225170
  O        0.0932830    -1.0798150     1.7822090
  O       -0.7150640    -2.4305380    -0.3003910
  O       -3.2327710    -0.2685190     1.0414150
  O       -2.7128520     2.0086770    -0.0959300
  O       -3.2113930    -0.0752120    -1.5473660
  C        1.4216660     1.9681570     1.1052990
  H        1.0169430     1.1016800     1.6278780
  H        2.2027140     2.4392170     1.7103290
  H        0.6160650     2.6819120     0.9264900
units angstrom
no_reorient  #important for SAPT in psi4, default
symmetry c1  #important for SAPT in psi4, default
}

set PROPERTIES_ORIGIN ["COM"]
properties('MP2/aug-cc-pvtz', properties = ['dipole'])
--------------------------------------------------------------------------

  Memory set to  29.802 GiB by Python driver.
    SCF Algorithm Type (re)set to DF.

*** tstart() called on node93.bme.utexas.edu
*** at Tue Nov  3 00:46:24 2020

   => Loading Basis Set <=

    Name: AUG-CC-PVTZ
    Role: ORBITAL
    Keyword: BASIS
    atoms 1-3   entry P          line   820 file /home/xy3866/psi4conda/share/psi4/basis/aug-cc-pvtz.gbs 
    atoms 4-13  entry O          line   327 file /home/xy3866/psi4conda/share/psi4/basis/aug-cc-pvtz.gbs 
    atoms 14    entry C          line   235 file /home/xy3866/psi4conda/share/psi4/basis/aug-cc-pvtz.gbs 
    atoms 15-17 entry H          line    36 file /home/xy3866/psi4conda/share/psi4/basis/aug-cc-pvtz.gbs 


         ---------------------------------------------------------
                                   SCF
               by Justin Turney, Rob Parrish, Andy Simmonett
                          and Daniel G. A. Smith
                              RHF Reference
                        8 Threads,  30517 MiB Core
         ---------------------------------------------------------

  ==> Geometry <==

    Molecular point group: c1
    Full point group: C1

    Geometry (in Angstrom), charge = -4, multiplicity = 1:

       Center              X                  Y                   Z               Mass       
    ------------   -----------------  -----------------  -----------------  -----------------
         P            2.597548787899     0.102090175160    -0.334014497120    30.973761998420
         P           -0.168665212101    -1.124113824840     0.314688502880    30.973761998420
         P           -2.694171212101     0.494947175160    -0.178805497120    30.973761998420
         O            2.001021787899     1.646191475160    -0.240202297120    15.994914619570
         O            1.265621787899    -0.858743824840    -0.523115497120    15.994914619570
         O            3.260278987899     0.187451075160    -1.684467297120    15.994914619570
         O            3.343612787899    -0.273943824840     0.924171502880    15.994914619570
         O           -0.973488212101     0.180756175160    -0.200624497120    15.994914619570
         O            0.107964787899    -1.060336824840     1.804101502880    15.994914619570
         O           -0.700382212101    -2.411059824840    -0.278498497120    15.994914619570
         O           -3.218089212101    -0.249040824840     1.063307502880    15.994914619570
         O           -2.698170212101     2.028155175160    -0.074037497120    15.994914619570
         O           -3.196711212101    -0.055733824840    -1.525473497120    15.994914619570
         C            1.436347787899     1.987635175160     1.127191502880    12.000000000000
         H            1.031624787899     1.121158175160     1.649770502880     1.007825032230
         H            2.217395787899     2.458695175160     1.732221502880     1.007825032230
         H            0.630746787899     2.701390175160     0.948382502880     1.007825032230

  Running in c1 symmetry.

  Rotational constants: A =      0.03079  B =      0.01070  C =      0.00981 [cm^-1]
  Rotational constants: A =    923.17517  B =    320.86825  C =    294.03277 [MHz]
  Nuclear repulsion = 1461.331910312209175

  Charge       = -4
  Multiplicity = 1
  Electrons    = 138
  Nalpha       = 69
  Nbeta        = 69

  ==> Algorithm <==

  SCF Algorithm Type is DF.
  DIIS enabled.
  MOM disabled.
  Fractional occupation disabled.
  Guess Type is SAD.
  Energy threshold   = 1.00e-10
  Density threshold  = 1.00e-10
  Integral threshold = 0.00e+00

  ==> Primary Basis <==

  Basis Set: AUG-CC-PVTZ
    Blend: AUG-CC-PVTZ
    Number of shells: 229
    Number of basis function: 725
    Number of Cartesian functions: 857
    Spherical Harmonics?: true
    Max angular momentum: 3

   => Loading Basis Set <=

    Name: (AUG-CC-PVTZ AUX)
    Role: JKFIT
    Keyword: DF_BASIS_SCF
    atoms 1-3   entry P          line   644 file /home/xy3866/psi4conda/share/psi4/basis/aug-cc-pvtz-jkfit.gbs 
    atoms 4-13  entry O          line   286 file /home/xy3866/psi4conda/share/psi4/basis/aug-cc-pvtz-jkfit.gbs 
    atoms 14    entry C          line   162 file /home/xy3866/psi4conda/share/psi4/basis/aug-cc-pvtz-jkfit.gbs 
    atoms 15-17 entry H          line    70 file /home/xy3866/psi4conda/share/psi4/basis/aug-cc-pvtz-jkfit.gbs 

  ==> Pre-Iterations <==

   -------------------------------------------------------
    Irrep   Nso     Nmo     Nalpha   Nbeta   Ndocc  Nsocc
   -------------------------------------------------------
     A        725     725       0       0       0       0
   -------------------------------------------------------
    Total     725     725      69      69      69       0
   -------------------------------------------------------

  ==> Integral Setup <==

  DFHelper Memory: AOs need 6.152 GiB; user supplied 22.352 GiB. Using in-core AOs.

  ==> MemDFJK: Density-Fitted J/K Matrices <==

    J tasked:                   Yes
    K tasked:                   Yes
    wK tasked:                   No
    OpenMP threads:               8
    Memory [MiB]:             22888
    Algorithm:                 Disk
    Schwarz Cutoff:           1E-12
    Mask sparsity (%):      11.0303
    Fitting Condition:        1E-10

   => Auxiliary Basis Set <=

  Basis Set: (AUG-CC-PVTZ AUX)
    Blend: AUG-CC-PVTZ-JKFIT
    Number of shells: 498
    Number of basis function: 1720
    Number of Cartesian functions: 2146
    Spherical Harmonics?: true
    Max angular momentum: 4

  Minimum eigenvalue in the overlap matrix is 1.5308839234E-05.
  Using Symmetric Orthogonalization.

  SCF Guess: Superposition of Atomic Densities via on-the-fly atomic UHF.

  ==> Iterations <==

                           Total Energy        Delta E     RMS |[F,P]|

   @DF-RHF iter SAD: -1808.40394849615518   -1.80840e+03   0.00000e+00 
   @DF-RHF iter   1: -1809.92382518761542   -1.51988e+00   1.94516e-03 DIIS
   @DF-RHF iter   2: -1809.58551948502304    3.38306e-01   1.85038e-03 DIIS
   @DF-RHF iter   3: -1810.58908548461000   -1.00357e+00   5.96466e-04 DIIS
   @DF-RHF iter   4: -1810.66103539661663   -7.19499e-02   2.22309e-04 DIIS
   @DF-RHF iter   5: -1810.67681098963885   -1.57756e-02   7.07659e-05 DIIS
   @DF-RHF iter   6: -1810.67864851312993   -1.83752e-03   2.36627e-05 DIIS
   @DF-RHF iter   7: -1810.67893017237384   -2.81659e-04   7.89331e-06 DIIS
   @DF-RHF iter   8: -1810.67896308097988   -3.29086e-05   3.45227e-06 DIIS
   @DF-RHF iter   9: -1810.67896755180982   -4.47083e-06   1.07953e-06 DIIS
   @DF-RHF iter  10: -1810.67896815238828   -6.00578e-07   2.93724e-07 DIIS
   @DF-RHF iter  11: -1810.67896819610542   -4.37171e-08   1.07333e-07 DIIS
   @DF-RHF iter  12: -1810.67896820114788   -5.04247e-09   3.17962e-08 DIIS
   @DF-RHF iter  13: -1810.67896820169312   -5.45242e-10   8.41055e-09 DIIS
   @DF-RHF iter  14: -1810.67896820174883   -5.57066e-11   3.12145e-09 DIIS
   @DF-RHF iter  15: -1810.67896820175974   -1.09139e-11   1.24774e-09 DIIS
   @DF-RHF iter  16: -1810.67896820175224    7.50333e-12   3.97474e-10 DIIS
   @DF-RHF iter  17: -1810.67896820176293   -1.06866e-11   1.43351e-10 DIIS
   @DF-RHF iter  18: -1810.67896820175611    6.82121e-12   5.57722e-11 DIIS
  Energy and wave function converged.


  ==> Post-Iterations <==

    Orbital Energies [Eh]
    ---------------------

    Doubly Occupied:                                                      

       1A    -79.570149     2A    -79.528153     3A    -79.480178  
       4A    -20.085722     5A    -20.040407     6A    -20.006888  
       7A    -19.995709     8A    -19.993570     9A    -19.951576  
      10A    -19.946217    11A    -19.924143    12A    -19.919375  
      13A    -19.917798    14A    -10.816674    15A     -7.084169  
      16A     -7.041078    17A     -6.993685    18A     -4.983126  
      19A     -4.982219    20A     -4.981256    21A     -4.940364  
      22A     -4.938957    23A     -4.938037    24A     -4.893149  
      25A     -4.890957    26A     -4.890808    27A     -0.890414  
      28A     -0.840482    29A     -0.801714    30A     -0.777386  
      31A     -0.757020    32A     -0.742833    33A     -0.714145  
      34A     -0.700794    35A     -0.663700    36A     -0.659361  
      37A     -0.466860    38A     -0.293096    39A     -0.227893  
      40A     -0.179435    41A     -0.155414    42A     -0.134010  
      43A     -0.125601    44A     -0.099397    45A     -0.080058  
      46A     -0.066288    47A     -0.052390    48A     -0.046500  
      49A     -0.033890    50A     -0.015995    51A     -0.008707  
      52A     -0.001687    53A      0.009351    54A      0.015568  
      55A      0.020547    56A      0.041295    57A      0.046962  
      58A      0.052919    59A      0.067154    60A      0.070793  
      61A      0.090337    62A      0.099994    63A      0.101859  
      64A      0.103500    65A      0.112885    66A      0.124154  
      67A      0.144164    68A      0.150147    69A      0.171785  

    Virtual:                                                              

      70A      0.319140    71A      0.364076    72A      0.379396  
      73A      0.394722    74A      0.419762    75A      0.428495  
      76A      0.429384    77A      0.436709    78A      0.456632  
      79A      0.460021    80A      0.462964    81A      0.465634  
      82A      0.476433    83A      0.496281    84A      0.510280  
      85A      0.523445    86A      0.545612    87A      0.557917  
      88A      0.567011    89A      0.574583    90A      0.583979  
      91A      0.586599    92A      0.588425    93A      0.597600  
      94A      0.612839    95A      0.620997    96A      0.625104  
      97A      0.635236    98A      0.638237    99A      0.642431  
     100A      0.652476   101A      0.658636   102A      0.661746  
     103A      0.664606   104A      0.672362   105A      0.681687  
     106A      0.684487   107A      0.687409   108A      0.689458  
     109A      0.695977   110A      0.698242   111A      0.704554  
     112A      0.708272   113A      0.714182   114A      0.720741  
     115A      0.724690   116A      0.739450   117A      0.743603  
     118A      0.749749   119A      0.756340   120A      0.766734  
     121A      0.770753   122A      0.780504   123A      0.785882  
     124A      0.793805   125A      0.806684   126A      0.820028  
     127A      0.821229   128A      0.823638   129A      0.830109  
     130A      0.835202   131A      0.838913   132A      0.842819  
     133A      0.851667   134A      0.862699   135A      0.867192  
     136A      0.872486   137A      0.875752   138A      0.886399  
     139A      0.894216   140A      0.896878   141A      0.900164  
     142A      0.912161   143A      0.915409   144A      0.918272  
     145A      0.926340   146A      0.932788   147A      0.938036  
     148A      0.941520   149A      0.952432   150A      0.958342  
     151A      0.959566   152A      0.963446   153A      0.968746  
     154A      0.972303   155A      0.978564   156A      0.979561  
     157A      0.983580   158A      0.994627   159A      0.997223  
     160A      1.006288   161A      1.010421   162A      1.019971  
     163A      1.022071   164A      1.027996   165A      1.034654  
     166A      1.035452   167A      1.043659   168A      1.056033  
     169A      1.062507   170A      1.063757   171A      1.080972  
     172A      1.108158   173A      1.114029   174A      1.135345  
     175A      1.147599   176A      1.156319   177A      1.167867  
     178A      1.181402   179A      1.188574   180A      1.191498  
     181A      1.194262   182A      1.205545   183A      1.214647  
     184A      1.218471   185A      1.226028   186A      1.238809  
     187A      1.249719   188A      1.251158   189A      1.260720  
     190A      1.265599   191A      1.272318   192A      1.285774  
     193A      1.294633   194A      1.301825   195A      1.307844  
     196A      1.312844   197A      1.320261   198A      1.332140  
     199A      1.332710   200A      1.343150   201A      1.347038  
     202A      1.349630   203A      1.353871   204A      1.359631  
     205A      1.367464   206A      1.371812   207A      1.376245  
     208A      1.378790   209A      1.385566   210A      1.398382  
     211A      1.401307   212A      1.405101   213A      1.415287  
     214A      1.417931   215A      1.420856   216A      1.425094  
     217A      1.433930   218A      1.441966   219A      1.443922  
     220A      1.451899   221A      1.456063   222A      1.461784  
     223A      1.465890   224A      1.471591   225A      1.478714  
     226A      1.482128   227A      1.486754   228A      1.491365  
     229A      1.496704   230A      1.507691   231A      1.509452  
     232A      1.514489   233A      1.521289   234A      1.526247  
     235A      1.532155   236A      1.534459   237A      1.545402  
     238A      1.547375   239A      1.554560   240A      1.559654  
     241A      1.565509   242A      1.571062   243A      1.575170  
     244A      1.585825   245A      1.588004   246A      1.597475  
     247A      1.604381   248A      1.607222   249A      1.616624  
     250A      1.623832   251A      1.630682   252A      1.639665  
     253A      1.645513   254A      1.651239   255A      1.661885  
     256A      1.667920   257A      1.669233   258A      1.674846  
     259A      1.683316   260A      1.689587   261A      1.696568  
     262A      1.705661   263A      1.711088   264A      1.722189  
     265A      1.727834   266A      1.730348   267A      1.735752  
     268A      1.744021   269A      1.753698   270A      1.760626  
     271A      1.771943   272A      1.775912   273A      1.780343  
     274A      1.793211   275A      1.813974   276A      1.818222  
     277A      1.821031   278A      1.828488   279A      1.840945  
     280A      1.845978   281A      1.854379   282A      1.859571  
     283A      1.877127   284A      1.886139   285A      1.896470  
     286A      1.901030   287A      1.915951   288A      1.930486  
     289A      1.937609   290A      1.946749   291A      1.948590  
     292A      1.968065   293A      1.974078   294A      1.978491  
     295A      1.990843   296A      1.998074   297A      2.021584  
     298A      2.028008   299A      2.035083   300A      2.038984  
     301A      2.050116   302A      2.058075   303A      2.063196  
     304A      2.083393   305A      2.094531   306A      2.099448  
     307A      2.102588   308A      2.113344   309A      2.122008  
     310A      2.133709   311A      2.142790   312A      2.150679  
     313A      2.155314   314A      2.161589   315A      2.165302  
     316A      2.182293   317A      2.190101   318A      2.216725  
     319A      2.223221   320A      2.232516   321A      2.239851  
     322A      2.254832   323A      2.273278   324A      2.285486  
     325A      2.302797   326A      2.309389   327A      2.314661  
     328A      2.322157   329A      2.330860   330A      2.349341  
     331A      2.369376   332A      2.383434   333A      2.388782  
     334A      2.407872   335A      2.422918   336A      2.441375  
     337A      2.458718   338A      2.464843   339A      2.476125  
     340A      2.483845   341A      2.486422   342A      2.493644  
     343A      2.502060   344A      2.505548   345A      2.523774  
     346A      2.531740   347A      2.535818   348A      2.536851  
     349A      2.541055   350A      2.553770   351A      2.559668  
     352A      2.574691   353A      2.577936   354A      2.594254  
     355A      2.601592   356A      2.610154   357A      2.619984  
     358A      2.628141   359A      2.633082   360A      2.637530  
     361A      2.644912   362A      2.647477   363A      2.653454  
     364A      2.665457   365A      2.676187   366A      2.685705  
     367A      2.700349   368A      2.715688   369A      2.720742  
     370A      2.736030   371A      2.743094   372A      2.745720  
     373A      2.760726   374A      2.767228   375A      2.775528  
     376A      2.781178   377A      2.785479   378A      2.793809  
     379A      2.799929   380A      2.806302   381A      2.815239  
     382A      2.821433   383A      2.830987   384A      2.836354  
     385A      2.848067   386A      2.854200   387A      2.864959  
     388A      2.876213   389A      2.881015   390A      2.888739  
     391A      2.893437   392A      2.901134   393A      2.914239  
     394A      2.915546   395A      2.928456   396A      2.937180  
     397A      2.943254   398A      2.955285   399A      2.960364  
     400A      2.968427   401A      2.982102   402A      2.983838  
     403A      2.985368   404A      2.995443   405A      3.003987  
     406A      3.008213   407A      3.022193   408A      3.026679  
     409A      3.036248   410A      3.045495   411A      3.058207  
     412A      3.064029   413A      3.068339   414A      3.069157  
     415A      3.082766   416A      3.086228   417A      3.097193  
     418A      3.105098   419A      3.111041   420A      3.118356  
     421A      3.130219   422A      3.132574   423A      3.138578  
     424A      3.147505   425A      3.151391   426A      3.154518  
     427A      3.163269   428A      3.179930   429A      3.187671  
     430A      3.194420   431A      3.201101   432A      3.206326  
     433A      3.209941   434A      3.222282   435A      3.223592  
     436A      3.234263   437A      3.239052   438A      3.256827  
     439A      3.272295   440A      3.281501   441A      3.287790  
     442A      3.291047   443A      3.292611   444A      3.299968  
     445A      3.314204   446A      3.320722   447A      3.335169  
     448A      3.348955   449A      3.360462   450A      3.367197  
     451A      3.373159   452A      3.388062   453A      3.396551  
     454A      3.422114   455A      3.438726   456A      3.456734  
     457A      3.463464   458A      3.468878   459A      3.482768  
     460A      3.491212   461A      3.506693   462A      3.531530  
     463A      3.537732   464A      3.539818   465A      3.553296  
     466A      3.583508   467A      3.598181   468A      3.604870  
     469A      3.618440   470A      3.624986   471A      3.654428  
     472A      3.663825   473A      3.671553   474A      3.709626  
     475A      3.715550   476A      3.729857   477A      3.767549  
     478A      3.773993   479A      3.787205   480A      3.802161  
     481A      3.813104   482A      3.827338   483A      3.831709  
     484A      3.846739   485A      3.857047   486A      3.871754  
     487A      3.891720   488A      3.900914   489A      3.921039  
     490A      3.921282   491A      3.923890   492A      3.942920  
     493A      3.953613   494A      3.975431   495A      3.979928  
     496A      3.998641   497A      4.014255   498A      4.020193  
     499A      4.031326   500A      4.042857   501A      4.060688  
     502A      4.089188   503A      4.104631   504A      4.120936  
     505A      4.129259   506A      4.148508   507A      4.175016  
     508A      4.182748   509A      4.209269   510A      4.218981  
     511A      4.231173   512A      4.235819   513A      4.243412  
     514A      4.264318   515A      4.300893   516A      4.315124  
     517A      4.339886   518A      4.352430   519A      4.358535  
     520A      4.367195   521A      4.389253   522A      4.410544  
     523A      4.421804   524A      4.438676   525A      4.451887  
     526A      4.462236   527A      4.473680   528A      4.496768  
     529A      4.541297   530A      4.593743   531A      4.597487  
     532A      4.620220   533A      4.650780   534A      4.689054  
     535A      4.753280   536A      4.757947   537A      4.797723  
     538A      4.824323   539A      4.894126   540A      4.943829  
     541A      5.066051   542A      5.092836   543A      5.115033  
     544A      5.187599   545A      5.199379   546A      5.218779  
     547A      5.272209   548A      5.290546   549A      5.319144  
     550A      5.332799   551A      5.349757   552A      5.371516  
     553A      5.381621   554A      5.386169   555A      5.397229  
     556A      5.410016   557A      5.428733   558A      5.466677  
     559A      5.496113   560A      5.533165   561A      5.539775  
     562A      5.541803   563A      5.579408   564A      5.604014  
     565A      5.620566   566A      5.649794   567A      5.660092  
     568A      5.674789   569A      5.745750   570A      5.775359  
     571A      5.811413   572A      5.859922   573A      5.939216  
     574A      6.054358   575A      6.077053   576A      6.125789  
     577A      6.139806   578A      6.171676   579A      6.187540  
     580A      6.197660   581A      6.199324   582A      6.235494  
     583A      6.257108   584A      6.281194   585A      6.299914  
     586A      6.447501   587A      6.571418   588A      6.629587  
     589A      6.751885   590A      7.155494   591A      7.178495  
     592A      7.193862   593A      7.208936   594A      7.224624  
     595A      7.228281   596A      7.236743   597A      7.249555  
     598A      7.252443   599A      7.259149   600A      7.262384  
     601A      7.271781   602A      7.278745   603A      7.289216  
     604A      7.298559   605A      7.305762   606A      7.314806  
     607A      7.318275   608A      7.331237   609A      7.341384  
     610A      7.347048   611A      7.369357   612A      7.375597  
     613A      7.380845   614A      7.385055   615A      7.387242  
     616A      7.393146   617A      7.401142   618A      7.410697  
     619A      7.424819   620A      7.425786   621A      7.430143  
     622A      7.432600   623A      7.437478   624A      7.447797  
     625A      7.451408   626A      7.460358   627A      7.463474  
     628A      7.465090   629A      7.471728   630A      7.475070  
     631A      7.481700   632A      7.487111   633A      7.492780  
     634A      7.499545   635A      7.501273   636A      7.511366  
     637A      7.521276   638A      7.527942   639A      7.534756  
     640A      7.537650   641A      7.550575   642A      7.558932  
     643A      7.568161   644A      7.570036   645A      7.574020  
     646A      7.585085   647A      7.590603   648A      7.592528  
     649A      7.606197   650A      7.626815   651A      7.641690  
     652A      7.652871   653A      7.660151   654A      7.689562  
     655A      7.713132   656A      7.733498   657A      7.760633  
     658A      7.771124   659A      7.775955   660A      7.790199  
     661A      7.806023   662A      7.809595   663A      7.814978  
     664A      7.819720   665A      7.840403   666A      7.845050  
     667A      7.851385   668A      7.861649   669A      7.871335  
     670A      7.874371   671A      7.886226   672A      7.896705  
     673A      7.902816   674A      7.915818   675A      7.931047  
     676A      7.935648   677A      7.943465   678A      7.968721  
     679A      7.977362   680A      7.996824   681A      8.009840  
     682A      8.032745   683A      8.039405   684A      8.070441  
     685A      8.110696   686A      8.121413   687A      8.126539  
     688A      8.155185   689A      8.161241   690A      8.173116  
     691A      8.185235   692A      8.200158   693A      8.206169  
     694A      8.219807   695A      8.231311   696A      8.237118  
     697A      8.243216   698A      8.247147   699A      8.268592  
     700A      8.280003   701A      8.299803   702A      8.320597  
     703A      8.339043   704A      8.368017   705A      8.382824  
     706A      8.401695   707A      8.429206   708A      8.467764  
     709A      8.493338   710A      8.507234   711A      8.637607  
     712A     10.594683   713A     11.184638   714A     11.554454  
     715A     12.670009   716A     12.787854   717A     12.806046  
     718A     13.096034   719A     13.314064   720A     13.707289  
     721A     14.131106   722A     14.698307   723A     15.361718  
     724A     15.511059   725A     18.510615  

    Final Occupation by Irrep:
              A 
    DOCC [    69 ]

  @DF-RHF Final Energy: -1810.67896820175611

   => Energetics <=

    Nuclear Repulsion Energy =           1461.3319103122091747
    One-Electron Energy =               -5498.3297227878983904
    Two-Electron Energy =                2226.3188442739328821
    Total Energy =                      -1810.6789682017561063

Computation Completed

*** tstop() called on node93.bme.utexas.edu at Tue Nov  3 00:48:56 2020
Module time:
	user time   =     528.50 seconds =       8.81 minutes
	system time =      49.73 seconds =       0.83 minutes
	total time  =        152 seconds =       2.53 minutes
Total time:
	user time   =     528.50 seconds =       8.81 minutes
	system time =      49.73 seconds =       0.83 minutes
	total time  =        152 seconds =       2.53 minutes
   => Loading Basis Set <=

    Name: (AUG-CC-PVTZ AUX)
    Role: RIFIT
    Keyword: DF_BASIS_MP2
    atoms 1-3   entry P          line   590 file /home/xy3866/psi4conda/share/psi4/basis/aug-cc-pvtz-ri.gbs 
    atoms 4-13  entry O          line   264 file /home/xy3866/psi4conda/share/psi4/basis/aug-cc-pvtz-ri.gbs 
    atoms 14    entry C          line   148 file /home/xy3866/psi4conda/share/psi4/basis/aug-cc-pvtz-ri.gbs 
    atoms 15-17 entry H          line    30 file /home/xy3866/psi4conda/share/psi4/basis/aug-cc-pvtz-ri.gbs 


*** tstart() called on node93.bme.utexas.edu
*** at Tue Nov  3 00:48:56 2020


  //>>>>>>>>>>>>>>>>>>>>>>>>>>>>>>>>>>>//
  //               DFMP2               //
  //<<<<<<<<<<<<<<<<<<<<<<<<<<<<<<<<<<<//

	 --------------------------------------------------------
	                          DF-MP2                         
	      2nd-Order Density-Fitted Moller-Plesset Theory     
	              RMP2 Wavefunction,   8 Threads             
	                                                         
	        Rob Parrish, Justin Turney, Andy Simmonett,      
	           Ed Hohenstein, and C. David Sherrill          
	 --------------------------------------------------------

   => Auxiliary Basis Set <=

  Basis Set: (AUG-CC-PVTZ AUX)
    Blend: AUG-CC-PVTZ-RI
    Number of shells: 461
    Number of basis function: 1745
    Number of Cartesian functions: 2234
    Spherical Harmonics?: true
    Max angular momentum: 4

	 --------------------------------------------------------
	                 NBF =   725, NAUX =  1745
	 --------------------------------------------------------
	   CLASS    FOCC     OCC    AOCC    AVIR     VIR    FVIR
	   PAIRS       0      69      69     656     656       0
	 --------------------------------------------------------

  DFHelper Memory: AOs need 6.152 GiB; user supplied 22.352 GiB. Using in-core AOs.


         ------------------------------------------------------------
                                     CPHF                           
                                  Rob Parrish                       
         ------------------------------------------------------------

  ==> Geometry <==

    Molecular point group: c1
    Full point group: C1

    Geometry (in Angstrom), charge = -4, multiplicity = 1:

       Center              X                  Y                   Z               Mass       
    ------------   -----------------  -----------------  -----------------  -----------------
         P            2.597548787899     0.102090175160    -0.334014497120    30.973761998420
         P           -0.168665212101    -1.124113824840     0.314688502880    30.973761998420
         P           -2.694171212101     0.494947175160    -0.178805497120    30.973761998420
         O            2.001021787899     1.646191475160    -0.240202297120    15.994914619570
         O            1.265621787899    -0.858743824840    -0.523115497120    15.994914619570
         O            3.260278987899     0.187451075160    -1.684467297120    15.994914619570
         O            3.343612787899    -0.273943824840     0.924171502880    15.994914619570
         O           -0.973488212101     0.180756175160    -0.200624497120    15.994914619570
         O            0.107964787899    -1.060336824840     1.804101502880    15.994914619570
         O           -0.700382212101    -2.411059824840    -0.278498497120    15.994914619570
         O           -3.218089212101    -0.249040824840     1.063307502880    15.994914619570
         O           -2.698170212101     2.028155175160    -0.074037497120    15.994914619570
         O           -3.196711212101    -0.055733824840    -1.525473497120    15.994914619570
         C            1.436347787899     1.987635175160     1.127191502880    12.000000000000
         H            1.031624787899     1.121158175160     1.649770502880     1.007825032230
         H            2.217395787899     2.458695175160     1.732221502880     1.007825032230
         H            0.630746787899     2.701390175160     0.948382502880     1.007825032230

  Nuclear repulsion = 1461.331910312209175
  Reference energy  = -1810.678968201756106

  ==> Basis Set <==

  Basis Set: AUG-CC-PVTZ
    Blend: AUG-CC-PVTZ
    Number of shells: 229
    Number of basis function: 725
    Number of Cartesian functions: 857
    Spherical Harmonics?: true
    Max angular momentum: 3

  ==> CGRSolver (by Rob Parrish) <==

   Number of roots    =         1
   Preconditioning    =    JACOBI
   Convergence cutoff =     1E-06
   Maximum iterations =       100

  ==> CPHFRHamiltonian (by Rob Parrish) <== 

  ==> MemDFJK: Density-Fitted J/K Matrices <==

    J tasked:                   Yes
    K tasked:                   Yes
    wK tasked:                   No
    OpenMP threads:               8
    Memory [MiB]:             22888
    Algorithm:                 Disk
    Schwarz Cutoff:           1E-12
    Mask sparsity (%):      11.0303
    Fitting Condition:        1E-10

   => Auxiliary Basis Set <=

  Basis Set: (AUG-CC-PVTZ AUX)
    Blend: AUG-CC-PVTZ-JKFIT
    Number of shells: 498
    Number of basis function: 1720
    Number of Cartesian functions: 2146
    Spherical Harmonics?: true
    Max angular momentum: 4

  ==> CPHF Iterations <==

  => Iterations <=

             Iter  Converged  Remaining    Residual
  CGR           1          0          1   8.148E-02
  CGR           2          0          1   1.857E-02
  CGR           3          0          1   6.992E-03
  CGR           4          0          1   2.307E-03
  CGR           5          0          1   8.252E-04
  CGR           6          0          1   2.285E-04
  CGR           7          0          1   6.794E-05
  CGR           8          0          1   2.848E-05
  CGR           9          0          1   8.727E-06
  CGR          10          0          1   2.874E-06
  CGR          11          0          1   1.016E-06
  CGR          12          1          0   4.487E-07

    CGRSolver converged.

	-----------------------------------------------------------
	 ==================> DF-MP2 Energies <==================== 
	-----------------------------------------------------------
	 Reference Energy          =   -1810.6789682017561063 [Eh]
	 Singles Energy            =      -0.0000000000000000 [Eh]
	 Same-Spin Energy          =      -0.9138691401982282 [Eh]
	 Opposite-Spin Energy      =      -2.5286608725339201 [Eh]
	 Correlation Energy        =      -3.4425300127321483 [Eh]
	 Total Energy              =   -1814.1214982144881560 [Eh]
	-----------------------------------------------------------
	 ================> DF-SCS-MP2 Energies <================== 
	-----------------------------------------------------------
	 SCS Same-Spin Scale       =       0.3333333333333333 [-]
	 SCS Opposite-Spin Scale   =       1.2000000000000000 [-]
	 SCS Same-Spin Energy      =      -0.3046230467327427 [Eh]
	 SCS Opposite-Spin Energy  =      -3.0343930470407039 [Eh]
	 SCS Correlation Energy    =      -3.3390160937734468 [Eh]
	 SCS Total Energy          =   -1814.0179842955294589 [Eh]
	-----------------------------------------------------------



Properties will be evaluated at  -0.000000,  -0.000000,  -0.000000 [a0]

Properties computed using the MP2 density matrix

  Nuclear Dipole Moment: [e a0]
     X:     3.8774      Y:     6.3693      Z:     4.2384

  Electronic Dipole Moment: [e a0]
     X:    -0.2592      Y:    -5.5043      Z:    -3.5143

  Dipole Moment: [e a0]
     X:     3.6182      Y:     0.8649      Z:     0.7241     Total:     3.7900

  Dipole Moment: [D]
     X:     9.1965      Y:     2.1985      Z:     1.8404     Total:     9.6331


*** tstop() called on node93.bme.utexas.edu at Tue Nov  3 00:55:22 2020
Module time:
	user time   =    2340.59 seconds =      39.01 minutes
	system time =      78.67 seconds =       1.31 minutes
	total time  =        386 seconds =       6.43 minutes
Total time:
	user time   =    2870.35 seconds =      47.84 minutes
	system time =     128.44 seconds =       2.14 minutes
	total time  =        538 seconds =       8.97 minutes

    Psi4 stopped on: Tuesday, 03 November 2020 12:55AM
    Psi4 wall time for execution: 0:08:58.92

*** Psi4 exiting successfully. Buy a developer a beer!
