
    -----------------------------------------------------------------------
          Psi4: An Open-Source Ab Initio Electronic Structure Package
                               Psi4 1.4a3.dev225 

                         Git: Rev {master} 7105e37 


    D. G. A. Smith, L. A. Burns, A. C. Simmonett, R. M. Parrish,
    M. C. Schieber, R. Galvelis, P. Kraus, H. Kruse, R. Di Remigio,
    A. Alenaizan, A. M. James, S. Lehtola, J. P. Misiewicz, M. Scheurer,
    R. A. Shaw, J. B. Schriber, Y. Xie, Z. L. Glick, D. A. Sirianni,
    J. S. O'Brien, J. M. Waldrop, A. Kumar, E. G. Hohenstein,
    B. P. Pritchard, B. R. Brooks, H. F. Schaefer III, A. Yu. Sokolov,
    K. Patkowski, A. E. DePrince III, U. Bozkaya, R. A. King,
    F. A. Evangelista, J. M. Turney, T. D. Crawford, C. D. Sherrill,
    J. Chem. Phys. 152(18) 184108 (2020). https://doi.org/10.1063/5.0006002

                            Additional Code Authors
    E. T. Seidl, C. L. Janssen, E. F. Valeev, M. L. Leininger,
    J. F. Gonthier, R. M. Richard, H. R. McAlexander, M. Saitow, X. Wang,
    P. Verma, and M. H. Lechner

             Previous Authors, Complete List of Code Contributors,
                       and Citations for Specific Modules
    https://github.com/psi4/psi4/blob/master/codemeta.json
    https://github.com/psi4/psi4/graphs/contributors
    http://psicode.org/psi4manual/master/introduction.html#citing-psifour

    -----------------------------------------------------------------------


    Psi4 started on: Saturday, 20 March 2021 07:18AM

    Process ID: 22920
    Host:       c445-113.stampede2.tacc.utexas.edu
    PSIDATADIR: /home1/07844/xy3866/miniconda3/envs/p4env/share/psi4
    Memory:     500.0 MiB
    Threads:    32
    
  ==> Input File <==

--------------------------------------------------------------------------
#psi4
#
memory 32 gb

molecule  {
-4 1
  P       -2.5202440    -0.2449420     0.3712220
  P        0.3565170    -0.5960480    -0.3589090
  P        3.1750170     0.3881900     0.1554910
  O       -2.7927880     1.3311510    -0.1150520
  O       -0.9169740    -0.0836090     0.6422800
  O       -3.1856250    -0.4605710     1.7148300
  O       -2.8507450    -1.1694890    -0.7786080
  O        1.4898640     0.0841660     0.5723090
  O        0.2127210     0.0849480    -1.7048820
  O        0.4027150    -2.1095660    -0.2874290
  O        3.5327910    -0.6840640    -0.8835370
  O        3.1643710     1.8286230    -0.3742880
  O        3.8424771     0.2076135     1.5490358
  C       -4.1398760     1.5889580    -0.5252390
  H       -4.4292020     0.9309370    -1.3496150
  H       -4.8386320     1.4471050     0.3059850
  H       -4.1840730     2.6280350    -0.8559160
units angstrom
no_reorient  #important for SAPT in psi4, default
symmetry c1  #important for SAPT in psi4, default
}

set PROPERTIES_ORIGIN ["COM"]
properties('MP2/aug-cc-pvtz', properties = ['dipole'])
--------------------------------------------------------------------------

  Memory set to  29.802 GiB by Python driver.
    SCF Algorithm Type (re)set to DF.

*** tstart() called on c445-113.stampede2.tacc.utexas.edu
*** at Sat Mar 20 07:18:22 2021

   => Loading Basis Set <=

    Name: AUG-CC-PVTZ
    Role: ORBITAL
    Keyword: BASIS
    atoms 1-3   entry P          line   824 file /home1/07844/xy3866/miniconda3/envs/p4env/share/psi4/basis/aug-cc-pvtz.gbs 
    atoms 4-13  entry O          line   331 file /home1/07844/xy3866/miniconda3/envs/p4env/share/psi4/basis/aug-cc-pvtz.gbs 
    atoms 14    entry C          line   239 file /home1/07844/xy3866/miniconda3/envs/p4env/share/psi4/basis/aug-cc-pvtz.gbs 
    atoms 15-17 entry H          line    40 file /home1/07844/xy3866/miniconda3/envs/p4env/share/psi4/basis/aug-cc-pvtz.gbs 


         ---------------------------------------------------------
                                   SCF
               by Justin Turney, Rob Parrish, Andy Simmonett
                          and Daniel G. A. Smith
                              RHF Reference
                       32 Threads,  30517 MiB Core
         ---------------------------------------------------------

  ==> Geometry <==

    Molecular point group: c1
    Full point group: C1

    Geometry (in Angstrom), charge = -4, multiplicity = 1:

       Center              X                  Y                   Z               Mass       
    ------------   -----------------  -----------------  -----------------  -----------------
         P           -2.574197997592    -0.224635465598     0.362513022233    30.973761998420
         P            0.302563002408    -0.575741465598    -0.367617977767    30.973761998420
         P            3.121063002408     0.408496534402     0.146782022233    30.973761998420
         O           -2.846741997592     1.351457534402    -0.123760977767    15.994914619570
         O           -0.970927997592    -0.063302465598     0.633571022233    15.994914619570
         O           -3.239578997592    -0.440264465598     1.706121022233    15.994914619570
         O           -2.904698997592    -1.149182465598    -0.787316977767    15.994914619570
         O            1.435910002408     0.104472534402     0.563600022233    15.994914619570
         O            0.158767002408     0.105254534402    -1.713590977767    15.994914619570
         O            0.348761002408    -2.089259465598    -0.296137977767    15.994914619570
         O            3.478837002408    -0.663757465598    -0.892245977767    15.994914619570
         O            3.110417002408     1.848929534402    -0.382996977767    15.994914619570
         O            3.788523102408     0.227920034402     1.540326822233    15.994914619570
         C           -4.193829997592     1.609264534402    -0.533947977767    12.000000000000
         H           -4.483155997592     0.951243534402    -1.358323977767     1.007825032230
         H           -4.892585997592     1.467411534402     0.297276022233     1.007825032230
         H           -4.238026997592     2.648341534402    -0.864624977767     1.007825032230

  Running in c1 symmetry.

  Rotational constants: A =      0.03932  B =      0.00831  C =      0.00807 [cm^-1]
  Rotational constants: A =   1178.76212  B =    249.08926  C =    241.95190 [MHz]
  Nuclear repulsion = 1424.701459289066634

  Charge       = -4
  Multiplicity = 1
  Electrons    = 138
  Nalpha       = 69
  Nbeta        = 69

  ==> Algorithm <==

  SCF Algorithm Type is DF.
  DIIS enabled.
  MOM disabled.
  Fractional occupation disabled.
  Guess Type is SAD.
  Energy threshold   = 1.00e-10
  Density threshold  = 1.00e-10
  Integral threshold = 1.00e-12

  ==> Primary Basis <==

  Basis Set: AUG-CC-PVTZ
    Blend: AUG-CC-PVTZ
    Number of shells: 229
    Number of basis functions: 725
    Number of Cartesian functions: 857
    Spherical Harmonics?: true
    Max angular momentum: 3

   => Loading Basis Set <=

    Name: (AUG-CC-PVTZ AUX)
    Role: JKFIT
    Keyword: DF_BASIS_SCF
    atoms 1-3   entry P          line   644 file /home1/07844/xy3866/miniconda3/envs/p4env/share/psi4/basis/aug-cc-pvtz-jkfit.gbs 
    atoms 4-13  entry O          line   286 file /home1/07844/xy3866/miniconda3/envs/p4env/share/psi4/basis/aug-cc-pvtz-jkfit.gbs 
    atoms 14    entry C          line   162 file /home1/07844/xy3866/miniconda3/envs/p4env/share/psi4/basis/aug-cc-pvtz-jkfit.gbs 
    atoms 15-17 entry H          line    70 file /home1/07844/xy3866/miniconda3/envs/p4env/share/psi4/basis/aug-cc-pvtz-jkfit.gbs 

  ==> Integral Setup <==

  DFHelper Memory: AOs need 5.447 GiB; user supplied 22.352 GiB. Using in-core AOs.

  ==> MemDFJK: Density-Fitted J/K Matrices <==

    J tasked:                   Yes
    K tasked:                   Yes
    wK tasked:                   No
    OpenMP threads:              32
    Memory [MiB]:             22888
    Algorithm:                 Core
    Schwarz Cutoff:           1E-12
    Mask sparsity (%):      22.8935
    Fitting Condition:        1E-10

   => Auxiliary Basis Set <=

  Basis Set: (AUG-CC-PVTZ AUX)
    Blend: AUG-CC-PVTZ-JKFIT
    Number of shells: 498
    Number of basis functions: 1720
    Number of Cartesian functions: 2146
    Spherical Harmonics?: true
    Max angular momentum: 4

  Minimum eigenvalue in the overlap matrix is 2.8430721535E-05.
  Reciprocal condition number of the overlap matrix is 2.1140392651E-06.
    Using symmetric orthogonalization.

  ==> Pre-Iterations <==

  SCF Guess: Superposition of Atomic Densities via on-the-fly atomic UHF (no occupation information).

   -------------------------
    Irrep   Nso     Nmo    
   -------------------------
     A        725     725 
   -------------------------
    Total     725     725
   -------------------------

  ==> Iterations <==

                           Total Energy        Delta E     RMS |[F,P]|

   @DF-RHF iter SAD: -1808.42458580967559   -1.80842e+03   0.00000e+00 
   @DF-RHF iter   1: -1809.90882367991185   -1.48424e+00   1.95140e-03 DIIS
   @DF-RHF iter   2: -1807.64363251947361    2.26519e+00   2.37429e-03 DIIS
   @DF-RHF iter   3: -1810.45991727840487   -2.81628e+00   9.24519e-04 DIIS
   @DF-RHF iter   4: -1810.61838751839991   -1.58470e-01   4.06456e-04 DIIS
   @DF-RHF iter   5: -1810.66572451875345   -4.73370e-02   1.55153e-04 DIIS
   @DF-RHF iter   6: -1810.67318177243305   -7.45725e-03   4.99481e-05 DIIS
   @DF-RHF iter   7: -1810.67430476696427   -1.12299e-03   1.52784e-05 DIIS
   @DF-RHF iter   8: -1810.67441440256425   -1.09636e-04   5.84248e-06 DIIS
   @DF-RHF iter   9: -1810.67442800993376   -1.36074e-05   1.53021e-06 DIIS
   @DF-RHF iter  10: -1810.67442941917352   -1.40924e-06   4.76648e-07 DIIS
   @DF-RHF iter  11: -1810.67442952811211   -1.08939e-07   1.93595e-07 DIIS
   @DF-RHF iter  12: -1810.67442954518788   -1.70758e-08   5.13060e-08 DIIS
   @DF-RHF iter  13: -1810.67442954718967   -2.00180e-09   1.65358e-08 DIIS
   @DF-RHF iter  14: -1810.67442954741500   -2.25327e-10   7.14797e-09 DIIS
   @DF-RHF iter  15: -1810.67442954744229   -2.72848e-11   2.55465e-09 DIIS
   @DF-RHF iter  16: -1810.67442954744979   -7.50333e-12   8.17044e-10 DIIS
   @DF-RHF iter  17: -1810.67442954744638    3.41061e-12   2.98079e-10 DIIS
   @DF-RHF iter  18: -1810.67442954745002   -3.63798e-12   1.36884e-10 DIIS
   @DF-RHF iter  19: -1810.67442954744433    5.68434e-12   5.03151e-11 DIIS
  Energy and wave function converged.


  ==> Post-Iterations <==

    Orbital Energies [Eh]
    ---------------------

    Doubly Occupied:                                                      

       1A    -79.581085     2A    -79.518036     3A    -79.479263  
       4A    -20.119419     5A    -20.042317     6A    -20.015323  
       7A    -20.005331     8A    -19.985684     9A    -19.937538  
      10A    -19.935961    11A    -19.923265    12A    -19.918964  
      13A    -19.915143    14A    -10.883656    15A     -7.095360  
      16A     -7.031092    17A     -6.992396    18A     -4.994507  
      19A     -4.993198    20A     -4.992289    21A     -4.930490  
      22A     -4.928921    23A     -4.927766    24A     -4.891836  
      25A     -4.889621    26A     -4.889577    27A     -0.931618  
      28A     -0.854008    29A     -0.807447    30A     -0.777875  
      31A     -0.761545    32A     -0.735897    33A     -0.706067  
      34A     -0.687633    35A     -0.659608    36A     -0.657932  
      37A     -0.528476    38A     -0.309020    39A     -0.252740  
      40A     -0.220984    41A     -0.196976    42A     -0.165784  
      43A     -0.140711    44A     -0.108706    45A     -0.094792  
      46A     -0.079679    47A     -0.063364    48A     -0.052383  
      49A     -0.035372    50A     -0.025743    51A     -0.012855  
      52A     -0.010095    53A      0.009212    54A      0.011620  
      55A      0.023114    56A      0.034024    57A      0.047740  
      58A      0.054256    59A      0.061764    60A      0.080843  
      61A      0.097458    62A      0.103608    63A      0.106399  
      64A      0.108761    65A      0.124276    66A      0.134839  
      67A      0.147824    68A      0.153311    69A      0.173516  

    Virtual:                                                              

      70A      0.293315    71A      0.310386    72A      0.324640  
      73A      0.381459    74A      0.409859    75A      0.418557  
      76A      0.424777    77A      0.434955    78A      0.449266  
      79A      0.455090    80A      0.458936    81A      0.463448  
      82A      0.476689    83A      0.488491    84A      0.499637  
      85A      0.502049    86A      0.523413    87A      0.541647  
      88A      0.549709    89A      0.562101    90A      0.568368  
      91A      0.574188    92A      0.575342    93A      0.585249  
      94A      0.591568    95A      0.604029    96A      0.613409  
      97A      0.618421    98A      0.625481    99A      0.636151  
     100A      0.643856   101A      0.645357   102A      0.655424  
     103A      0.663454   104A      0.667118   105A      0.671323  
     106A      0.678235   107A      0.679726   108A      0.684451  
     109A      0.687971   110A      0.693437   111A      0.695389  
     112A      0.702761   113A      0.706077   114A      0.710328  
     115A      0.715035   116A      0.720804   117A      0.727616  
     118A      0.730130   119A      0.737318   120A      0.740178  
     121A      0.748208   122A      0.753853   123A      0.762063  
     124A      0.770865   125A      0.777938   126A      0.782528  
     127A      0.787874   128A      0.789139   129A      0.797976  
     130A      0.800992   131A      0.815114   132A      0.821920  
     133A      0.826530   134A      0.826842   135A      0.841482  
     136A      0.843649   137A      0.847763   138A      0.853209  
     139A      0.856123   140A      0.866230   141A      0.873017  
     142A      0.882475   143A      0.887537   144A      0.894130  
     145A      0.903237   146A      0.909669   147A      0.911929  
     148A      0.920297   149A      0.930900   150A      0.932477  
     151A      0.940462   152A      0.950337   153A      0.951951  
     154A      0.959574   155A      0.962306   156A      0.964376  
     157A      0.974315   158A      0.974820   159A      0.981582  
     160A      0.983758   161A      0.995855   162A      0.999550  
     163A      1.003397   164A      1.009022   165A      1.015501  
     166A      1.022506   167A      1.032319   168A      1.043948  
     169A      1.050412   170A      1.060843   171A      1.069486  
     172A      1.076053   173A      1.081938   174A      1.111744  
     175A      1.119699   176A      1.133413   177A      1.142892  
     178A      1.163993   179A      1.166480   180A      1.176595  
     181A      1.184538   182A      1.185710   183A      1.190497  
     184A      1.201930   185A      1.203402   186A      1.211105  
     187A      1.220226   188A      1.228743   189A      1.235095  
     190A      1.247959   191A      1.257904   192A      1.266971  
     193A      1.272397   194A      1.274747   195A      1.283593  
     196A      1.287109   197A      1.292180   198A      1.297181  
     199A      1.299260   200A      1.304409   201A      1.308997  
     202A      1.321570   203A      1.328828   204A      1.335064  
     205A      1.341535   206A      1.345132   207A      1.348185  
     208A      1.355048   209A      1.360073   210A      1.367910  
     211A      1.372251   212A      1.374823   213A      1.380534  
     214A      1.389105   215A      1.392930   216A      1.400223  
     217A      1.402385   218A      1.412324   219A      1.418899  
     220A      1.421897   221A      1.426823   222A      1.429210  
     223A      1.436301   224A      1.437861   225A      1.444580  
     226A      1.452077   227A      1.462551   228A      1.465977  
     229A      1.467567   230A      1.470497   231A      1.479151  
     232A      1.480798   233A      1.485797   234A      1.494145  
     235A      1.498756   236A      1.499122   237A      1.507025  
     238A      1.515580   239A      1.518945   240A      1.519336  
     241A      1.534057   242A      1.534687   243A      1.537967  
     244A      1.545113   245A      1.552675   246A      1.564788  
     247A      1.566975   248A      1.572490   249A      1.578954  
     250A      1.582084   251A      1.593907   252A      1.599245  
     253A      1.603585   254A      1.607008   255A      1.617515  
     256A      1.622152   257A      1.627164   258A      1.628853  
     259A      1.642053   260A      1.652578   261A      1.662529  
     262A      1.664767   263A      1.675429   264A      1.681167  
     265A      1.686311   266A      1.697908   267A      1.698172  
     268A      1.704766   269A      1.717891   270A      1.738125  
     271A      1.741894   272A      1.749100   273A      1.754180  
     274A      1.759779   275A      1.766099   276A      1.773579  
     277A      1.781600   278A      1.791142   279A      1.808827  
     280A      1.813240   281A      1.821145   282A      1.828593  
     283A      1.837486   284A      1.852454   285A      1.863039  
     286A      1.867119   287A      1.874162   288A      1.884929  
     289A      1.896735   290A      1.907878   291A      1.920008  
     292A      1.935678   293A      1.944101   294A      1.949881  
     295A      1.961367   296A      1.971008   297A      1.997139  
     298A      2.004552   299A      2.007190   300A      2.015166  
     301A      2.021597   302A      2.026918   303A      2.037520  
     304A      2.040548   305A      2.052028   306A      2.058183  
     307A      2.067309   308A      2.081174   309A      2.084877  
     310A      2.098606   311A      2.103987   312A      2.113056  
     313A      2.118323   314A      2.125802   315A      2.133888  
     316A      2.146681   317A      2.150841   318A      2.158973  
     319A      2.169978   320A      2.183205   321A      2.194339  
     322A      2.210703   323A      2.226925   324A      2.229821  
     325A      2.241483   326A      2.246712   327A      2.265982  
     328A      2.287304   329A      2.305646   330A      2.313798  
     331A      2.317148   332A      2.333152   333A      2.341784  
     334A      2.351044   335A      2.357942   336A      2.383571  
     337A      2.391274   338A      2.425169   339A      2.427901  
     340A      2.446393   341A      2.449465   342A      2.463375  
     343A      2.475277   344A      2.489116   345A      2.495738  
     346A      2.505443   347A      2.507434   348A      2.510716  
     349A      2.524905   350A      2.527052   351A      2.539562  
     352A      2.545441   353A      2.552108   354A      2.563564  
     355A      2.571871   356A      2.576825   357A      2.588063  
     358A      2.592639   359A      2.597295   360A      2.607271  
     361A      2.613043   362A      2.617367   363A      2.622663  
     364A      2.639131   365A      2.645795   366A      2.649133  
     367A      2.667326   368A      2.676541   369A      2.694334  
     370A      2.705089   371A      2.715341   372A      2.720196  
     373A      2.728807   374A      2.738242   375A      2.740141  
     376A      2.754880   377A      2.762959   378A      2.768140  
     379A      2.776178   380A      2.783201   381A      2.789276  
     382A      2.796238   383A      2.803860   384A      2.816087  
     385A      2.826537   386A      2.829220   387A      2.832156  
     388A      2.834395   389A      2.840912   390A      2.852826  
     391A      2.859311   392A      2.870601   393A      2.885706  
     394A      2.888208   395A      2.890955   396A      2.905679  
     397A      2.912979   398A      2.934504   399A      2.941170  
     400A      2.943058   401A      2.962882   402A      2.970317  
     403A      2.974560   404A      2.984752   405A      2.987275  
     406A      2.999211   407A      3.005939   408A      3.015761  
     409A      3.026282   410A      3.029438   411A      3.036410  
     412A      3.041844   413A      3.050412   414A      3.056808  
     415A      3.058508   416A      3.066226   417A      3.076858  
     418A      3.086622   419A      3.091665   420A      3.103726  
     421A      3.110169   422A      3.111433   423A      3.120243  
     424A      3.123934   425A      3.124225   426A      3.137863  
     427A      3.144134   428A      3.152518   429A      3.161275  
     430A      3.166424   431A      3.174386   432A      3.183882  
     433A      3.187634   434A      3.192875   435A      3.195999  
     436A      3.213140   437A      3.213882   438A      3.227375  
     439A      3.246555   440A      3.251765   441A      3.263175  
     442A      3.269091   443A      3.283603   444A      3.294987  
     445A      3.300933   446A      3.309069   447A      3.317174  
     448A      3.325125   449A      3.344257   450A      3.354085  
     451A      3.360166   452A      3.381922   453A      3.399980  
     454A      3.411527   455A      3.423736   456A      3.434716  
     457A      3.450518   458A      3.458426   459A      3.464302  
     460A      3.468582   461A      3.486186   462A      3.507634  
     463A      3.525773   464A      3.536981   465A      3.546971  
     466A      3.561351   467A      3.573864   468A      3.600362  
     469A      3.609517   470A      3.621630   471A      3.631481  
     472A      3.643726   473A      3.665692   474A      3.671754  
     475A      3.693652   476A      3.716819   477A      3.737619  
     478A      3.749175   479A      3.755530   480A      3.779757  
     481A      3.789285   482A      3.802917   483A      3.811197  
     484A      3.820857   485A      3.833980   486A      3.843679  
     487A      3.852641   488A      3.869218   489A      3.871934  
     490A      3.885909   491A      3.905772   492A      3.913114  
     493A      3.927659   494A      3.930739   495A      3.951749  
     496A      3.961604   497A      3.974741   498A      3.991371  
     499A      3.996662   500A      4.015447   501A      4.022009  
     502A      4.036241   503A      4.049746   504A      4.061029  
     505A      4.079769   506A      4.094798   507A      4.106277  
     508A      4.114165   509A      4.128402   510A      4.157722  
     511A      4.167274   512A      4.183928   513A      4.208972  
     514A      4.219988   515A      4.229766   516A      4.238208  
     517A      4.259674   518A      4.276839   519A      4.291483  
     520A      4.329024   521A      4.347750   522A      4.357439  
     523A      4.370260   524A      4.380560   525A      4.403119  
     526A      4.433495   527A      4.449518   528A      4.462822  
     529A      4.501170   530A      4.534973   531A      4.547008  
     532A      4.603846   533A      4.614355   534A      4.643892  
     535A      4.670357   536A      4.689508   537A      4.720609  
     538A      4.764384   539A      4.826498   540A      4.873035  
     541A      4.984814   542A      4.992188   543A      5.076196  
     544A      5.155891   545A      5.177236   546A      5.181881  
     547A      5.199142   548A      5.217621   549A      5.220739  
     550A      5.233463   551A      5.292710   552A      5.311522  
     553A      5.329794   554A      5.345118   555A      5.351121  
     556A      5.384879   557A      5.394589   558A      5.410737  
     559A      5.423160   560A      5.476144   561A      5.496169  
     562A      5.537095   563A      5.562868   564A      5.572423  
     565A      5.586535   566A      5.628390   567A      5.652380  
     568A      5.657435   569A      5.712083   570A      5.731289  
     571A      5.802906   572A      5.866386   573A      5.929962  
     574A      5.996293   575A      6.023290   576A      6.029358  
     577A      6.034736   578A      6.120493   579A      6.154975  
     580A      6.191368   581A      6.193810   582A      6.211996  
     583A      6.240252   584A      6.259664   585A      6.305736  
     586A      6.383150   587A      6.471602   588A      6.519631  
     589A      6.761097   590A      7.065149   591A      7.075352  
     592A      7.168350   593A      7.186946   594A      7.203162  
     595A      7.219885   596A      7.228635   597A      7.231485  
     598A      7.233902   599A      7.243232   600A      7.250752  
     601A      7.258915   602A      7.261373   603A      7.276007  
     604A      7.290149   605A      7.300865   606A      7.304747  
     607A      7.311040   608A      7.320516   609A      7.328784  
     610A      7.336246   611A      7.343782   612A      7.356288  
     613A      7.364568   614A      7.372555   615A      7.379675  
     616A      7.384432   617A      7.387324   618A      7.396101  
     619A      7.400851   620A      7.402861   621A      7.410924  
     622A      7.420532   623A      7.432993   624A      7.440968  
     625A      7.448993   626A      7.452029   627A      7.457893  
     628A      7.461733   629A      7.467823   630A      7.476587  
     631A      7.481396   632A      7.485161   633A      7.496965  
     634A      7.498784   635A      7.501250   636A      7.502021  
     637A      7.520859   638A      7.523134   639A      7.529997  
     640A      7.534628   641A      7.546869   642A      7.562162  
     643A      7.569193   644A      7.573714   645A      7.579678  
     646A      7.596225   647A      7.598468   648A      7.609456  
     649A      7.615139   650A      7.624044   651A      7.630998  
     652A      7.635503   653A      7.662470   654A      7.671513  
     655A      7.677101   656A      7.710746   657A      7.725057  
     658A      7.746391   659A      7.770205   660A      7.777798  
     661A      7.788151   662A      7.797659   663A      7.807347  
     664A      7.808817   665A      7.820291   666A      7.841885  
     667A      7.849076   668A      7.854136   669A      7.861284  
     670A      7.868387   671A      7.875903   672A      7.887636  
     673A      7.889749   674A      7.894965   675A      7.903842  
     676A      7.904865   677A      7.914159   678A      7.947178  
     679A      7.962755   680A      7.972618   681A      7.993999  
     682A      8.033085   683A      8.050882   684A      8.059793  
     685A      8.110882   686A      8.115349   687A      8.125720  
     688A      8.143613   689A      8.161240   690A      8.171777  
     691A      8.181219   692A      8.192352   693A      8.200492  
     694A      8.211788   695A      8.212553   696A      8.223152  
     697A      8.233376   698A      8.238088   699A      8.264735  
     700A      8.275951   701A      8.281011   702A      8.294697  
     703A      8.321512   704A      8.326560   705A      8.363369  
     706A      8.389128   707A      8.465117   708A      8.496254  
     709A      8.514331   710A      8.571082   711A      8.617934  
     712A     10.544688   713A     11.245506   714A     11.503029  
     715A     12.559763   716A     12.714179   717A     12.892618  
     718A     12.989406   719A     13.313627   720A     13.793921  
     721A     14.079105   722A     14.853963   723A     15.207308  
     724A     15.285434   725A     18.060281  

    Final Occupation by Irrep:
              A 
    DOCC [    69 ]

  @DF-RHF Final Energy: -1810.67442954744433

   => Energetics <=

    Nuclear Repulsion Energy =           1424.7014592890666336
    One-Electron Energy =               -5424.3062115939137584
    Two-Electron Energy =                2188.9303227574032462
    Total Energy =                      -1810.6744295474441060

Computation Completed

*** tstop() called on c445-113.stampede2.tacc.utexas.edu at Sat Mar 20 07:19:27 2021
Module time:
	user time   =    1109.35 seconds =      18.49 minutes
	system time =      81.88 seconds =       1.36 minutes
	total time  =         65 seconds =       1.08 minutes
Total time:
	user time   =    1109.35 seconds =      18.49 minutes
	system time =      81.88 seconds =       1.36 minutes
	total time  =         65 seconds =       1.08 minutes
   => Loading Basis Set <=

    Name: (AUG-CC-PVTZ AUX)
    Role: RIFIT
    Keyword: DF_BASIS_MP2
    atoms 1-3   entry P          line   590 file /home1/07844/xy3866/miniconda3/envs/p4env/share/psi4/basis/aug-cc-pvtz-ri.gbs 
    atoms 4-13  entry O          line   264 file /home1/07844/xy3866/miniconda3/envs/p4env/share/psi4/basis/aug-cc-pvtz-ri.gbs 
    atoms 14    entry C          line   148 file /home1/07844/xy3866/miniconda3/envs/p4env/share/psi4/basis/aug-cc-pvtz-ri.gbs 
    atoms 15-17 entry H          line    30 file /home1/07844/xy3866/miniconda3/envs/p4env/share/psi4/basis/aug-cc-pvtz-ri.gbs 


*** tstart() called on c445-113.stampede2.tacc.utexas.edu
*** at Sat Mar 20 07:19:28 2021


  //>>>>>>>>>>>>>>>>>>>>>>>>>>>>>>>>>>>//
  //               DFMP2               //
  //<<<<<<<<<<<<<<<<<<<<<<<<<<<<<<<<<<<//

	 --------------------------------------------------------
	                          DF-MP2                         
	      2nd-Order Density-Fitted Moller-Plesset Theory     
	              RMP2 Wavefunction,  32 Threads             
	                                                         
	        Rob Parrish, Justin Turney, Andy Simmonett,      
	           Ed Hohenstein, and C. David Sherrill          
	 --------------------------------------------------------

   => Auxiliary Basis Set <=

  Basis Set: (AUG-CC-PVTZ AUX)
    Blend: AUG-CC-PVTZ-RI
    Number of shells: 461
    Number of basis functions: 1745
    Number of Cartesian functions: 2234
    Spherical Harmonics?: true
    Max angular momentum: 4

	 --------------------------------------------------------
	                 NBF =   725, NAUX =  1745
	 --------------------------------------------------------
	   CLASS    FOCC     OCC    AOCC    AVIR     VIR    FVIR
	   PAIRS       0      69      69     656     656       0
	 --------------------------------------------------------

  DFHelper Memory: AOs need 5.864 GiB; user supplied 22.352 GiB. Using in-core AOs.


         ------------------------------------------------------------
                                     CPHF                           
                                  Rob Parrish                       
         ------------------------------------------------------------

  ==> Geometry <==

    Molecular point group: c1
    Full point group: C1

    Geometry (in Angstrom), charge = -4, multiplicity = 1:

       Center              X                  Y                   Z               Mass       
    ------------   -----------------  -----------------  -----------------  -----------------
         P           -2.574197997592    -0.224635465598     0.362513022233    30.973761998420
         P            0.302563002408    -0.575741465598    -0.367617977767    30.973761998420
         P            3.121063002408     0.408496534402     0.146782022233    30.973761998420
         O           -2.846741997592     1.351457534402    -0.123760977767    15.994914619570
         O           -0.970927997592    -0.063302465598     0.633571022233    15.994914619570
         O           -3.239578997592    -0.440264465598     1.706121022233    15.994914619570
         O           -2.904698997592    -1.149182465598    -0.787316977767    15.994914619570
         O            1.435910002408     0.104472534402     0.563600022233    15.994914619570
         O            0.158767002408     0.105254534402    -1.713590977767    15.994914619570
         O            0.348761002408    -2.089259465598    -0.296137977767    15.994914619570
         O            3.478837002408    -0.663757465598    -0.892245977767    15.994914619570
         O            3.110417002408     1.848929534402    -0.382996977767    15.994914619570
         O            3.788523102408     0.227920034402     1.540326822233    15.994914619570
         C           -4.193829997592     1.609264534402    -0.533947977767    12.000000000000
         H           -4.483155997592     0.951243534402    -1.358323977767     1.007825032230
         H           -4.892585997592     1.467411534402     0.297276022233     1.007825032230
         H           -4.238026997592     2.648341534402    -0.864624977767     1.007825032230

  Nuclear repulsion = 1424.701459289066634
  Reference energy  = -1810.674429547444333

  ==> Basis Set <==

  Basis Set: AUG-CC-PVTZ
    Blend: AUG-CC-PVTZ
    Number of shells: 229
    Number of basis functions: 725
    Number of Cartesian functions: 857
    Spherical Harmonics?: true
    Max angular momentum: 3

  ==> CGRSolver (by Rob Parrish) <==

   Number of roots    =         1
   Preconditioning    =    JACOBI
   Convergence cutoff =     1E-06
   Maximum iterations =       100

  ==> CPHFRHamiltonian (by Rob Parrish) <== 

  ==> MemDFJK: Density-Fitted J/K Matrices <==

    J tasked:                   Yes
    K tasked:                   Yes
    wK tasked:                   No
    OpenMP threads:              32
    Memory [MiB]:             22888
    Algorithm:                 Core
    Schwarz Cutoff:           1E-12
    Mask sparsity (%):      16.6963
    Fitting Condition:        1E-10

   => Auxiliary Basis Set <=

  Basis Set: (AUG-CC-PVTZ AUX)
    Blend: AUG-CC-PVTZ-JKFIT
    Number of shells: 498
    Number of basis functions: 1720
    Number of Cartesian functions: 2146
    Spherical Harmonics?: true
    Max angular momentum: 4

  ==> CPHF Iterations <==

  => Iterations <=

             Iter  Converged  Remaining    Residual
  CGR           1          0          1   8.167E-02
  CGR           2          0          1   1.884E-02
  CGR           3          0          1   7.235E-03
  CGR           4          0          1   2.445E-03
  CGR           5          0          1   8.847E-04
  CGR           6          0          1   2.329E-04
  CGR           7          0          1   6.797E-05
  CGR           8          0          1   2.895E-05
  CGR           9          0          1   8.607E-06
  CGR          10          0          1   2.695E-06
  CGR          11          1          0   8.974E-07

    CGRSolver converged.

	-----------------------------------------------------------
	 ==================> DF-MP2 Energies <==================== 
	-----------------------------------------------------------
	 Reference Energy          =   -1810.6744295474443334 [Eh]
	 Singles Energy            =      -0.0000000000000000 [Eh]
	 Same-Spin Energy          =      -0.9127226050913737 [Eh]
	 Opposite-Spin Energy      =      -2.5261519439546638 [Eh]
	 Correlation Energy        =      -3.4388745490460373 [Eh]
	 Total Energy              =   -1814.1133040964903103 [Eh]
	-----------------------------------------------------------
	 ================> DF-SCS-MP2 Energies <================== 
	-----------------------------------------------------------
	 SCS Same-Spin Scale       =       0.3333333333333333 [-]
	 SCS Opposite-Spin Scale   =       1.2000000000000000 [-]
	 SCS Same-Spin Energy      =      -0.3042408683637912 [Eh]
	 SCS Opposite-Spin Energy  =      -3.0313823327455967 [Eh]
	 SCS Correlation Energy    =      -3.3356232011093878 [Eh]
	 SCS Total Energy          =   -1814.0100527485537896 [Eh]
	-----------------------------------------------------------



Properties will be evaluated at   0.000000,  -0.000000,  -0.000000 [a0]

Properties computed using the MP2 density matrix

  Nuclear Dipole Moment: [e a0]
     X:   -13.5327      Y:     5.1070      Z:    -1.9344

  Electronic Dipole Moment: [e a0]
     X:     7.6004      Y:    -4.0343      Z:     1.8784

  Dipole Moment: [e a0]
     X:    -5.9323      Y:     1.0727      Z:    -0.0560     Total:     6.0287

  Dipole Moment: [D]
     X:   -15.0783      Y:     2.7265      Z:    -0.1424     Total:    15.3235


*** tstop() called on c445-113.stampede2.tacc.utexas.edu at Sat Mar 20 07:29:20 2021
Module time:
	user time   =    3937.75 seconds =      65.63 minutes
	system time =     112.55 seconds =       1.88 minutes
	total time  =        592 seconds =       9.87 minutes
Total time:
	user time   =    5047.99 seconds =      84.13 minutes
	system time =     194.44 seconds =       3.24 minutes
	total time  =        658 seconds =      10.97 minutes

    Psi4 stopped on: Saturday, 20 March 2021 07:29AM
    Psi4 wall time for execution: 0:11:00.16

*** Psi4 exiting successfully. Buy a developer a beer!
