
    -----------------------------------------------------------------------
          Psi4: An Open-Source Ab Initio Electronic Structure Package
                               Psi4 1.4a3.dev225 

                         Git: Rev {master} 7105e37 


    D. G. A. Smith, L. A. Burns, A. C. Simmonett, R. M. Parrish,
    M. C. Schieber, R. Galvelis, P. Kraus, H. Kruse, R. Di Remigio,
    A. Alenaizan, A. M. James, S. Lehtola, J. P. Misiewicz, M. Scheurer,
    R. A. Shaw, J. B. Schriber, Y. Xie, Z. L. Glick, D. A. Sirianni,
    J. S. O'Brien, J. M. Waldrop, A. Kumar, E. G. Hohenstein,
    B. P. Pritchard, B. R. Brooks, H. F. Schaefer III, A. Yu. Sokolov,
    K. Patkowski, A. E. DePrince III, U. Bozkaya, R. A. King,
    F. A. Evangelista, J. M. Turney, T. D. Crawford, C. D. Sherrill,
    J. Chem. Phys. 152(18) 184108 (2020). https://doi.org/10.1063/5.0006002

                            Additional Code Authors
    E. T. Seidl, C. L. Janssen, E. F. Valeev, M. L. Leininger,
    J. F. Gonthier, R. M. Richard, H. R. McAlexander, M. Saitow, X. Wang,
    P. Verma, and M. H. Lechner

             Previous Authors, Complete List of Code Contributors,
                       and Citations for Specific Modules
    https://github.com/psi4/psi4/blob/master/codemeta.json
    https://github.com/psi4/psi4/graphs/contributors
    http://psicode.org/psi4manual/master/introduction.html#citing-psifour

    -----------------------------------------------------------------------


    Psi4 started on: Saturday, 06 March 2021 01:30PM

    Process ID: 83631
    Host:       c419-121.stampede2.tacc.utexas.edu
    PSIDATADIR: /home1/07844/xy3866/miniconda3/envs/p4env/share/psi4
    Memory:     500.0 MiB
    Threads:    32
    
  ==> Input File <==

--------------------------------------------------------------------------
#psi4
#
memory 32 gb

molecule  {
0 1
  O       -0.0048250     2.1741760     0.2178480
  O        2.2663170     0.9084740    -0.5920830
  C        0.2215980    -0.1887240    -0.0416380
  C       -0.7162776     1.1129093     0.0966223
  C       -0.3937360    -1.4453650    -0.1432710
  C        1.7133810    -0.0735570    -0.1011180
  C       -1.9917600     0.8092840     0.0995930
  C       -1.7801750    -1.5845230    -0.1400000
  C       -2.5802090    -0.4482640    -0.0192820
  C        2.5274150    -1.2247570     0.4590770
  H        0.2262520    -2.3327300    -0.2378970
  H       -2.6178000     1.6952910     0.2019520
  H       -2.2312480    -2.5684970    -0.2333300
  H       -3.6639410    -0.5356590    -0.0094230
  H        2.1619230    -1.5277990     1.4440180
  H        3.5676560    -0.9027370     0.5247450
  H        2.4738770    -2.0960730    -0.2017770
  H       -0.7089870     2.8349930     0.3487360
units angstrom
no_reorient  #important for SAPT in psi4, default
symmetry c1  #important for SAPT in psi4, default
}

set PROPERTIES_ORIGIN ["COM"]
properties('MP2/aug-cc-pvtz', properties = ['dipole'])
--------------------------------------------------------------------------

  Memory set to  29.802 GiB by Python driver.
    SCF Algorithm Type (re)set to DF.

*** tstart() called on c419-121.stampede2.tacc.utexas.edu
*** at Sat Mar  6 13:30:39 2021

   => Loading Basis Set <=

    Name: AUG-CC-PVTZ
    Role: ORBITAL
    Keyword: BASIS
    atoms 1-2   entry O          line   331 file /home1/07844/xy3866/miniconda3/envs/p4env/share/psi4/basis/aug-cc-pvtz.gbs 
    atoms 3-10  entry C          line   239 file /home1/07844/xy3866/miniconda3/envs/p4env/share/psi4/basis/aug-cc-pvtz.gbs 
    atoms 11-18 entry H          line    40 file /home1/07844/xy3866/miniconda3/envs/p4env/share/psi4/basis/aug-cc-pvtz.gbs 


         ---------------------------------------------------------
                                   SCF
               by Justin Turney, Rob Parrish, Andy Simmonett
                          and Daniel G. A. Smith
                              RHF Reference
                       32 Threads,  30517 MiB Core
         ---------------------------------------------------------

  ==> Geometry <==

    Molecular point group: c1
    Full point group: C1

    Geometry (in Angstrom), charge = 0, multiplicity = 1:

       Center              X                  Y                   Z               Mass       
    ------------   -----------------  -----------------  -----------------  -----------------
         O           -0.000243977286     2.120409689998     0.229715913764    15.994914619570
         O            2.270898022714     0.854707689998    -0.580215086236    15.994914619570
         C            0.226179022714    -0.242490310002    -0.029770086236    12.000000000000
         C           -0.711696577286     1.059142989998     0.108490213764    12.000000000000
         C           -0.389154977286    -1.499131310002    -0.131403086236    12.000000000000
         C            1.717962022714    -0.127323310002    -0.089250086236    12.000000000000
         C           -1.987178977286     0.755517689998     0.111460913764    12.000000000000
         C           -1.775593977286    -1.638289310002    -0.128132086236    12.000000000000
         C           -2.575627977286    -0.502030310002    -0.007414086236    12.000000000000
         C            2.531996022714    -1.278523310002     0.470944913764    12.000000000000
         H            0.230833022714    -2.386496310002    -0.226029086236     1.007825032230
         H           -2.613218977286     1.641524689998     0.213819913764     1.007825032230
         H           -2.226666977286    -2.622263310002    -0.221462086236     1.007825032230
         H           -3.659359977286    -0.589425310002     0.002444913764     1.007825032230
         H            2.166504022714    -1.581565310002     1.455885913764     1.007825032230
         H            3.572237022714    -0.956503310002     0.536612913764     1.007825032230
         H            2.478458022714    -2.149839310002    -0.189909086236     1.007825032230
         H           -0.704405977286     2.781226689998     0.360603913764     1.007825032230

  Running in c1 symmetry.

  Rotational constants: A =      0.07320  B =      0.03914  C =      0.02650 [cm^-1]
  Rotational constants: A =   2194.36827  B =   1173.53031  C =    794.38441 [MHz]
  Nuclear repulsion =  493.549638056729634

  Charge       = 0
  Multiplicity = 1
  Electrons    = 72
  Nalpha       = 36
  Nbeta        = 36

  ==> Algorithm <==

  SCF Algorithm Type is DF.
  DIIS enabled.
  MOM disabled.
  Fractional occupation disabled.
  Guess Type is SAD.
  Energy threshold   = 1.00e-10
  Density threshold  = 1.00e-10
  Integral threshold = 1.00e-12

  ==> Primary Basis <==

  Basis Set: AUG-CC-PVTZ
    Blend: AUG-CC-PVTZ
    Number of shells: 212
    Number of basis functions: 644
    Number of Cartesian functions: 750
    Spherical Harmonics?: true
    Max angular momentum: 3

   => Loading Basis Set <=

    Name: (AUG-CC-PVTZ AUX)
    Role: JKFIT
    Keyword: DF_BASIS_SCF
    atoms 1-2   entry O          line   286 file /home1/07844/xy3866/miniconda3/envs/p4env/share/psi4/basis/aug-cc-pvtz-jkfit.gbs 
    atoms 3-10  entry C          line   162 file /home1/07844/xy3866/miniconda3/envs/p4env/share/psi4/basis/aug-cc-pvtz-jkfit.gbs 
    atoms 11-18 entry H          line    70 file /home1/07844/xy3866/miniconda3/envs/p4env/share/psi4/basis/aug-cc-pvtz-jkfit.gbs 

  ==> Integral Setup <==

  DFHelper Memory: AOs need 4.154 GiB; user supplied 22.352 GiB. Using in-core AOs.

  ==> MemDFJK: Density-Fitted J/K Matrices <==

    J tasked:                   Yes
    K tasked:                   Yes
    wK tasked:                   No
    OpenMP threads:              32
    Memory [MiB]:             22888
    Algorithm:                 Core
    Schwarz Cutoff:           1E-12
    Mask sparsity (%):       9.0525
    Fitting Condition:        1E-10

   => Auxiliary Basis Set <=

  Basis Set: (AUG-CC-PVTZ AUX)
    Blend: AUG-CC-PVTZ-JKFIT
    Number of shells: 412
    Number of basis functions: 1408
    Number of Cartesian functions: 1750
    Spherical Harmonics?: true
    Max angular momentum: 4

  Minimum eigenvalue in the overlap matrix is 6.8774850206E-07.
  Reciprocal condition number of the overlap matrix is 3.7235885631E-08.
    Using symmetric orthogonalization.

  ==> Pre-Iterations <==

  SCF Guess: Superposition of Atomic Densities via on-the-fly atomic UHF (no occupation information).

   -------------------------
    Irrep   Nso     Nmo    
   -------------------------
     A        644     644 
   -------------------------
    Total     644     644
   -------------------------

  ==> Iterations <==

                           Total Energy        Delta E     RMS |[F,P]|

   @DF-RHF iter SAD:  -456.58450286398249   -4.56585e+02   0.00000e+00 
   @DF-RHF iter   1:  -457.12681899598635   -5.42316e-01   1.17472e-03 DIIS
   @DF-RHF iter   2:  -457.37119177176288   -2.44373e-01   6.33249e-04 DIIS
   @DF-RHF iter   3:  -457.43407235622220   -6.28806e-02   1.34856e-04 DIIS
   @DF-RHF iter   4:  -457.43853020086442   -4.45784e-03   6.63460e-05 DIIS
   @DF-RHF iter   5:  -457.43955949519358   -1.02929e-03   1.28836e-05 DIIS
   @DF-RHF iter   6:  -457.43965111730569   -9.16221e-05   6.30870e-06 DIIS
   @DF-RHF iter   7:  -457.43967603108496   -2.49138e-05   2.86011e-06 DIIS
   @DF-RHF iter   8:  -457.43968268137900   -6.65029e-06   1.13850e-06 DIIS
   @DF-RHF iter   9:  -457.43968399816833   -1.31679e-06   4.98042e-07 DIIS
   @DF-RHF iter  10:  -457.43968423166564   -2.33497e-07   1.82813e-07 DIIS
   @DF-RHF iter  11:  -457.43968427171899   -4.00534e-08   7.80146e-08 DIIS
   @DF-RHF iter  12:  -457.43968427830134   -6.58235e-09   4.46488e-08 DIIS
   @DF-RHF iter  13:  -457.43968428008486   -1.78352e-09   1.63978e-08 DIIS
   @DF-RHF iter  14:  -457.43968428040273   -3.17868e-10   7.11454e-09 DIIS
   @DF-RHF iter  15:  -457.43968428044360   -4.08704e-11   2.93867e-09 DIIS
   @DF-RHF iter  16:  -457.43968428045036   -6.76437e-12   1.16603e-09 DIIS
   @DF-RHF iter  17:  -457.43968428045071   -3.41061e-13   6.69867e-10 DIIS
   @DF-RHF iter  18:  -457.43968428045366   -2.95586e-12   2.16454e-10 DIIS
   @DF-RHF iter  19:  -457.43968428045366    0.00000e+00   1.07283e-10 DIIS
   @DF-RHF iter  20:  -457.43968428045167    1.98952e-12   4.09762e-11 DIIS
  Energy and wave function converged.


  ==> Post-Iterations <==

    Orbital Energies [Eh]
    ---------------------

    Doubly Occupied:                                                      

       1A    -20.621418     2A    -20.534094     3A    -11.331201  
       4A    -11.329879     5A    -11.261759     6A    -11.258015  
       7A    -11.256800     8A    -11.238677     9A    -11.233336  
      10A    -11.230498    11A     -1.468439    12A     -1.365078  
      13A     -1.154540    14A     -1.054908    15A     -1.022392  
      16A     -0.982423    17A     -0.876943    18A     -0.846925  
      19A     -0.768900    20A     -0.743476    21A     -0.692017  
      22A     -0.672812    23A     -0.631319    24A     -0.626748  
      25A     -0.616179    26A     -0.610239    27A     -0.594115  
      28A     -0.578200    29A     -0.551401    30A     -0.538713  
      31A     -0.501441    32A     -0.485203    33A     -0.472816  
      34A     -0.405358    35A     -0.362499    36A     -0.312019  

    Virtual:                                                              

      37A      0.023147    38A      0.028810    39A      0.033523  
      40A      0.043001    41A      0.046076    42A      0.052432  
      43A      0.062655    44A      0.066734    45A      0.072505  
      46A      0.082708    47A      0.086554    48A      0.097166  
      49A      0.099703    50A      0.105710    51A      0.113314  
      52A      0.114407    53A      0.116306    54A      0.119120  
      55A      0.125084    56A      0.129285    57A      0.130951  
      58A      0.134604    59A      0.139889    60A      0.143236  
      61A      0.148463    62A      0.151808    63A      0.153766  
      64A      0.158945    65A      0.161321    66A      0.172688  
      67A      0.174800    68A      0.178591    69A      0.186889  
      70A      0.192616    71A      0.199517    72A      0.204665  
      73A      0.216264    74A      0.225316    75A      0.229015  
      76A      0.235069    77A      0.245259    78A      0.249149  
      79A      0.250103    80A      0.257551    81A      0.262346  
      82A      0.270262    83A      0.271034    84A      0.284309  
      85A      0.292485    86A      0.294326    87A      0.301142  
      88A      0.302871    89A      0.307822    90A      0.309789  
      91A      0.316530    92A      0.316834    93A      0.318879  
      94A      0.326682    95A      0.335629    96A      0.337531  
      97A      0.340888    98A      0.346370    99A      0.352222  
     100A      0.359158   101A      0.360778   102A      0.366758  
     103A      0.374823   104A      0.384121   105A      0.390159  
     106A      0.397054   107A      0.399707   108A      0.405007  
     109A      0.407097   110A      0.412311   111A      0.415272  
     112A      0.422291   113A      0.427091   114A      0.436523  
     115A      0.440236   116A      0.444590   117A      0.449653  
     118A      0.453186   119A      0.457115   120A      0.460472  
     121A      0.461475   122A      0.467058   123A      0.475677  
     124A      0.481976   125A      0.483897   126A      0.491310  
     127A      0.496843   128A      0.499760   129A      0.502623  
     130A      0.506026   131A      0.508783   132A      0.513964  
     133A      0.518534   134A      0.521241   135A      0.529900  
     136A      0.533482   137A      0.537541   138A      0.541324  
     139A      0.548474   140A      0.553025   141A      0.565728  
     142A      0.571924   143A      0.577671   144A      0.590399  
     145A      0.600090   146A      0.603810   147A      0.611410  
     148A      0.614394   149A      0.624726   150A      0.628912  
     151A      0.638618   152A      0.647262   153A      0.654439  
     154A      0.660920   155A      0.667092   156A      0.679824  
     157A      0.693929   158A      0.701489   159A      0.704424  
     160A      0.712977   161A      0.719099   162A      0.722149  
     163A      0.725373   164A      0.744183   165A      0.746314  
     166A      0.749144   167A      0.763622   168A      0.773554  
     169A      0.774329   170A      0.781365   171A      0.785605  
     172A      0.799472   173A      0.810212   174A      0.815450  
     175A      0.818330   176A      0.829428   177A      0.833446  
     178A      0.841133   179A      0.850425   180A      0.850942  
     181A      0.853609   182A      0.859932   183A      0.864511  
     184A      0.876179   185A      0.880837   186A      0.883092  
     187A      0.889630   188A      0.898244   189A      0.901844  
     190A      0.905536   191A      0.912875   192A      0.919022  
     193A      0.927730   194A      0.931713   195A      0.937097  
     196A      0.939035   197A      0.947841   198A      0.953988  
     199A      0.957490   200A      0.963653   201A      0.967361  
     202A      0.980638   203A      0.987923   204A      0.994049  
     205A      0.998986   206A      1.001701   207A      1.008794  
     208A      1.013709   209A      1.018219   210A      1.025736  
     211A      1.034420   212A      1.037619   213A      1.044705  
     214A      1.046821   215A      1.049533   216A      1.062282  
     217A      1.071845   218A      1.074467   219A      1.085053  
     220A      1.086106   221A      1.090870   222A      1.099871  
     223A      1.101111   224A      1.105997   225A      1.108539  
     226A      1.116985   227A      1.124972   228A      1.130574  
     229A      1.136141   230A      1.144635   231A      1.150906  
     232A      1.152225   233A      1.158045   234A      1.173210  
     235A      1.175001   236A      1.181134   237A      1.188091  
     238A      1.195019   239A      1.199754   240A      1.208074  
     241A      1.214398   242A      1.220340   243A      1.225585  
     244A      1.236884   245A      1.241587   246A      1.247036  
     247A      1.254023   248A      1.255988   249A      1.271724  
     250A      1.280736   251A      1.285838   252A      1.292107  
     253A      1.296908   254A      1.310684   255A      1.315633  
     256A      1.330309   257A      1.342160   258A      1.351765  
     259A      1.354435   260A      1.359731   261A      1.375047  
     262A      1.382976   263A      1.390520   264A      1.393795  
     265A      1.399704   266A      1.409105   267A      1.418630  
     268A      1.425368   269A      1.429208   270A      1.445561  
     271A      1.457826   272A      1.470989   273A      1.480579  
     274A      1.497185   275A      1.508323   276A      1.512958  
     277A      1.514289   278A      1.526057   279A      1.544602  
     280A      1.550380   281A      1.559855   282A      1.566353  
     283A      1.578877   284A      1.582249   285A      1.601186  
     286A      1.603562   287A      1.615063   288A      1.639666  
     289A      1.646461   290A      1.657373   291A      1.662349  
     292A      1.680308   293A      1.686172   294A      1.691374  
     295A      1.699941   296A      1.707294   297A      1.714761  
     298A      1.730655   299A      1.731780   300A      1.733218  
     301A      1.749589   302A      1.755295   303A      1.761147  
     304A      1.781183   305A      1.785643   306A      1.791079  
     307A      1.800756   308A      1.812070   309A      1.813676  
     310A      1.819868   311A      1.825029   312A      1.840259  
     313A      1.848460   314A      1.859061   315A      1.863218  
     316A      1.873322   317A      1.890804   318A      1.896316  
     319A      1.901362   320A      1.919945   321A      1.931964  
     322A      1.937206   323A      1.953419   324A      1.968436  
     325A      1.972005   326A      1.992056   327A      1.998273  
     328A      2.010782   329A      2.013108   330A      2.018073  
     331A      2.035653   332A      2.045798   333A      2.051593  
     334A      2.056564   335A      2.073247   336A      2.080704  
     337A      2.082640   338A      2.092361   339A      2.101850  
     340A      2.104374   341A      2.117504   342A      2.134486  
     343A      2.142194   344A      2.150227   345A      2.161186  
     346A      2.164393   347A      2.198867   348A      2.208926  
     349A      2.225911   350A      2.231765   351A      2.245174  
     352A      2.256787   353A      2.274543   354A      2.281134  
     355A      2.289198   356A      2.299222   357A      2.309896  
     358A      2.321429   359A      2.329660   360A      2.351723  
     361A      2.356368   362A      2.377004   363A      2.419048  
     364A      2.425139   365A      2.433487   366A      2.440942  
     367A      2.451599   368A      2.474783   369A      2.491943  
     370A      2.494994   371A      2.508283   372A      2.530014  
     373A      2.551234   374A      2.572165   375A      2.576412  
     376A      2.592143   377A      2.604275   378A      2.621767  
     379A      2.637769   380A      2.657065   381A      2.668288  
     382A      2.678666   383A      2.696137   384A      2.703611  
     385A      2.735295   386A      2.745276   387A      2.773238  
     388A      2.783464   389A      2.805223   390A      2.819927  
     391A      2.842018   392A      2.845136   393A      2.860882  
     394A      2.889660   395A      2.910667   396A      2.934673  
     397A      2.948329   398A      2.953778   399A      2.993760  
     400A      3.015998   401A      3.054910   402A      3.072311  
     403A      3.082370   404A      3.108356   405A      3.121903  
     406A      3.143938   407A      3.187620   408A      3.202819  
     409A      3.211434   410A      3.233721   411A      3.252449  
     412A      3.272910   413A      3.285257   414A      3.310441  
     415A      3.331174   416A      3.336567   417A      3.347845  
     418A      3.362238   419A      3.373984   420A      3.385849  
     421A      3.402543   422A      3.414041   423A      3.423278  
     424A      3.430892   425A      3.453540   426A      3.468554  
     427A      3.470647   428A      3.484356   429A      3.493095  
     430A      3.505145   431A      3.522507   432A      3.531427  
     433A      3.539781   434A      3.557642   435A      3.570166  
     436A      3.576388   437A      3.587357   438A      3.604664  
     439A      3.619523   440A      3.630300   441A      3.632422  
     442A      3.645823   443A      3.654425   444A      3.656297  
     445A      3.673778   446A      3.681209   447A      3.698651  
     448A      3.713193   449A      3.722938   450A      3.732793  
     451A      3.756507   452A      3.764890   453A      3.771371  
     454A      3.780441   455A      3.808919   456A      3.820959  
     457A      3.836865   458A      3.845457   459A      3.847971  
     460A      3.855518   461A      3.868473   462A      3.875802  
     463A      3.902443   464A      3.911679   465A      3.919599  
     466A      3.938605   467A      3.942133   468A      3.952370  
     469A      3.965746   470A      3.977628   471A      3.991178  
     472A      3.996798   473A      4.007008   474A      4.018723  
     475A      4.027926   476A      4.038231   477A      4.055762  
     478A      4.071577   479A      4.078023   480A      4.087894  
     481A      4.095571   482A      4.107821   483A      4.125893  
     484A      4.137675   485A      4.148042   486A      4.161034  
     487A      4.172054   488A      4.179093   489A      4.192039  
     490A      4.201120   491A      4.218405   492A      4.233000  
     493A      4.243415   494A      4.254253   495A      4.267797  
     496A      4.279832   497A      4.289477   498A      4.307193  
     499A      4.317639   500A      4.328064   501A      4.342161  
     502A      4.351429   503A      4.360759   504A      4.361652  
     505A      4.383169   506A      4.386775   507A      4.410196  
     508A      4.419206   509A      4.430869   510A      4.438616  
     511A      4.460494   512A      4.465062   513A      4.470201  
     514A      4.491929   515A      4.507017   516A      4.535358  
     517A      4.545098   518A      4.555508   519A      4.560690  
     520A      4.578137   521A      4.599190   522A      4.619040  
     523A      4.625341   524A      4.652546   525A      4.668148  
     526A      4.686503   527A      4.709374   528A      4.717454  
     529A      4.739876   530A      4.753470   531A      4.771476  
     532A      4.780120   533A      4.798448   534A      4.811267  
     535A      4.831675   536A      4.863816   537A      4.871250  
     538A      4.884061   539A      4.894433   540A      4.917857  
     541A      4.929540   542A      4.960400   543A      4.972498  
     544A      4.991311   545A      5.001377   546A      5.010027  
     547A      5.031840   548A      5.043805   549A      5.067616  
     550A      5.092761   551A      5.098212   552A      5.112484  
     553A      5.133826   554A      5.142387   555A      5.160237  
     556A      5.164693   557A      5.181535   558A      5.205047  
     559A      5.211023   560A      5.228294   561A      5.262893  
     562A      5.279970   563A      5.286721   564A      5.309232  
     565A      5.323585   566A      5.329008   567A      5.365917  
     568A      5.382177   569A      5.388506   570A      5.414549  
     571A      5.432514   572A      5.458512   573A      5.468309  
     574A      5.497789   575A      5.517590   576A      5.571414  
     577A      5.600260   578A      5.610598   579A      5.623114  
     580A      5.644274   581A      5.681538   582A      5.697094  
     583A      5.711198   584A      5.733447   585A      5.778839  
     586A      5.841881   587A      5.871297   588A      5.963184  
     589A      5.988563   590A      6.018310   591A      6.067612  
     592A      6.104344   593A      6.144111   594A      6.160063  
     595A      6.181834   596A      6.199406   597A      6.216524  
     598A      6.294140   599A      6.347986   600A      6.474728  
     601A      6.515257   602A      6.597875   603A      6.633781  
     604A      6.679953   605A      6.747985   606A      6.772969  
     607A      6.803116   608A      6.806737   609A      6.834112  
     610A      6.865357   611A      6.925395   612A      6.989094  
     613A      7.050399   614A      7.075265   615A      7.089182  
     616A      7.121697   617A      7.236705   618A      7.259049  
     619A      7.277773   620A      7.433862   621A      7.457594  
     622A      7.484967   623A      7.499268   624A      7.582994  
     625A      7.653919   626A      7.670313   627A      7.697851  
     628A      7.782740   629A      7.897634   630A      7.955481  
     631A      7.997572   632A      8.047435   633A      8.400372  
     634A      8.709428   635A     15.241667   636A     16.022686  
     637A     16.587005   638A     17.033940   639A     18.284304  
     640A     18.861078   641A     19.103007   642A     20.000717  
     643A     20.038559   644A     20.597847  

    Final Occupation by Irrep:
              A 
    DOCC [    36 ]

  @DF-RHF Final Energy:  -457.43968428045167

   => Energetics <=

    Nuclear Repulsion Energy =            493.5496380567296342
    One-Electron Energy =               -1601.5170822751460946
    Two-Electron Energy =                 650.5277599379647882
    Total Energy =                       -457.4396842804516155

Computation Completed

*** tstop() called on c419-121.stampede2.tacc.utexas.edu at Sat Mar  6 13:31:15 2021
Module time:
	user time   =     660.07 seconds =      11.00 minutes
	system time =      48.30 seconds =       0.81 minutes
	total time  =         36 seconds =       0.60 minutes
Total time:
	user time   =     660.07 seconds =      11.00 minutes
	system time =      48.30 seconds =       0.81 minutes
	total time  =         36 seconds =       0.60 minutes
   => Loading Basis Set <=

    Name: (AUG-CC-PVTZ AUX)
    Role: RIFIT
    Keyword: DF_BASIS_MP2
    atoms 1-2   entry O          line   264 file /home1/07844/xy3866/miniconda3/envs/p4env/share/psi4/basis/aug-cc-pvtz-ri.gbs 
    atoms 3-10  entry C          line   148 file /home1/07844/xy3866/miniconda3/envs/p4env/share/psi4/basis/aug-cc-pvtz-ri.gbs 
    atoms 11-18 entry H          line    30 file /home1/07844/xy3866/miniconda3/envs/p4env/share/psi4/basis/aug-cc-pvtz-ri.gbs 


*** tstart() called on c419-121.stampede2.tacc.utexas.edu
*** at Sat Mar  6 13:31:16 2021


  //>>>>>>>>>>>>>>>>>>>>>>>>>>>>>>>>>>>//
  //               DFMP2               //
  //<<<<<<<<<<<<<<<<<<<<<<<<<<<<<<<<<<<//

	 --------------------------------------------------------
	                          DF-MP2                         
	      2nd-Order Density-Fitted Moller-Plesset Theory     
	              RMP2 Wavefunction,  32 Threads             
	                                                         
	        Rob Parrish, Justin Turney, Andy Simmonett,      
	           Ed Hohenstein, and C. David Sherrill          
	 --------------------------------------------------------

   => Auxiliary Basis Set <=

  Basis Set: (AUG-CC-PVTZ AUX)
    Blend: AUG-CC-PVTZ-RI
    Number of shells: 392
    Number of basis functions: 1428
    Number of Cartesian functions: 1800
    Spherical Harmonics?: true
    Max angular momentum: 4

	 --------------------------------------------------------
	                 NBF =   644, NAUX =  1428
	 --------------------------------------------------------
	   CLASS    FOCC     OCC    AOCC    AVIR     VIR    FVIR
	   PAIRS       0      36      36     608     608       0
	 --------------------------------------------------------

  DFHelper Memory: AOs need 4.316 GiB; user supplied 22.352 GiB. Using in-core AOs.


         ------------------------------------------------------------
                                     CPHF                           
                                  Rob Parrish                       
         ------------------------------------------------------------

  ==> Geometry <==

    Molecular point group: c1
    Full point group: C1

    Geometry (in Angstrom), charge = 0, multiplicity = 1:

       Center              X                  Y                   Z               Mass       
    ------------   -----------------  -----------------  -----------------  -----------------
         O           -0.000243977286     2.120409689998     0.229715913764    15.994914619570
         O            2.270898022714     0.854707689998    -0.580215086236    15.994914619570
         C            0.226179022714    -0.242490310002    -0.029770086236    12.000000000000
         C           -0.711696577286     1.059142989998     0.108490213764    12.000000000000
         C           -0.389154977286    -1.499131310002    -0.131403086236    12.000000000000
         C            1.717962022714    -0.127323310002    -0.089250086236    12.000000000000
         C           -1.987178977286     0.755517689998     0.111460913764    12.000000000000
         C           -1.775593977286    -1.638289310002    -0.128132086236    12.000000000000
         C           -2.575627977286    -0.502030310002    -0.007414086236    12.000000000000
         C            2.531996022714    -1.278523310002     0.470944913764    12.000000000000
         H            0.230833022714    -2.386496310002    -0.226029086236     1.007825032230
         H           -2.613218977286     1.641524689998     0.213819913764     1.007825032230
         H           -2.226666977286    -2.622263310002    -0.221462086236     1.007825032230
         H           -3.659359977286    -0.589425310002     0.002444913764     1.007825032230
         H            2.166504022714    -1.581565310002     1.455885913764     1.007825032230
         H            3.572237022714    -0.956503310002     0.536612913764     1.007825032230
         H            2.478458022714    -2.149839310002    -0.189909086236     1.007825032230
         H           -0.704405977286     2.781226689998     0.360603913764     1.007825032230

  Nuclear repulsion =  493.549638056729634
  Reference energy  = -457.439684280451672

  ==> Basis Set <==

  Basis Set: AUG-CC-PVTZ
    Blend: AUG-CC-PVTZ
    Number of shells: 212
    Number of basis functions: 644
    Number of Cartesian functions: 750
    Spherical Harmonics?: true
    Max angular momentum: 3

  ==> CGRSolver (by Rob Parrish) <==

   Number of roots    =         1
   Preconditioning    =    JACOBI
   Convergence cutoff =     1E-06
   Maximum iterations =       100

  ==> CPHFRHamiltonian (by Rob Parrish) <== 

  ==> MemDFJK: Density-Fitted J/K Matrices <==

    J tasked:                   Yes
    K tasked:                   Yes
    wK tasked:                   No
    OpenMP threads:              32
    Memory [MiB]:             22888
    Algorithm:                 Core
    Schwarz Cutoff:           1E-12
    Mask sparsity (%):       5.3297
    Fitting Condition:        1E-10

   => Auxiliary Basis Set <=

  Basis Set: (AUG-CC-PVTZ AUX)
    Blend: AUG-CC-PVTZ-JKFIT
    Number of shells: 412
    Number of basis functions: 1408
    Number of Cartesian functions: 1750
    Spherical Harmonics?: true
    Max angular momentum: 4

  ==> CPHF Iterations <==

  => Iterations <=

             Iter  Converged  Remaining    Residual
  CGR           1          0          1   1.218E-01
  CGR           2          0          1   4.359E-02
  CGR           3          0          1   2.422E-02
  CGR           4          0          1   9.785E-03
  CGR           5          0          1   4.132E-03
  CGR           6          0          1   1.660E-03
  CGR           7          0          1   6.490E-04
  CGR           8          0          1   3.604E-04
  CGR           9          0          1   1.568E-04
  CGR          10          0          1   5.423E-05
  CGR          11          0          1   1.984E-05
  CGR          12          0          1   5.676E-06
  CGR          13          0          1   2.398E-06
  CGR          14          1          0   9.679E-07

    CGRSolver converged.

	-----------------------------------------------------------
	 ==================> DF-MP2 Energies <==================== 
	-----------------------------------------------------------
	 Reference Energy          =    -457.4396842804516723 [Eh]
	 Singles Energy            =      -0.0000000000000000 [Eh]
	 Same-Spin Energy          =      -0.4787108393428382 [Eh]
	 Opposite-Spin Energy      =      -1.4757746332385011 [Eh]
	 Correlation Energy        =      -1.9544854725813394 [Eh]
	 Total Energy              =    -459.3941697530329975 [Eh]
	-----------------------------------------------------------
	 ================> DF-SCS-MP2 Energies <================== 
	-----------------------------------------------------------
	 SCS Same-Spin Scale       =       0.3333333333333333 [-]
	 SCS Opposite-Spin Scale   =       1.2000000000000000 [-]
	 SCS Same-Spin Energy      =      -0.1595702797809461 [Eh]
	 SCS Opposite-Spin Energy  =      -1.7709295598862014 [Eh]
	 SCS Correlation Energy    =      -1.9304998396671473 [Eh]
	 SCS Total Energy          =    -459.3701841201188358 [Eh]
	-----------------------------------------------------------



Properties will be evaluated at   0.000000,  -0.000000,   0.000000 [a0]

Properties computed using the MP2 density matrix

  Nuclear Dipole Moment: [e a0]
     X:    -0.6975      Y:    -5.4824      Z:     1.8095

  Electronic Dipole Moment: [e a0]
     X:    -0.4114      Y:     5.1161      Z:    -1.2994

  Dipole Moment: [e a0]
     X:    -1.1089      Y:    -0.3663      Z:     0.5100     Total:     1.2743

  Dipole Moment: [D]
     X:    -2.8185      Y:    -0.9310      Z:     1.2964     Total:     3.2390


*** tstop() called on c419-121.stampede2.tacc.utexas.edu at Sat Mar  6 13:34:44 2021
Module time:
	user time   =    1795.43 seconds =      29.92 minutes
	system time =      68.13 seconds =       1.14 minutes
	total time  =        208 seconds =       3.47 minutes
Total time:
	user time   =    2456.41 seconds =      40.94 minutes
	system time =     116.45 seconds =       1.94 minutes
	total time  =        245 seconds =       4.08 minutes

    Psi4 stopped on: Saturday, 06 March 2021 01:34PM
    Psi4 wall time for execution: 0:04:05.56

*** Psi4 exiting successfully. Buy a developer a beer!
