
    -----------------------------------------------------------------------
          Psi4: An Open-Source Ab Initio Electronic Structure Package
                               Psi4 1.4a3.dev225 

                         Git: Rev {master} 7105e37 


    D. G. A. Smith, L. A. Burns, A. C. Simmonett, R. M. Parrish,
    M. C. Schieber, R. Galvelis, P. Kraus, H. Kruse, R. Di Remigio,
    A. Alenaizan, A. M. James, S. Lehtola, J. P. Misiewicz, M. Scheurer,
    R. A. Shaw, J. B. Schriber, Y. Xie, Z. L. Glick, D. A. Sirianni,
    J. S. O'Brien, J. M. Waldrop, A. Kumar, E. G. Hohenstein,
    B. P. Pritchard, B. R. Brooks, H. F. Schaefer III, A. Yu. Sokolov,
    K. Patkowski, A. E. DePrince III, U. Bozkaya, R. A. King,
    F. A. Evangelista, J. M. Turney, T. D. Crawford, C. D. Sherrill,
    J. Chem. Phys. 152(18) 184108 (2020). https://doi.org/10.1063/5.0006002

                            Additional Code Authors
    E. T. Seidl, C. L. Janssen, E. F. Valeev, M. L. Leininger,
    J. F. Gonthier, R. M. Richard, H. R. McAlexander, M. Saitow, X. Wang,
    P. Verma, and M. H. Lechner

             Previous Authors, Complete List of Code Contributors,
                       and Citations for Specific Modules
    https://github.com/psi4/psi4/blob/master/codemeta.json
    https://github.com/psi4/psi4/graphs/contributors
    http://psicode.org/psi4manual/master/introduction.html#citing-psifour

    -----------------------------------------------------------------------


    Psi4 started on: Saturday, 06 March 2021 11:45AM

    Process ID: 68490
    Host:       c419-121.stampede2.tacc.utexas.edu
    PSIDATADIR: /home1/07844/xy3866/miniconda3/envs/p4env/share/psi4
    Memory:     500.0 MiB
    Threads:    32
    
  ==> Input File <==

--------------------------------------------------------------------------
#psi4
#
memory 32 gb

molecule  {
0 1
  O       -0.0048250     2.1741760     0.2178480
  O        2.2663170     0.9084740    -0.5920830
  C        0.2215980    -0.1887240    -0.0416380
  C       -0.5997910     0.9512430     0.0794500
  C       -0.3937360    -1.4453650    -0.1432710
  C        1.7133810    -0.0735570    -0.1011180
  C       -1.9917600     0.8092840     0.0995930
  C       -1.7801750    -1.5845230    -0.1400000
  C       -2.5802090    -0.4482640    -0.0192820
  C        2.5274150    -1.2247570     0.4590770
  H        0.2262520    -2.3327300    -0.2378970
  H       -2.6178000     1.6952910     0.2019520
  H       -2.2312480    -2.5684970    -0.2333300
  H       -3.6639410    -0.5356590    -0.0094230
  H        2.1619230    -1.5277990     1.4440180
  H        3.7583646    -0.8437007     0.5367840
  H        2.4738770    -2.0960730    -0.2017770
  H       -0.7089870     2.8349930     0.3487360
units angstrom
no_reorient  #important for SAPT in psi4, default
symmetry c1  #important for SAPT in psi4, default
}

set PROPERTIES_ORIGIN ["COM"]
properties('MP2/aug-cc-pvtz', properties = ['dipole'])
--------------------------------------------------------------------------

  Memory set to  29.802 GiB by Python driver.
    SCF Algorithm Type (re)set to DF.

*** tstart() called on c419-121.stampede2.tacc.utexas.edu
*** at Sat Mar  6 11:45:26 2021

   => Loading Basis Set <=

    Name: AUG-CC-PVTZ
    Role: ORBITAL
    Keyword: BASIS
    atoms 1-2   entry O          line   331 file /home1/07844/xy3866/miniconda3/envs/p4env/share/psi4/basis/aug-cc-pvtz.gbs 
    atoms 3-10  entry C          line   239 file /home1/07844/xy3866/miniconda3/envs/p4env/share/psi4/basis/aug-cc-pvtz.gbs 
    atoms 11-18 entry H          line    40 file /home1/07844/xy3866/miniconda3/envs/p4env/share/psi4/basis/aug-cc-pvtz.gbs 


         ---------------------------------------------------------
                                   SCF
               by Justin Turney, Rob Parrish, Andy Simmonett
                          and Daniel G. A. Smith
                              RHF Reference
                       32 Threads,  30517 MiB Core
         ---------------------------------------------------------

  ==> Geometry <==

    Molecular point group: c1
    Full point group: C1

    Geometry (in Angstrom), charge = 0, multiplicity = 1:

       Center              X                  Y                   Z               Mass       
    ------------   -----------------  -----------------  -----------------  -----------------
         O           -0.011930943163     2.134231547836     0.231141352436    15.994914619570
         O            2.259211056837     0.868529547836    -0.578789647564    15.994914619570
         C            0.214492056837    -0.228668452164    -0.028344647564    12.000000000000
         C           -0.606896943163     0.911298547836     0.092743352436    12.000000000000
         C           -0.400841943163    -1.485309452164    -0.129977647564    12.000000000000
         C            1.706275056837    -0.113501452164    -0.087824647564    12.000000000000
         C           -1.998865943163     0.769339547836     0.112886352436    12.000000000000
         C           -1.787280943163    -1.624467452164    -0.126706647564    12.000000000000
         C           -2.587314943163    -0.488208452164    -0.005988647564    12.000000000000
         C            2.520309056837    -1.264701452164     0.472370352436    12.000000000000
         H            0.219146056837    -2.372674452164    -0.224603647564     1.007825032230
         H           -2.624905943163     1.655346547836     0.215245352436     1.007825032230
         H           -2.238353943163    -2.608441452164    -0.220036647564     1.007825032230
         H           -3.671046943163    -0.575603452164     0.003870352436     1.007825032230
         H            2.154817056837    -1.567743452164     1.457311352436     1.007825032230
         H            3.751258656837    -0.883645152164     0.550077352436     1.007825032230
         H            2.466771056837    -2.136017452164    -0.188483647564     1.007825032230
         H           -0.716092943163     2.795048547836     0.362029352436     1.007825032230

  Running in c1 symmetry.

  Rotational constants: A =      0.07456  B =      0.03916  C =      0.02668 [cm^-1]
  Rotational constants: A =   2235.11739  B =   1174.11957  C =    799.88778 [MHz]
  Nuclear repulsion =  493.997557100259314

  Charge       = 0
  Multiplicity = 1
  Electrons    = 72
  Nalpha       = 36
  Nbeta        = 36

  ==> Algorithm <==

  SCF Algorithm Type is DF.
  DIIS enabled.
  MOM disabled.
  Fractional occupation disabled.
  Guess Type is SAD.
  Energy threshold   = 1.00e-10
  Density threshold  = 1.00e-10
  Integral threshold = 1.00e-12

  ==> Primary Basis <==

  Basis Set: AUG-CC-PVTZ
    Blend: AUG-CC-PVTZ
    Number of shells: 212
    Number of basis functions: 644
    Number of Cartesian functions: 750
    Spherical Harmonics?: true
    Max angular momentum: 3

   => Loading Basis Set <=

    Name: (AUG-CC-PVTZ AUX)
    Role: JKFIT
    Keyword: DF_BASIS_SCF
    atoms 1-2   entry O          line   286 file /home1/07844/xy3866/miniconda3/envs/p4env/share/psi4/basis/aug-cc-pvtz-jkfit.gbs 
    atoms 3-10  entry C          line   162 file /home1/07844/xy3866/miniconda3/envs/p4env/share/psi4/basis/aug-cc-pvtz-jkfit.gbs 
    atoms 11-18 entry H          line    70 file /home1/07844/xy3866/miniconda3/envs/p4env/share/psi4/basis/aug-cc-pvtz-jkfit.gbs 

  ==> Integral Setup <==

  DFHelper Memory: AOs need 4.155 GiB; user supplied 22.352 GiB. Using in-core AOs.

  ==> MemDFJK: Density-Fitted J/K Matrices <==

    J tasked:                   Yes
    K tasked:                   Yes
    wK tasked:                   No
    OpenMP threads:              32
    Memory [MiB]:             22888
    Algorithm:                 Core
    Schwarz Cutoff:           1E-12
    Mask sparsity (%):       9.0265
    Fitting Condition:        1E-10

   => Auxiliary Basis Set <=

  Basis Set: (AUG-CC-PVTZ AUX)
    Blend: AUG-CC-PVTZ-JKFIT
    Number of shells: 412
    Number of basis functions: 1408
    Number of Cartesian functions: 1750
    Spherical Harmonics?: true
    Max angular momentum: 4

  Minimum eigenvalue in the overlap matrix is 6.1455431055E-07.
  Reciprocal condition number of the overlap matrix is 3.3238182494E-08.
    Using symmetric orthogonalization.

  ==> Pre-Iterations <==

  SCF Guess: Superposition of Atomic Densities via on-the-fly atomic UHF (no occupation information).

   -------------------------
    Irrep   Nso     Nmo    
   -------------------------
     A        644     644 
   -------------------------
    Total     644     644
   -------------------------

  ==> Iterations <==

                           Total Energy        Delta E     RMS |[F,P]|

   @DF-RHF iter SAD:  -456.46476914879173   -4.56465e+02   0.00000e+00 
   @DF-RHF iter   1:  -457.15745521308099   -6.92686e-01   1.15622e-03 DIIS
   @DF-RHF iter   2:  -457.39684490773021   -2.39390e-01   6.30770e-04 DIIS
   @DF-RHF iter   3:  -457.45785355481479   -6.10086e-02   1.33151e-04 DIIS
   @DF-RHF iter   4:  -457.46213199041358   -4.27844e-03   6.67317e-05 DIIS
   @DF-RHF iter   5:  -457.46312539551138   -9.93405e-04   1.17137e-05 DIIS
   @DF-RHF iter   6:  -457.46319402974444   -6.86342e-05   5.99465e-06 DIIS
   @DF-RHF iter   7:  -457.46320955047076   -1.55207e-05   2.58363e-06 DIIS
   @DF-RHF iter   8:  -457.46321309364953   -3.54318e-06   9.79240e-07 DIIS
   @DF-RHF iter   9:  -457.46321365397449   -5.60325e-07   3.40212e-07 DIIS
   @DF-RHF iter  10:  -457.46321372508368   -7.11092e-08   1.02543e-07 DIIS
   @DF-RHF iter  11:  -457.46321373320370   -8.12003e-09   3.39649e-08 DIIS
   @DF-RHF iter  12:  -457.46321373416754   -9.63837e-10   1.71826e-08 DIIS
   @DF-RHF iter  13:  -457.46321373438764   -2.20098e-10   7.27789e-09 DIIS
   @DF-RHF iter  14:  -457.46321373445323   -6.55973e-11   3.45655e-09 DIIS
   @DF-RHF iter  15:  -457.46321373447040   -1.71667e-11   1.34977e-09 DIIS
   @DF-RHF iter  16:  -457.46321373447245   -2.04636e-12   5.17066e-10 DIIS
   @DF-RHF iter  17:  -457.46321373447341   -9.66338e-13   2.23851e-10 DIIS
   @DF-RHF iter  18:  -457.46321373447154    1.87583e-12   7.61104e-11 DIIS
  Energy and wave function converged.


  ==> Post-Iterations <==

    Orbital Energies [Eh]
    ---------------------

    Doubly Occupied:                                                      

       1A    -20.597822     2A    -20.537746     3A    -11.334536  
       4A    -11.325748     5A    -11.262284     6A    -11.262009  
       7A    -11.254097     8A    -11.251444     9A    -11.248290  
      10A    -11.242653    11A     -1.411441    12A     -1.367426  
      13A     -1.164628    14A     -1.057444    15A     -1.020137  
      16A     -0.985871    17A     -0.870917    18A     -0.846676  
      19A     -0.761804    20A     -0.741333    21A     -0.681727  
      22A     -0.670158    23A     -0.635211    24A     -0.622379  
      25A     -0.609781    26A     -0.600057    27A     -0.588965  
      28A     -0.575435    29A     -0.535652    30A     -0.524181  
      31A     -0.506880    32A     -0.500467    33A     -0.479436  
      34A     -0.411813    35A     -0.357334    36A     -0.328103  

    Virtual:                                                              

      37A      0.023097    38A      0.028109    39A      0.033691  
      40A      0.042970    41A      0.045464    42A      0.053223  
      43A      0.063432    44A      0.071604    45A      0.073401  
      46A      0.082301    47A      0.086448    48A      0.096473  
      49A      0.098309    50A      0.105831    51A      0.110199  
      52A      0.113877    53A      0.114565    54A      0.118307  
      55A      0.124123    56A      0.130597    57A      0.130902  
      58A      0.134323    59A      0.135115    60A      0.141478  
      61A      0.148447    62A      0.150771    63A      0.154741  
      64A      0.157449    65A      0.164167    66A      0.170783  
      67A      0.174090    68A      0.177107    69A      0.180151  
      70A      0.194055    71A      0.199923    72A      0.204552  
      73A      0.212679    74A      0.220735    75A      0.226576  
      76A      0.234459    77A      0.244310    78A      0.248394  
      79A      0.250970    80A      0.255487    81A      0.258542  
      82A      0.262155    83A      0.269475    84A      0.281419  
      85A      0.287870    86A      0.290606    87A      0.298444  
      88A      0.303163    89A      0.304276    90A      0.312475  
      91A      0.314576    92A      0.316654    93A      0.319651  
      94A      0.325522    95A      0.334220    96A      0.334460  
      97A      0.338531    98A      0.346504    99A      0.350067  
     100A      0.353403   101A      0.363221   102A      0.369856  
     103A      0.372946   104A      0.378294   105A      0.392908  
     106A      0.395846   107A      0.398813   108A      0.403197  
     109A      0.406852   110A      0.414138   111A      0.418920  
     112A      0.423527   113A      0.424966   114A      0.432865  
     115A      0.442072   116A      0.447410   117A      0.450535  
     118A      0.452001   119A      0.457871   120A      0.461004  
     121A      0.462344   122A      0.467460   123A      0.474560  
     124A      0.480196   125A      0.482279   126A      0.489200  
     127A      0.490480   128A      0.497314   129A      0.499551  
     130A      0.505440   131A      0.511618   132A      0.513374  
     133A      0.515049   134A      0.523866   135A      0.527819  
     136A      0.530341   137A      0.534473   138A      0.540569  
     139A      0.547123   140A      0.552918   141A      0.558243  
     142A      0.570224   143A      0.572785   144A      0.584921  
     145A      0.597612   146A      0.602343   147A      0.609071  
     148A      0.613213   149A      0.622741   150A      0.625365  
     151A      0.632717   152A      0.642206   153A      0.649287  
     154A      0.664967   155A      0.668014   156A      0.675805  
     157A      0.684831   158A      0.693894   159A      0.698831  
     160A      0.703188   161A      0.710276   162A      0.716775  
     163A      0.724664   164A      0.735723   165A      0.746431  
     166A      0.750790   167A      0.757757   168A      0.764011  
     169A      0.768267   170A      0.780778   171A      0.788706  
     172A      0.796488   173A      0.809639   174A      0.810745  
     175A      0.819757   176A      0.832621   177A      0.834407  
     178A      0.840959   179A      0.844855   180A      0.849958  
     181A      0.855422   182A      0.858055   183A      0.863747  
     184A      0.870225   185A      0.881305   186A      0.882066  
     187A      0.888878   188A      0.889595   189A      0.896818  
     190A      0.903067   191A      0.908937   192A      0.912562  
     193A      0.921930   194A      0.926120   195A      0.928563  
     196A      0.939804   197A      0.941104   198A      0.946690  
     199A      0.958347   200A      0.966084   201A      0.971601  
     202A      0.972602   203A      0.986493   204A      0.988840  
     205A      0.998190   206A      1.003793   207A      1.006802  
     208A      1.009591   209A      1.019775   210A      1.020423  
     211A      1.031959   212A      1.036861   213A      1.043766  
     214A      1.046313   215A      1.050149   216A      1.062102  
     217A      1.065417   218A      1.071888   219A      1.078567  
     220A      1.084436   221A      1.090146   222A      1.091536  
     223A      1.102462   224A      1.103041   225A      1.105189  
     226A      1.105737   227A      1.116886   228A      1.128313  
     229A      1.131414   230A      1.141196   231A      1.145259  
     232A      1.149486   233A      1.153866   234A      1.158474  
     235A      1.172604   236A      1.178178   237A      1.183937  
     238A      1.186125   239A      1.199182   240A      1.201358  
     241A      1.207021   242A      1.211328   243A      1.222078  
     244A      1.226702   245A      1.235050   246A      1.237250  
     247A      1.246959   248A      1.255120   249A      1.260630  
     250A      1.277012   251A      1.278336   252A      1.287035  
     253A      1.298702   254A      1.305550   255A      1.313270  
     256A      1.328509   257A      1.334595   258A      1.340762  
     259A      1.348737   260A      1.359020   261A      1.362792  
     262A      1.377980   263A      1.382557   264A      1.389830  
     265A      1.398193   266A      1.404603   267A      1.418432  
     268A      1.431102   269A      1.433402   270A      1.446329  
     271A      1.450426   272A      1.470770   273A      1.482617  
     274A      1.494612   275A      1.499542   276A      1.514597  
     277A      1.521383   278A      1.526418   279A      1.541018  
     280A      1.547062   281A      1.558414   282A      1.560668  
     283A      1.572937   284A      1.576527   285A      1.591864  
     286A      1.596982   287A      1.602173   288A      1.624092  
     289A      1.641063   290A      1.655986   291A      1.657111  
     292A      1.667245   293A      1.677216   294A      1.685206  
     295A      1.697163   296A      1.708981   297A      1.711677  
     298A      1.719726   299A      1.726147   300A      1.736751  
     301A      1.745537   302A      1.750822   303A      1.752854  
     304A      1.774411   305A      1.777657   306A      1.789907  
     307A      1.797407   308A      1.800801   309A      1.812190  
     310A      1.815853   311A      1.826732   312A      1.834082  
     313A      1.843227   314A      1.856759   315A      1.868699  
     316A      1.871217   317A      1.882372   318A      1.892054  
     319A      1.899731   320A      1.913377   321A      1.921532  
     322A      1.929618   323A      1.951437   324A      1.954530  
     325A      1.959517   326A      1.968523   327A      1.986764  
     328A      2.001795   329A      2.005460   330A      2.011475  
     331A      2.021017   332A      2.024243   333A      2.042346  
     334A      2.046629   335A      2.055754   336A      2.067803  
     337A      2.073969   338A      2.084475   339A      2.101231  
     340A      2.110503   341A      2.114922   342A      2.124881  
     343A      2.136680   344A      2.144327   345A      2.166678  
     346A      2.178402   347A      2.179204   348A      2.192498  
     349A      2.219977   350A      2.230361   351A      2.239335  
     352A      2.243324   353A      2.257476   354A      2.269331  
     355A      2.275364   356A      2.303731   357A      2.321732  
     358A      2.322848   359A      2.333579   360A      2.340845  
     361A      2.353740   362A      2.366375   363A      2.401715  
     364A      2.418817   365A      2.433345   366A      2.446450  
     367A      2.449296   368A      2.472470   369A      2.488161  
     370A      2.489699   371A      2.513410   372A      2.541079  
     373A      2.549230   374A      2.564038   375A      2.573771  
     376A      2.594698   377A      2.600536   378A      2.620659  
     379A      2.624012   380A      2.668538   381A      2.676746  
     382A      2.683732   383A      2.696777   384A      2.720464  
     385A      2.728701   386A      2.744029   387A      2.761778  
     388A      2.765551   389A      2.799693   390A      2.817476  
     391A      2.834816   392A      2.837889   393A      2.872043  
     394A      2.882985   395A      2.924118   396A      2.946280  
     397A      2.954224   398A      2.969293   399A      2.983968  
     400A      3.043645   401A      3.051819   402A      3.058592  
     403A      3.060634   404A      3.081035   405A      3.114220  
     406A      3.144287   407A      3.171652   408A      3.198834  
     409A      3.212880   410A      3.224282   411A      3.253891  
     412A      3.260200   413A      3.268290   414A      3.297753  
     415A      3.321423   416A      3.328829   417A      3.348740  
     418A      3.369686   419A      3.371873   420A      3.385414  
     421A      3.395381   422A      3.410280   423A      3.415987  
     424A      3.433268   425A      3.444787   426A      3.458903  
     427A      3.462732   428A      3.483885   429A      3.490295  
     430A      3.512668   431A      3.518338   432A      3.531416  
     433A      3.533343   434A      3.548845   435A      3.556799  
     436A      3.565576   437A      3.578638   438A      3.599733  
     439A      3.611065   440A      3.623101   441A      3.626884  
     442A      3.633687   443A      3.643601   444A      3.659155  
     445A      3.670700   446A      3.674728   447A      3.695554  
     448A      3.697943   449A      3.723761   450A      3.740985  
     451A      3.753653   452A      3.762326   453A      3.771923  
     454A      3.773589   455A      3.795882   456A      3.803933  
     457A      3.816742   458A      3.829974   459A      3.839830  
     460A      3.854145   461A      3.867644   462A      3.873905  
     463A      3.892712   464A      3.903296   465A      3.918183  
     466A      3.929575   467A      3.940493   468A      3.951306  
     469A      3.956807   470A      3.967393   471A      3.980466  
     472A      3.983704   473A      4.006571   474A      4.015017  
     475A      4.022242   476A      4.024885   477A      4.045060  
     478A      4.062788   479A      4.076060   480A      4.093815  
     481A      4.099213   482A      4.115614   483A      4.122405  
     484A      4.132042   485A      4.143977   486A      4.153980  
     487A      4.162015   488A      4.166085   489A      4.176849  
     490A      4.202517   491A      4.215113   492A      4.226115  
     493A      4.243771   494A      4.253464   495A      4.260636  
     496A      4.281856   497A      4.298975   498A      4.309816  
     499A      4.313703   500A      4.324993   501A      4.331086  
     502A      4.337997   503A      4.356764   504A      4.371471  
     505A      4.376658   506A      4.384661   507A      4.398318  
     508A      4.407679   509A      4.420897   510A      4.428593  
     511A      4.436282   512A      4.456863   513A      4.466849  
     514A      4.485120   515A      4.495253   516A      4.521127  
     517A      4.522441   518A      4.528484   519A      4.542638  
     520A      4.552550   521A      4.568619   522A      4.575352  
     523A      4.631495   524A      4.649120   525A      4.657164  
     526A      4.679369   527A      4.688235   528A      4.699665  
     529A      4.704611   530A      4.731633   531A      4.733151  
     532A      4.746429   533A      4.769911   534A      4.773964  
     535A      4.801967   536A      4.826941   537A      4.847128  
     538A      4.866299   539A      4.870655   540A      4.888954  
     541A      4.895787   542A      4.919363   543A      4.940947  
     544A      4.944710   545A      4.961836   546A      4.974005  
     547A      4.997023   548A      5.003021   549A      5.043733  
     550A      5.046781   551A      5.056849   552A      5.067275  
     553A      5.097405   554A      5.110279   555A      5.120769  
     556A      5.134863   557A      5.150216   558A      5.154729  
     559A      5.197454   560A      5.199353   561A      5.217088  
     562A      5.250846   563A      5.265304   564A      5.267496  
     565A      5.300572   566A      5.305589   567A      5.326707  
     568A      5.341408   569A      5.357910   570A      5.387094  
     571A      5.402372   572A      5.428100   573A      5.430954  
     574A      5.449504   575A      5.476499   576A      5.497430  
     577A      5.514118   578A      5.535091   579A      5.580927  
     580A      5.602684   581A      5.633863   582A      5.657064  
     583A      5.699193   584A      5.719285   585A      5.743585  
     586A      5.816530   587A      5.869151   588A      5.883073  
     589A      5.968274   590A      6.010198   591A      6.043616  
     592A      6.089294   593A      6.125411   594A      6.163656  
     595A      6.206236   596A      6.220805   597A      6.263659  
     598A      6.291185   599A      6.346601   600A      6.429988  
     601A      6.472522   602A      6.529200   603A      6.583580  
     604A      6.663799   605A      6.689739   606A      6.731901  
     607A      6.793459   608A      6.801477   609A      6.824161  
     610A      6.911218   611A      6.914352   612A      7.006008  
     613A      7.044233   614A      7.047267   615A      7.075080  
     616A      7.114740   617A      7.209122   618A      7.247170  
     619A      7.290491   620A      7.425024   621A      7.444088  
     622A      7.450514   623A      7.497193   624A      7.559262  
     625A      7.665189   626A      7.681181   627A      7.688149  
     628A      7.765637   629A      7.795801   630A      7.903226  
     631A      7.988928   632A      8.011402   633A      8.415767  
     634A      8.670144   635A     15.297020   636A     15.920211  
     637A     16.266923   638A     16.345376   639A     17.628094  
     640A     18.648538   641A     18.970438   642A     19.741447  
     643A     20.230067   644A     20.725614  

    Final Occupation by Irrep:
              A 
    DOCC [    36 ]

  @DF-RHF Final Energy:  -457.46321373447154

   => Energetics <=

    Nuclear Repulsion Energy =            493.9975571002593142
    One-Electron Energy =               -1602.5777669131155108
    Two-Electron Energy =                 651.1169960783845454
    Total Energy =                       -457.4632137344715375

Computation Completed

*** tstop() called on c419-121.stampede2.tacc.utexas.edu at Sat Mar  6 11:46:00 2021
Module time:
	user time   =     609.97 seconds =      10.17 minutes
	system time =      43.06 seconds =       0.72 minutes
	total time  =         34 seconds =       0.57 minutes
Total time:
	user time   =     609.97 seconds =      10.17 minutes
	system time =      43.06 seconds =       0.72 minutes
	total time  =         34 seconds =       0.57 minutes
   => Loading Basis Set <=

    Name: (AUG-CC-PVTZ AUX)
    Role: RIFIT
    Keyword: DF_BASIS_MP2
    atoms 1-2   entry O          line   264 file /home1/07844/xy3866/miniconda3/envs/p4env/share/psi4/basis/aug-cc-pvtz-ri.gbs 
    atoms 3-10  entry C          line   148 file /home1/07844/xy3866/miniconda3/envs/p4env/share/psi4/basis/aug-cc-pvtz-ri.gbs 
    atoms 11-18 entry H          line    30 file /home1/07844/xy3866/miniconda3/envs/p4env/share/psi4/basis/aug-cc-pvtz-ri.gbs 


*** tstart() called on c419-121.stampede2.tacc.utexas.edu
*** at Sat Mar  6 11:46:01 2021


  //>>>>>>>>>>>>>>>>>>>>>>>>>>>>>>>>>>>//
  //               DFMP2               //
  //<<<<<<<<<<<<<<<<<<<<<<<<<<<<<<<<<<<//

	 --------------------------------------------------------
	                          DF-MP2                         
	      2nd-Order Density-Fitted Moller-Plesset Theory     
	              RMP2 Wavefunction,  32 Threads             
	                                                         
	        Rob Parrish, Justin Turney, Andy Simmonett,      
	           Ed Hohenstein, and C. David Sherrill          
	 --------------------------------------------------------

   => Auxiliary Basis Set <=

  Basis Set: (AUG-CC-PVTZ AUX)
    Blend: AUG-CC-PVTZ-RI
    Number of shells: 392
    Number of basis functions: 1428
    Number of Cartesian functions: 1800
    Spherical Harmonics?: true
    Max angular momentum: 4

	 --------------------------------------------------------
	                 NBF =   644, NAUX =  1428
	 --------------------------------------------------------
	   CLASS    FOCC     OCC    AOCC    AVIR     VIR    FVIR
	   PAIRS       0      36      36     608     608       0
	 --------------------------------------------------------

  DFHelper Memory: AOs need 4.313 GiB; user supplied 22.352 GiB. Using in-core AOs.


         ------------------------------------------------------------
                                     CPHF                           
                                  Rob Parrish                       
         ------------------------------------------------------------

  ==> Geometry <==

    Molecular point group: c1
    Full point group: C1

    Geometry (in Angstrom), charge = 0, multiplicity = 1:

       Center              X                  Y                   Z               Mass       
    ------------   -----------------  -----------------  -----------------  -----------------
         O           -0.011930943163     2.134231547836     0.231141352436    15.994914619570
         O            2.259211056837     0.868529547836    -0.578789647564    15.994914619570
         C            0.214492056837    -0.228668452164    -0.028344647564    12.000000000000
         C           -0.606896943163     0.911298547836     0.092743352436    12.000000000000
         C           -0.400841943163    -1.485309452164    -0.129977647564    12.000000000000
         C            1.706275056837    -0.113501452164    -0.087824647564    12.000000000000
         C           -1.998865943163     0.769339547836     0.112886352436    12.000000000000
         C           -1.787280943163    -1.624467452164    -0.126706647564    12.000000000000
         C           -2.587314943163    -0.488208452164    -0.005988647564    12.000000000000
         C            2.520309056837    -1.264701452164     0.472370352436    12.000000000000
         H            0.219146056837    -2.372674452164    -0.224603647564     1.007825032230
         H           -2.624905943163     1.655346547836     0.215245352436     1.007825032230
         H           -2.238353943163    -2.608441452164    -0.220036647564     1.007825032230
         H           -3.671046943163    -0.575603452164     0.003870352436     1.007825032230
         H            2.154817056837    -1.567743452164     1.457311352436     1.007825032230
         H            3.751258656837    -0.883645152164     0.550077352436     1.007825032230
         H            2.466771056837    -2.136017452164    -0.188483647564     1.007825032230
         H           -0.716092943163     2.795048547836     0.362029352436     1.007825032230

  Nuclear repulsion =  493.997557100259314
  Reference energy  = -457.463213734471537

  ==> Basis Set <==

  Basis Set: AUG-CC-PVTZ
    Blend: AUG-CC-PVTZ
    Number of shells: 212
    Number of basis functions: 644
    Number of Cartesian functions: 750
    Spherical Harmonics?: true
    Max angular momentum: 3

  ==> CGRSolver (by Rob Parrish) <==

   Number of roots    =         1
   Preconditioning    =    JACOBI
   Convergence cutoff =     1E-06
   Maximum iterations =       100

  ==> CPHFRHamiltonian (by Rob Parrish) <== 

  ==> MemDFJK: Density-Fitted J/K Matrices <==

    J tasked:                   Yes
    K tasked:                   Yes
    wK tasked:                   No
    OpenMP threads:              32
    Memory [MiB]:             22888
    Algorithm:                 Core
    Schwarz Cutoff:           1E-12
    Mask sparsity (%):       5.3875
    Fitting Condition:        1E-10

   => Auxiliary Basis Set <=

  Basis Set: (AUG-CC-PVTZ AUX)
    Blend: AUG-CC-PVTZ-JKFIT
    Number of shells: 412
    Number of basis functions: 1408
    Number of Cartesian functions: 1750
    Spherical Harmonics?: true
    Max angular momentum: 4

  ==> CPHF Iterations <==

  => Iterations <=

             Iter  Converged  Remaining    Residual
  CGR           1          0          1   1.158E-01
  CGR           2          0          1   4.023E-02
  CGR           3          0          1   2.170E-02
  CGR           4          0          1   9.985E-03
  CGR           5          0          1   4.360E-03
  CGR           6          0          1   1.598E-03
  CGR           7          0          1   4.505E-04
  CGR           8          0          1   1.605E-04
  CGR           9          0          1   5.983E-05
  CGR          10          0          1   2.741E-05
  CGR          11          0          1   1.388E-05
  CGR          12          0          1   5.919E-06
  CGR          13          0          1   2.366E-06
  CGR          14          1          0   9.489E-07

    CGRSolver converged.

	-----------------------------------------------------------
	 ==================> DF-MP2 Energies <==================== 
	-----------------------------------------------------------
	 Reference Energy          =    -457.4632137344715375 [Eh]
	 Singles Energy            =      -0.0000000000000000 [Eh]
	 Same-Spin Energy          =      -0.4784353924671182 [Eh]
	 Opposite-Spin Energy      =      -1.4755717725862478 [Eh]
	 Correlation Energy        =      -1.9540071650533659 [Eh]
	 Total Energy              =    -459.4172208995249207 [Eh]
	-----------------------------------------------------------
	 ================> DF-SCS-MP2 Energies <================== 
	-----------------------------------------------------------
	 SCS Same-Spin Scale       =       0.3333333333333333 [-]
	 SCS Opposite-Spin Scale   =       1.2000000000000000 [-]
	 SCS Same-Spin Energy      =      -0.1594784641557060 [Eh]
	 SCS Opposite-Spin Energy  =      -1.7706861271034973 [Eh]
	 SCS Correlation Energy    =      -1.9301645912592034 [Eh]
	 SCS Total Energy          =    -459.3933783257307368 [Eh]
	-----------------------------------------------------------



Properties will be evaluated at  -0.000000,  -0.000000,   0.000000 [a0]

Properties computed using the MP2 density matrix

  Nuclear Dipole Moment: [e a0]
     X:    -0.6064      Y:    -5.3233      Z:     1.8315

  Electronic Dipole Moment: [e a0]
     X:    -0.5865      Y:     4.7461      Z:    -1.3601

  Dipole Moment: [e a0]
     X:    -1.1930      Y:    -0.5772      Z:     0.4713     Total:     1.4066

  Dipole Moment: [D]
     X:    -3.0322      Y:    -1.4671      Z:     1.1980     Total:     3.5752


*** tstop() called on c419-121.stampede2.tacc.utexas.edu at Sat Mar  6 11:49:33 2021
Module time:
	user time   =    1807.14 seconds =      30.12 minutes
	system time =      68.49 seconds =       1.14 minutes
	total time  =        212 seconds =       3.53 minutes
Total time:
	user time   =    2418.03 seconds =      40.30 minutes
	system time =     111.57 seconds =       1.86 minutes
	total time  =        247 seconds =       4.12 minutes

    Psi4 stopped on: Saturday, 06 March 2021 11:49AM
    Psi4 wall time for execution: 0:04:07.52

*** Psi4 exiting successfully. Buy a developer a beer!
