20504566                                                                
Freq      RMP2-FC                                                     6-31G(d)            
Number of atoms                            I               12
Info1-9                                    I   N=           9
          24          22        1002           0           0         100
           6           2           1
Charge                                     I                0
Multiplicity                               I                1
Number of electrons                        I               62
Number of alpha electrons                  I               31
Number of beta electrons                   I               31
Number of basis functions                  I              128
Number of independent functions            I              128
Number of point charges in /Mol/           I                0
Number of translation vectors              I                0
Atomic numbers                             I   N=          12
           9           9           8           8           6           6
           6           6           1           1           1           1
Nuclear charges                            R   N=          12
  9.00000000E+00  9.00000000E+00  8.00000000E+00  8.00000000E+00  6.00000000E+00
  6.00000000E+00  6.00000000E+00  6.00000000E+00  1.00000000E+00  1.00000000E+00
  1.00000000E+00  1.00000000E+00
Current cartesian coordinates              R   N=          36
  4.01118982E+00  1.71628123E+00  1.43630661E+00 -4.01118977E+00  1.71628874E+00
 -1.43629858E+00  5.31400736E+00 -1.57319075E+00 -8.72157546E-01 -5.31400827E+00
 -1.57319406E+00  8.72150204E-01  9.17674565E-01 -2.11187929E-01 -1.12212853E+00
 -9.17673451E-01 -2.11196455E-01  1.12212773E+00  3.62031781E+00 -2.00919372E-01
 -2.62632091E-01 -3.62031781E+00 -2.00921426E-01  2.62631077E-01  6.54447506E-01
 -1.86906191E+00 -2.32288704E+00  6.04271509E-01  1.48073026E+00 -2.26872972E+00
 -6.04270014E-01  1.48071244E+00  2.26874225E+00 -6.54448870E-01 -1.86908097E+00
  2.32287190E+00
Force Field                                I                0
Int Atom Types                             I   N=          12
           0           0           0           0           0           0
           0           0           0           0           0           0
MM charges                                 R   N=          12
  0.00000000E+00  0.00000000E+00  0.00000000E+00  0.00000000E+00  0.00000000E+00
  0.00000000E+00  0.00000000E+00  0.00000000E+00  0.00000000E+00  0.00000000E+00
  0.00000000E+00  0.00000000E+00
Integer atomic weights                     I   N=          12
          19          19          16          16          12          12
          12          12           1           1           1           1
Real atomic weights                        R   N=          12
  1.89984032E+01  1.89984032E+01  1.59949146E+01  1.59949146E+01  1.20000000E+01
  1.20000000E+01  1.20000000E+01  1.20000000E+01  1.00782504E+00  1.00782504E+00
  1.00782504E+00  1.00782504E+00
Atom fragment info                         I   N=          12
           0           0           0           0           0           0
           0           0           0           0           0           0
Atom residue num                           I   N=          12
           0           0           0           0           0           0
           0           0           0           0           0           0
Nuclear spins                              I   N=          12
           1           1           0           0           0           0
           0           0           1           1           1           1
Nuclear ZEff                               R   N=          12
 -6.75000000E+00 -6.75000000E+00 -5.60000000E+00 -5.60000000E+00 -3.60000000E+00
 -3.60000000E+00 -3.60000000E+00 -3.60000000E+00 -1.00000000E+00 -1.00000000E+00
 -1.00000000E+00 -1.00000000E+00
Nuclear QMom                               R   N=          12
  0.00000000E+00  0.00000000E+00  0.00000000E+00  0.00000000E+00  0.00000000E+00
  0.00000000E+00  0.00000000E+00  0.00000000E+00  0.00000000E+00  0.00000000E+00
  0.00000000E+00  0.00000000E+00
Nuclear GFac                               R   N=          12
  2.62886700E+00  2.62886700E+00  0.00000000E+00  0.00000000E+00  0.00000000E+00
  0.00000000E+00  0.00000000E+00  0.00000000E+00  2.79284600E+00  2.79284600E+00
  2.79284600E+00  2.79284600E+00
MicOpt                                     I   N=          12
          -1          -1          -1          -1          -1          -1
          -1          -1          -1          -1          -1          -1
Number of contracted shells                I               40
Number of primitive shells                 I              104
Pure/Cartesian d shells                    I                1
Pure/Cartesian f shells                    I                0
Highest angular momentum                   I                2
Largest degree of contraction              I                6
Shell types                                I   N=          40
           0          -1          -1           2           0          -1
          -1           2           0          -1          -1           2
           0          -1          -1           2           0          -1
          -1           2           0          -1          -1           2
           0          -1          -1           2           0          -1
          -1           2           0           0           0           0
           0           0           0           0
Number of primitives per shell             I   N=          40
           6           3           1           1           6           3
           1           1           6           3           1           1
           6           3           1           1           6           3
           1           1           6           3           1           1
           6           3           1           1           6           3
           1           1           3           1           3           1
           3           1           3           1
Shell to atom map                          I   N=          40
           1           1           1           1           2           2
           2           2           3           3           3           3
           4           4           4           4           5           5
           5           5           6           6           6           6
           7           7           7           7           8           8
           8           8           9           9          10          10
          11          11          12          12
Primitive exponents                        R   N=         104
  7.00171309E+03  1.05136609E+03  2.39285690E+02  6.73974453E+01  2.15199573E+01
  7.40310130E+00  2.08479528E+01  4.80830834E+00  1.34406986E+00  3.58151393E-01
  8.00000000E-01  7.00171309E+03  1.05136609E+03  2.39285690E+02  6.73974453E+01
  2.15199573E+01  7.40310130E+00  2.08479528E+01  4.80830834E+00  1.34406986E+00
  3.58151393E-01  8.00000000E-01  5.48467166E+03  8.25234946E+02  1.88046958E+02
  5.29645000E+01  1.68975704E+01  5.79963534E+00  1.55396162E+01  3.59993359E+00
  1.01376175E+00  2.70005823E-01  8.00000000E-01  5.48467166E+03  8.25234946E+02
  1.88046958E+02  5.29645000E+01  1.68975704E+01  5.79963534E+00  1.55396162E+01
  3.59993359E+00  1.01376175E+00  2.70005823E-01  8.00000000E-01  3.04752488E+03
  4.57369518E+02  1.03948685E+02  2.92101553E+01  9.28666296E+00  3.16392696E+00
  7.86827235E+00  1.88128854E+00  5.44249258E-01  1.68714478E-01  8.00000000E-01
  3.04752488E+03  4.57369518E+02  1.03948685E+02  2.92101553E+01  9.28666296E+00
  3.16392696E+00  7.86827235E+00  1.88128854E+00  5.44249258E-01  1.68714478E-01
  8.00000000E-01  3.04752488E+03  4.57369518E+02  1.03948685E+02  2.92101553E+01
  9.28666296E+00  3.16392696E+00  7.86827235E+00  1.88128854E+00  5.44249258E-01
  1.68714478E-01  8.00000000E-01  3.04752488E+03  4.57369518E+02  1.03948685E+02
  2.92101553E+01  9.28666296E+00  3.16392696E+00  7.86827235E+00  1.88128854E+00
  5.44249258E-01  1.68714478E-01  8.00000000E-01  1.87311370E+01  2.82539436E+00
  6.40121692E-01  1.61277759E-01  1.87311370E+01  2.82539436E+00  6.40121692E-01
  1.61277759E-01  1.87311370E+01  2.82539436E+00  6.40121692E-01  1.61277759E-01
  1.87311370E+01  2.82539436E+00  6.40121692E-01  1.61277759E-01
Contraction coefficients                   R   N=         104
  1.81961690E-03  1.39160796E-02  6.84053245E-02  2.33185760E-01  4.71267439E-01
  3.56618546E-01 -1.08506975E-01 -1.46451658E-01  1.12868858E+00  1.00000000E+00
  1.00000000E+00  1.81961690E-03  1.39160796E-02  6.84053245E-02  2.33185760E-01
  4.71267439E-01  3.56618546E-01 -1.08506975E-01 -1.46451658E-01  1.12868858E+00
  1.00000000E+00  1.00000000E+00  1.83107443E-03  1.39501722E-02  6.84450781E-02
  2.32714336E-01  4.70192898E-01  3.58520853E-01 -1.10777550E-01 -1.48026263E-01
  1.13076702E+00  1.00000000E+00  1.00000000E+00  1.83107443E-03  1.39501722E-02
  6.84450781E-02  2.32714336E-01  4.70192898E-01  3.58520853E-01 -1.10777550E-01
 -1.48026263E-01  1.13076702E+00  1.00000000E+00  1.00000000E+00  1.83473713E-03
  1.40373228E-02  6.88426223E-02  2.32184443E-01  4.67941348E-01  3.62311985E-01
 -1.19332420E-01 -1.60854152E-01  1.14345644E+00  1.00000000E+00  1.00000000E+00
  1.83473713E-03  1.40373228E-02  6.88426223E-02  2.32184443E-01  4.67941348E-01
  3.62311985E-01 -1.19332420E-01 -1.60854152E-01  1.14345644E+00  1.00000000E+00
  1.00000000E+00  1.83473713E-03  1.40373228E-02  6.88426223E-02  2.32184443E-01
  4.67941348E-01  3.62311985E-01 -1.19332420E-01 -1.60854152E-01  1.14345644E+00
  1.00000000E+00  1.00000000E+00  1.83473713E-03  1.40373228E-02  6.88426223E-02
  2.32184443E-01  4.67941348E-01  3.62311985E-01 -1.19332420E-01 -1.60854152E-01
  1.14345644E+00  1.00000000E+00  1.00000000E+00  3.34946043E-02  2.34726953E-01
  8.13757326E-01  1.00000000E+00  3.34946043E-02  2.34726953E-01  8.13757326E-01
  1.00000000E+00  3.34946043E-02  2.34726953E-01  8.13757326E-01  1.00000000E+00
  3.34946043E-02  2.34726953E-01  8.13757326E-01  1.00000000E+00
P(S=P) Contraction coefficients            R   N=         104
  0.00000000E+00  0.00000000E+00  0.00000000E+00  0.00000000E+00  0.00000000E+00
  0.00000000E+00  7.16287242E-02  3.45912103E-01  7.22469956E-01  1.00000000E+00
  0.00000000E+00  0.00000000E+00  0.00000000E+00  0.00000000E+00  0.00000000E+00
  0.00000000E+00  0.00000000E+00  7.16287242E-02  3.45912103E-01  7.22469956E-01
  1.00000000E+00  0.00000000E+00  0.00000000E+00  0.00000000E+00  0.00000000E+00
  0.00000000E+00  0.00000000E+00  0.00000000E+00  7.08742682E-02  3.39752839E-01
  7.27158577E-01  1.00000000E+00  0.00000000E+00  0.00000000E+00  0.00000000E+00
  0.00000000E+00  0.00000000E+00  0.00000000E+00  0.00000000E+00  7.08742682E-02
  3.39752839E-01  7.27158577E-01  1.00000000E+00  0.00000000E+00  0.00000000E+00
  0.00000000E+00  0.00000000E+00  0.00000000E+00  0.00000000E+00  0.00000000E+00
  6.89990666E-02  3.16423961E-01  7.44308291E-01  1.00000000E+00  0.00000000E+00
  0.00000000E+00  0.00000000E+00  0.00000000E+00  0.00000000E+00  0.00000000E+00
  0.00000000E+00  6.89990666E-02  3.16423961E-01  7.44308291E-01  1.00000000E+00
  0.00000000E+00  0.00000000E+00  0.00000000E+00  0.00000000E+00  0.00000000E+00
  0.00000000E+00  0.00000000E+00  6.89990666E-02  3.16423961E-01  7.44308291E-01
  1.00000000E+00  0.00000000E+00  0.00000000E+00  0.00000000E+00  0.00000000E+00
  0.00000000E+00  0.00000000E+00  0.00000000E+00  6.89990666E-02  3.16423961E-01
  7.44308291E-01  1.00000000E+00  0.00000000E+00  0.00000000E+00  0.00000000E+00
  0.00000000E+00  0.00000000E+00  0.00000000E+00  0.00000000E+00  0.00000000E+00
  0.00000000E+00  0.00000000E+00  0.00000000E+00  0.00000000E+00  0.00000000E+00
  0.00000000E+00  0.00000000E+00  0.00000000E+00  0.00000000E+00
Coordinates of each shell                  R   N=         120
  4.01118982E+00  1.71628123E+00  1.43630661E+00  4.01118982E+00  1.71628123E+00
  1.43630661E+00  4.01118982E+00  1.71628123E+00  1.43630661E+00  4.01118982E+00
  1.71628123E+00  1.43630661E+00 -4.01118977E+00  1.71628874E+00 -1.43629858E+00
 -4.01118977E+00  1.71628874E+00 -1.43629858E+00 -4.01118977E+00  1.71628874E+00
 -1.43629858E+00 -4.01118977E+00  1.71628874E+00 -1.43629858E+00  5.31400736E+00
 -1.57319075E+00 -8.72157546E-01  5.31400736E+00 -1.57319075E+00 -8.72157546E-01
  5.31400736E+00 -1.57319075E+00 -8.72157546E-01  5.31400736E+00 -1.57319075E+00
 -8.72157546E-01 -5.31400827E+00 -1.57319406E+00  8.72150204E-01 -5.31400827E+00
 -1.57319406E+00  8.72150204E-01 -5.31400827E+00 -1.57319406E+00  8.72150204E-01
 -5.31400827E+00 -1.57319406E+00  8.72150204E-01  9.17674565E-01 -2.11187929E-01
 -1.12212853E+00  9.17674565E-01 -2.11187929E-01 -1.12212853E+00  9.17674565E-01
 -2.11187929E-01 -1.12212853E+00  9.17674565E-01 -2.11187929E-01 -1.12212853E+00
 -9.17673451E-01 -2.11196455E-01  1.12212773E+00 -9.17673451E-01 -2.11196455E-01
  1.12212773E+00 -9.17673451E-01 -2.11196455E-01  1.12212773E+00 -9.17673451E-01
 -2.11196455E-01  1.12212773E+00  3.62031781E+00 -2.00919372E-01 -2.62632091E-01
  3.62031781E+00 -2.00919372E-01 -2.62632091E-01  3.62031781E+00 -2.00919372E-01
 -2.62632091E-01  3.62031781E+00 -2.00919372E-01 -2.62632091E-01 -3.62031781E+00
 -2.00921426E-01  2.62631077E-01 -3.62031781E+00 -2.00921426E-01  2.62631077E-01
 -3.62031781E+00 -2.00921426E-01  2.62631077E-01 -3.62031781E+00 -2.00921426E-01
  2.62631077E-01  6.54447506E-01 -1.86906191E+00 -2.32288704E+00  6.54447506E-01
 -1.86906191E+00 -2.32288704E+00  6.04271509E-01  1.48073026E+00 -2.26872972E+00
  6.04271509E-01  1.48073026E+00 -2.26872972E+00 -6.04270014E-01  1.48071244E+00
  2.26874225E+00 -6.04270014E-01  1.48071244E+00  2.26874225E+00 -6.54448870E-01
 -1.86908097E+00  2.32287190E+00 -6.54448870E-01 -1.86908097E+00  2.32287190E+00
Constraint Structure                       R   N=          36
  4.01118982E+00  1.71628123E+00  1.43630661E+00 -4.01118977E+00  1.71628874E+00
 -1.43629858E+00  5.31400736E+00 -1.57319075E+00 -8.72157546E-01 -5.31400827E+00
 -1.57319406E+00  8.72150204E-01  9.17674565E-01 -2.11187929E-01 -1.12212853E+00
 -9.17673451E-01 -2.11196455E-01  1.12212773E+00  3.62031781E+00 -2.00919372E-01
 -2.62632091E-01 -3.62031781E+00 -2.00921426E-01  2.62631077E-01  6.54447506E-01
 -1.86906191E+00 -2.32288704E+00  6.04271509E-01  1.48073026E+00 -2.26872972E+00
 -6.04270014E-01  1.48071244E+00  2.26874225E+00 -6.54448870E-01 -1.86908097E+00
  2.32287190E+00
Num ILSW                                   I              100
ILSW                                       I   N=         100
           0           1           0           0           2           0
           0           0           0           0           0          -1
           0           0           0           0           0           0
           0           0           0           0           1           0
           1           0           0           0           0           0
           0           0      100000           0          -1           0
           0           0           0           0           0           0
           0           0           0           1           1           0
           0           0           1           0           0           0
           0           0           4          40           0           0
           0           0           0           0           0           0
           0           0           0           0           0           0
           0           0           0           0           0           0
           0           0           0           0           0           0
           0           0           0           0           0           0
           0           0           0           0           0           0
           0           0           0           0
Num RLSW                                   I               40
RLSW                                       R   N=          40
  1.00000000E+00  1.00000000E+00  1.00000000E+00  1.00000000E+00  1.00000000E+00
  0.00000000E+00  0.00000000E+00  1.00000000E+00  0.00000000E+00  0.00000000E+00
  0.00000000E+00  0.00000000E+00  1.00000000E+00  0.00000000E+00  0.00000000E+00
  0.00000000E+00  0.00000000E+00  1.00000000E+00  0.00000000E+00  0.00000000E+00
  0.00000000E+00  0.00000000E+00  1.00000000E+00  0.00000000E+00  0.00000000E+00
  0.00000000E+00  0.00000000E+00  1.00000000E+00  0.00000000E+00  0.00000000E+00
  0.00000000E+00  0.00000000E+00  0.00000000E+00  0.00000000E+00  0.00000000E+00
  0.00000000E+00  0.00000000E+00  0.00000000E+00  1.00000000E+00  1.00000000E+00
MxBond                                     I                4
NBond                                      I   N=          12
           1           1           1           1           4           4
           3           3           1           1           1           1
IBond                                      I   N=          48
           7           0           0           0           8           0
           0           0           7           0           0           0
           8           0           0           0           6           7
           9          10           5           8          11          12
           1           3           5           0           2           4
           6           0           5           0           0           0
           5           0           0           0           6           0
           0           0           6           0           0           0
RBond                                      R   N=          48
  1.00000000E+00  0.00000000E+00  0.00000000E+00  0.00000000E+00  1.00000000E+00
  0.00000000E+00  0.00000000E+00  0.00000000E+00  2.00000000E+00  0.00000000E+00
  0.00000000E+00  0.00000000E+00  2.00000000E+00  0.00000000E+00  0.00000000E+00
  0.00000000E+00  1.00000000E+00  1.00000000E+00  1.00000000E+00  1.00000000E+00
  1.00000000E+00  1.00000000E+00  1.00000000E+00  1.00000000E+00  1.00000000E+00
  2.00000000E+00  1.00000000E+00  0.00000000E+00  1.00000000E+00  2.00000000E+00
  1.00000000E+00  0.00000000E+00  1.00000000E+00  0.00000000E+00  0.00000000E+00
  0.00000000E+00  1.00000000E+00  0.00000000E+00  0.00000000E+00  0.00000000E+00
  1.00000000E+00  0.00000000E+00  0.00000000E+00  0.00000000E+00  1.00000000E+00
  0.00000000E+00  0.00000000E+00  0.00000000E+00
Virial Ratio                               R      2.002938575234417E+00
SCF Energy                                 R     -5.024247038293028E+02
MP2 Energy                                 R     -5.036295724326996E+02
Total Energy                               R     -5.036295724326996E+02
Post-SCF wavefunction norm                 R      1.641589068248916E+00
RMS Force                                  R      3.493165856124491E-07
RMS Density                                R      5.902283300902946E-10
External E-field                           R   N=          35
  0.00000000E+00  0.00000000E+00  0.00000000E+00  0.00000000E+00  0.00000000E+00
  0.00000000E+00  0.00000000E+00  0.00000000E+00  0.00000000E+00  0.00000000E+00
  0.00000000E+00  0.00000000E+00  0.00000000E+00  0.00000000E+00  0.00000000E+00
  0.00000000E+00  0.00000000E+00  0.00000000E+00  0.00000000E+00  0.00000000E+00
  0.00000000E+00  0.00000000E+00  0.00000000E+00  0.00000000E+00  0.00000000E+00
  0.00000000E+00  0.00000000E+00  0.00000000E+00  0.00000000E+00  0.00000000E+00
  0.00000000E+00  0.00000000E+00  0.00000000E+00  0.00000000E+00  0.00000000E+00
IOpCl                                      I                0
IROHF                                      I                0
Alpha Orbital Energies                     R   N=         128
 -2.63465991E+01 -2.63465989E+01 -2.06111754E+01 -2.06111753E+01 -1.14512927E+01
 -1.14512908E+01 -1.12995260E+01 -1.12989454E+01 -1.65844532E+00 -1.65805218E+00
 -1.43934226E+00 -1.43906394E+00 -1.13874026E+00 -1.00206920E+00 -8.58350423E-01
 -8.48981225E-01 -7.66649637E-01 -7.44587077E-01 -7.37061482E-01 -7.27022956E-01
 -7.22224740E-01 -7.09452665E-01 -6.69684598E-01 -6.28751044E-01 -6.21007300E-01
 -5.90251000E-01 -5.75933608E-01 -5.45851440E-01 -5.32929803E-01 -5.13592676E-01
 -4.89815750E-01  1.21532739E-01  1.49053566E-01  2.21601581E-01  2.51292104E-01
  2.51526708E-01  2.85847188E-01  3.25276611E-01  3.51831419E-01  3.59862597E-01
  4.19359273E-01  4.71908785E-01  4.97074707E-01  5.03467432E-01  6.91503057E-01
  7.03557668E-01  7.10050644E-01  7.32570226E-01  7.52999324E-01  8.05709357E-01
  8.15051640E-01  8.69975557E-01  9.02798855E-01  9.08490044E-01  9.22828078E-01
  9.62559109E-01  1.03658617E+00  1.07085870E+00  1.07922185E+00  1.10883149E+00
  1.12466629E+00  1.13186832E+00  1.14912267E+00  1.22503753E+00  1.28078251E+00
  1.28103260E+00  1.28721336E+00  1.36416230E+00  1.38003502E+00  1.43005992E+00
  1.43368158E+00  1.50267813E+00  1.53543528E+00  1.60500226E+00  1.62309864E+00
  1.64897071E+00  1.68358831E+00  1.69156067E+00  1.70998306E+00  1.72155964E+00
  1.87833498E+00  1.88986423E+00  1.89148687E+00  1.98439111E+00  1.98601247E+00
  2.02062956E+00  2.04356570E+00  2.05551481E+00  2.07445332E+00  2.10016256E+00
  2.10254866E+00  2.11668703E+00  2.13095752E+00  2.18493886E+00  2.20274023E+00
  2.23237735E+00  2.23969214E+00  2.25784710E+00  2.26636666E+00  2.29078324E+00
  2.34870540E+00  2.41094901E+00  2.42026291E+00  2.51503151E+00  2.64031400E+00
  2.66714103E+00  2.71059464E+00  2.76983654E+00  2.84585849E+00  2.87723230E+00
  2.95354177E+00  2.98904508E+00  3.07386035E+00  3.14335271E+00  3.24872558E+00
  3.25629158E+00  3.32228954E+00  3.34983460E+00  3.44036139E+00  3.48698033E+00
  4.34505781E+00  4.34592287E+00  4.49026113E+00  4.64186572E+00  4.77895035E+00
  4.94410626E+00  4.96083342E+00  5.16969153E+00
Alpha MO coefficients                      R   N=       16384
  9.57572433E-01  1.70859430E-02 -1.53548143E-04 -6.06605356E-04 -5.45563119E-04
  7.81044597E-03  1.24895130E-04  4.23676244E-04  3.98403579E-04 -4.38538860E-03
 -4.65334612E-03 -4.60674217E-03 -7.57013902E-05 -5.86652525E-05 -2.44616556E-04
 -2.68214739E-01 -4.75807224E-03 -4.44654030E-05  1.66556058E-04 -1.51433994E-04
 -2.27486365E-03  4.60706575E-05 -1.06764528E-04  1.06812541E-04  1.24638812E-03
  1.32516125E-03  1.31304331E-03 -2.42165433E-05  1.73556567E-05 -6.56374600E-05
 -1.05776401E-05 -7.72169597E-06  8.93331609E-06 -2.56300831E-05 -1.32242423E-05
  2.39220818E-04  2.43276053E-05 -8.96832268E-06 -2.19381682E-05 -4.89310622E-05
 -6.69704005E-05 -3.94045837E-05  3.17872962E-05  1.60303853E-05 -4.76475453E-05
  1.61396809E-06 -4.41107838E-06  2.40471911E-07  1.10710070E-05 -5.20569788E-06
 -1.78757773E-05  5.63878086E-05 -3.70169936E-06  5.40760321E-06  1.82434406E-05
  1.28533894E-05  4.95125330E-06  1.30676388E-05 -7.50094371E-06 -1.00737878E-05
  5.32890458E-06  9.98432892E-05 -1.80835659E-05  4.93507848E-06 -1.13090250E-05
 -4.04315631E-04 -2.64076300E-04 -2.02338545E-04 -1.19351573E-04 -6.42138894E-05
 -1.91631082E-05 -2.33606009E-05 -2.87261114E-05 -5.07181918E-05 -1.79762367E-05
 -4.99468101E-06 -5.11802026E-05  3.02205690E-05 -1.24332675E-05 -2.48320327E-06
  4.55055075E-04 -3.59449018E-04  1.65252463E-04 -6.94536177E-05  3.02787901E-05
  2.70380393E-08 -1.70113543E-06 -7.45850013E-06  2.72828801E-05 -9.67960727E-06
 -2.12799663E-05  1.69759536E-04  1.37398157E-04  3.61964237E-04  3.26932173E-04
  2.86793283E-04 -4.50971278E-04  1.20301792E-04 -3.77313459E-06  1.75389645E-05
  1.52121512E-04  1.00115988E-04  2.46312429E-05  5.55838125E-05  2.25298108E-04
  1.15562890E-05 -1.58891827E-05  3.65424003E-05 -1.01918727E-04  8.37853759E-05
 -4.35629154E-04 -3.15276453E-04  7.80198385E-06 -8.65099402E-05 -1.48750622E-05
 -3.54902946E-05 -1.96429131E-05 -3.59998088E-06 -1.93849399E-05  6.79308586E-05
 -7.84938087E-06 -7.84628741E-05  2.82321685E-05  6.00445869E-05  2.34167434E-05
 -1.95961896E-04  7.02140526E-06  6.82589317E-05  2.68226121E-01  4.81834229E-03
 -4.13055980E-05 -1.73841543E-04 -1.54428878E-04  2.08577730E-03  2.20087183E-05
  1.32610667E-04  1.17189903E-04 -1.20727384E-03 -1.27798043E-03 -1.26382970E-03
 -1.76791565E-05 -1.53517781E-05 -7.18891816E-05  9.57575622E-01  1.71028243E-02
  1.52662977E-04 -6.08648532E-04  5.46398150E-04  7.75748225E-03 -1.18155065E-04
  4.30917698E-04 -4.01307587E-04 -4.37443232E-03 -4.64013274E-03 -4.59295468E-03
  7.38705316E-05 -5.81035710E-05  2.46367410E-04 -4.54139748E-06 -9.85623383E-06
  5.14919665E-06 -2.62447187E-06 -1.94686670E-06  1.24503621E-04 -5.12005965E-05
 -9.78381142E-06 -1.96647038E-05 -8.39556228E-06 -2.56695597E-05 -1.81597287E-05
  4.03085833E-06  9.66640234E-07 -1.71759051E-05 -1.13976034E-05 -1.17179049E-05
 -1.03083091E-05 -2.32641472E-05  1.23112530E-05  2.69087225E-04  5.80824951E-06
 -1.27459708E-05  2.89609403E-05 -4.61728339E-05 -7.05604619E-05 -4.31037224E-05
 -2.92561279E-05  1.41998501E-05  4.96366327E-05 -2.60570606E-06  7.99932176E-07
 -4.63594416E-05 -1.15502690E-05 -3.96888114E-06  2.86756893E-04  2.60122718E-04
  7.03881864E-05  8.72815261E-06 -3.60110744E-06 -1.16178170E-05 -1.61915922E-05
 -8.73439941E-06  1.09685910E-06  3.99991109E-07  3.20007727E-06  8.57315631E-05
  3.95336862E-05 -1.78273428E-06  1.17250962E-05 -1.96531584E-04  9.05307009E-05
 -1.36335483E-04  9.74509625E-05 -5.67409511E-05 -2.24096199E-05 -2.83719952E-05
  2.90836478E-05 -4.27685428E-05  1.51529188E-05  5.87879095E-07  8.46021857E-05
  4.07601197E-05  1.00766567E-04  1.00690369E-04 -3.35465566E-04  9.48143676E-05
  8.22615325E-05  9.89469922E-05 -6.74597780E-06  5.09426503E-05  3.78727672E-05
  1.91866024E-05  1.11038612E-05  5.74616731E-05 -1.78783675E-05  1.89004667E-04
 -1.38579484E-04  3.61642833E-04 -3.31664867E-04  7.08053072E-05  3.36102322E-04
  1.45528759E-04 -4.81735427E-05  1.14828278E-05  1.56452843E-04  1.05220961E-04
 -3.10144002E-05  5.32640912E-05 -2.22365990E-04  3.44550135E-06  3.21839960E-05
  4.45664129E-05 -1.92827874E-04  4.72744314E-05 -4.88562822E-05 -4.91756071E-06
 -5.03280609E-05  1.85058698E-06  7.29185678E-06  6.20974985E-07  2.42018142E-06
  1.80091174E-06 -3.77680470E-05 -6.20756361E-06  2.71385377E-06  9.05637041E-07
  5.75406196E-06 -5.14903054E-08  4.08114930E-06  8.17876758E-06  8.37986098E-06
  2.29787829E-06 -5.71867968E-06 -5.71961937E-05  6.81548285E-06  3.05845909E-05
 -2.08254485E-05  1.14079941E-04  1.25250854E-05 -3.50886328E-05  2.88165908E-05
 -2.98000704E-05 -7.38966946E-05 -4.58293842E-05 -5.67737006E-05  6.03763859E-05
 -2.37780871E-05  1.26572513E-01  2.65943248E-03 -1.57927130E-04  1.31339811E-04
  5.89904925E-05  6.68421804E-04 -3.76824602E-05  1.25587568E-05 -2.43461590E-07
 -4.71615477E-04 -4.98640755E-04 -5.22017413E-04 -3.73645366E-05 -7.98271368E-06
  2.51587978E-05  9.86608371E-01  2.08076109E-02  1.23907326E-03  1.01390394E-03
 -4.55111507E-04  4.65597392E-03  4.88861974E-05  6.16722046E-05 -2.49351320E-05
 -3.65819535E-03 -3.83178100E-03 -4.00931765E-03  2.69923085E-04 -5.16226012E-05
 -2.11231350E-04  2.22060645E-06  5.83474424E-06 -1.55576681E-05  4.86420355E-06
  6.83465703E-06  2.15932422E-05  1.43684702E-04 -1.66163324E-05  1.17221096E-05
  1.29270672E-06  2.76127448E-06  1.48308138E-05  8.48209812E-06  8.41152331E-06
  7.33553833E-06  2.36003200E-06 -5.14633304E-06 -4.80409803E-07  2.54590957E-05
 -2.26449253E-05 -1.45847994E-04  7.61866592E-05 -5.98861756E-05  4.25077043E-05
  4.76146933E-06 -6.45707521E-06  2.74462415E-05 -4.80547356E-05  4.67884125E-05
 -2.22559982E-05  1.14382425E-06  6.62711952E-05 -1.50681721E-05  1.34550362E-05
  6.51116863E-06 -2.20907297E-04 -1.21380525E-05  9.27427648E-05  7.20381031E-05
 -7.06616382E-05 -4.37421168E-05 -7.95562683E-06  6.33874963E-05  2.65316078E-05
 -2.59266603E-05 -8.45116703E-06  4.33684971E-04  1.09669606E-04  1.01757019E-04
 -4.34154509E-05 -4.15812317E-04  5.47043757E-04  3.35675523E-04 -1.30486656E-04
 -5.27444558E-04 -3.65603786E-04 -9.91346393E-05 -4.59020297E-04  1.98190674E-04
  1.87128776E-04  3.62348775E-07  1.47280387E-05  1.72427923E-05 -1.43311089E-05
  1.91590818E-05 -1.95985166E-05  5.91114436E-06 -4.68046887E-05 -6.39291896E-06
 -6.10131969E-05 -7.20559476E-06  3.09767529E-05  2.10528000E-05  1.27752378E-04
 -1.13252403E-05 -3.69711769E-05 -3.00179470E-05 -3.22987444E-05 -7.63570023E-05
 -4.84277900E-05  5.65400275E-05  6.02115293E-05  2.39744553E-05  3.40443006E-06
  2.24573424E-05 -2.41977488E-06 -5.47770900E-06  3.57176415E-06 -6.87936689E-05
  3.14770756E-06  1.19586809E-05 -8.45369678E-06  1.37209429E-05  1.92250199E-05
  1.61737140E-05  6.35858313E-06 -7.09070475E-06  3.82843151E-06  9.86608965E-01
  2.08102288E-02 -1.23934256E-03  1.01357314E-03  4.54958935E-04  4.63742394E-03
 -4.06909820E-05  6.04593165E-05  2.58332092E-05 -3.65759681E-03 -3.82994279E-03
 -4.00731942E-03 -2.69209116E-04 -5.12687086E-05  2.11738523E-04 -1.26577141E-01
 -2.67983833E-03 -1.60035871E-04 -1.28770975E-04  5.77650382E-05 -5.23854466E-04
  2.61903589E-05 -3.10990198E-06  6.75667049E-06  4.66948257E-04  4.84303500E-04
  5.06459725E-04 -3.18022675E-05  5.21751859E-06  2.91052098E-05  1.85972900E-06
 -6.84070613E-06  4.55531021E-06  2.50421038E-05  2.16200616E-05 -1.56362632E-04
 -1.16220991E-04 -5.75547434E-05 -4.69889036E-05  4.58373636E-06 -7.39374476E-06
  2.44960759E-05  4.74501700E-05  4.61603857E-05  2.10869838E-05  1.67923728E-06
  7.37251885E-06  1.62037078E-05 -1.61468740E-06 -1.15578159E-06  6.03645270E-05
 -1.68368661E-04 -1.54967464E-06 -2.32036576E-05  9.38429753E-08  4.53832230E-06
  8.16689200E-06  3.77045042E-06 -3.51318446E-06 -1.77503130E-06 -9.03241439E-06
  4.30911692E-04 -1.09408555E-04  1.01651921E-04  4.31700549E-05 -3.72097977E-04
 -5.62184764E-04  3.22714105E-04  1.16061667E-04 -5.26662640E-04 -3.66427939E-04
 -1.00378806E-04  4.57845804E-04  1.97904276E-04 -1.86629724E-04  3.38683464E-06
 -4.46504078E-05 -1.30379775E-05 -1.26408776E-05  4.59712484E-06 -1.19823443E-04
 -1.30167702E-04  8.27661889E-06 -4.04074447E-05  6.45727591E-05  5.01723017E-05