252322                                                                  
Freq      RMP2-FC                                                     6-31G(d)            
Number of atoms                            I               18
Info1-9                                    I   N=           9
          30          28        1002           0           0         100
           6           2           1
Charge                                     I                0
Multiplicity                               I                1
Number of electrons                        I               48
Number of alpha electrons                  I               24
Number of beta electrons                   I               24
Number of basis functions                  I              114
Number of independent functions            I              114
Number of point charges in /Mol/           I                0
Number of translation vectors              I                0
Atomic numbers                             I   N=          18
           6           6           6           6           6           6
           1           1           1           1           1           1
           1           1           1           1           1           1
Nuclear charges                            R   N=          18
  6.00000000E+00  6.00000000E+00  6.00000000E+00  6.00000000E+00  6.00000000E+00
  6.00000000E+00  1.00000000E+00  1.00000000E+00  1.00000000E+00  1.00000000E+00
  1.00000000E+00  1.00000000E+00  1.00000000E+00  1.00000000E+00  1.00000000E+00
  1.00000000E+00  1.00000000E+00  1.00000000E+00
Current cartesian coordinates              R   N=          54
  2.18040120E-02  4.03643658E-01  6.70143964E-01  2.44561296E+00  1.87445467E+00
 -3.87474147E-02  1.33512735E+00 -2.01139213E+00 -3.29678689E-01  3.89252014E+00
 -6.57849712E-01  4.97930464E-02 -2.49649678E+00  1.19279409E+00 -4.50672296E-01
 -4.61289743E+00 -6.68745802E-01  1.67756930E-01 -1.28333082E-01  2.88681586E-01
  2.73837314E+00  3.06133760E+00  3.41292100E+00  1.19873830E+00  2.31497453E+00
  2.59023111E+00 -1.97801007E+00  9.24540786E-01 -2.27387938E+00 -2.34374769E+00
  1.00833133E+00 -3.79992823E+00  6.55365342E-01  5.38921442E+00 -9.82086063E-01
 -1.33877791E+00  4.65232385E+00 -1.01660892E+00  1.93935941E+00 -2.99540554E+00
  3.08600462E+00  2.36358750E-01 -2.28328621E+00  1.35176134E+00 -2.50874624E+00
 -4.87922390E+00 -8.26165748E-01  2.21293609E+00 -4.16805137E+00 -2.55273503E+00
 -5.59594171E-01 -6.41044394E+00 -7.56248974E-02 -6.63828199E-01
Force Field                                I                0
Int Atom Types                             I   N=          18
           0           0           0           0           0           0
           0           0           0           0           0           0
           0           0           0           0           0           0
MM charges                                 R   N=          18
  0.00000000E+00  0.00000000E+00  0.00000000E+00  0.00000000E+00  0.00000000E+00
  0.00000000E+00  0.00000000E+00  0.00000000E+00  0.00000000E+00  0.00000000E+00
  0.00000000E+00  0.00000000E+00  0.00000000E+00  0.00000000E+00  0.00000000E+00
  0.00000000E+00  0.00000000E+00  0.00000000E+00
Integer atomic weights                     I   N=          18
          12          12          12          12          12          12
           1           1           1           1           1           1
           1           1           1           1           1           1
Real atomic weights                        R   N=          18
  1.20000000E+01  1.20000000E+01  1.20000000E+01  1.20000000E+01  1.20000000E+01
  1.20000000E+01  1.00782504E+00  1.00782504E+00  1.00782504E+00  1.00782504E+00
  1.00782504E+00  1.00782504E+00  1.00782504E+00  1.00782504E+00  1.00782504E+00
  1.00782504E+00  1.00782504E+00  1.00782504E+00
Atom fragment info                         I   N=          18
           0           0           0           0           0           0
           0           0           0           0           0           0
           0           0           0           0           0           0
Atom residue num                           I   N=          18
           0           0           0           0           0           0
           0           0           0           0           0           0
           0           0           0           0           0           0
Nuclear spins                              I   N=          18
           0           0           0           0           0           0
           1           1           1           1           1           1
           1           1           1           1           1           1
Nuclear ZEff                               R   N=          18
 -3.60000000E+00 -3.60000000E+00 -3.60000000E+00 -3.60000000E+00 -3.60000000E+00
 -3.60000000E+00 -1.00000000E+00 -1.00000000E+00 -1.00000000E+00 -1.00000000E+00
 -1.00000000E+00 -1.00000000E+00 -1.00000000E+00 -1.00000000E+00 -1.00000000E+00
 -1.00000000E+00 -1.00000000E+00 -1.00000000E+00
Nuclear QMom                               R   N=          18
  0.00000000E+00  0.00000000E+00  0.00000000E+00  0.00000000E+00  0.00000000E+00
  0.00000000E+00  0.00000000E+00  0.00000000E+00  0.00000000E+00  0.00000000E+00
  0.00000000E+00  0.00000000E+00  0.00000000E+00  0.00000000E+00  0.00000000E+00
  0.00000000E+00  0.00000000E+00  0.00000000E+00
Nuclear GFac                               R   N=          18
  0.00000000E+00  0.00000000E+00  0.00000000E+00  0.00000000E+00  0.00000000E+00
  0.00000000E+00  2.79284600E+00  2.79284600E+00  2.79284600E+00  2.79284600E+00
  2.79284600E+00  2.79284600E+00  2.79284600E+00  2.79284600E+00  2.79284600E+00
  2.79284600E+00  2.79284600E+00  2.79284600E+00
MicOpt                                     I   N=          18
          -1          -1          -1          -1          -1          -1
          -1          -1          -1          -1          -1          -1
          -1          -1          -1          -1          -1          -1
Number of contracted shells                I               48
Number of primitive shells                 I              114
Pure/Cartesian d shells                    I                1
Pure/Cartesian f shells                    I                0
Highest angular momentum                   I                2
Largest degree of contraction              I                6
Shell types                                I   N=          48
           0          -1          -1           2           0          -1
          -1           2           0          -1          -1           2
           0          -1          -1           2           0          -1
          -1           2           0          -1          -1           2
           0           0           0           0           0           0
           0           0           0           0           0           0
           0           0           0           0           0           0
           0           0           0           0           0           0
Number of primitives per shell             I   N=          48
           6           3           1           1           6           3
           1           1           6           3           1           1
           6           3           1           1           6           3
           1           1           6           3           1           1
           3           1           3           1           3           1
           3           1           3           1           3           1
           3           1           3           1           3           1
           3           1           3           1           3           1
Shell to atom map                          I   N=          48
           1           1           1           1           2           2
           2           2           3           3           3           3
           4           4           4           4           5           5
           5           5           6           6           6           6
           7           7           8           8           9           9
          10          10          11          11          12          12
          13          13          14          14          15          15
          16          16          17          17          18          18
Primitive exponents                        R   N=         114
  3.04752488E+03  4.57369518E+02  1.03948685E+02  2.92101553E+01  9.28666296E+00
  3.16392696E+00  7.86827235E+00  1.88128854E+00  5.44249258E-01  1.68714478E-01
  8.00000000E-01  3.04752488E+03  4.57369518E+02  1.03948685E+02  2.92101553E+01
  9.28666296E+00  3.16392696E+00  7.86827235E+00  1.88128854E+00  5.44249258E-01
  1.68714478E-01  8.00000000E-01  3.04752488E+03  4.57369518E+02  1.03948685E+02
  2.92101553E+01  9.28666296E+00  3.16392696E+00  7.86827235E+00  1.88128854E+00
  5.44249258E-01  1.68714478E-01  8.00000000E-01  3.04752488E+03  4.57369518E+02
  1.03948685E+02  2.92101553E+01  9.28666296E+00  3.16392696E+00  7.86827235E+00
  1.88128854E+00  5.44249258E-01  1.68714478E-01  8.00000000E-01  3.04752488E+03
  4.57369518E+02  1.03948685E+02  2.92101553E+01  9.28666296E+00  3.16392696E+00
  7.86827235E+00  1.88128854E+00  5.44249258E-01  1.68714478E-01  8.00000000E-01
  3.04752488E+03  4.57369518E+02  1.03948685E+02  2.92101553E+01  9.28666296E+00
  3.16392696E+00  7.86827235E+00  1.88128854E+00  5.44249258E-01  1.68714478E-01
  8.00000000E-01  1.87311370E+01  2.82539436E+00  6.40121692E-01  1.61277759E-01
  1.87311370E+01  2.82539436E+00  6.40121692E-01  1.61277759E-01  1.87311370E+01
  2.82539436E+00  6.40121692E-01  1.61277759E-01  1.87311370E+01  2.82539436E+00
  6.40121692E-01  1.61277759E-01  1.87311370E+01  2.82539436E+00  6.40121692E-01
  1.61277759E-01  1.87311370E+01  2.82539436E+00  6.40121692E-01  1.61277759E-01
  1.87311370E+01  2.82539436E+00  6.40121692E-01  1.61277759E-01  1.87311370E+01
  2.82539436E+00  6.40121692E-01  1.61277759E-01  1.87311370E+01  2.82539436E+00
  6.40121692E-01  1.61277759E-01  1.87311370E+01  2.82539436E+00  6.40121692E-01
  1.61277759E-01  1.87311370E+01  2.82539436E+00  6.40121692E-01  1.61277759E-01
  1.87311370E+01  2.82539436E+00  6.40121692E-01  1.61277759E-01
Contraction coefficients                   R   N=         114
  1.83473713E-03  1.40373228E-02  6.88426223E-02  2.32184443E-01  4.67941348E-01
  3.62311985E-01 -1.19332420E-01 -1.60854152E-01  1.14345644E+00  1.00000000E+00
  1.00000000E+00  1.83473713E-03  1.40373228E-02  6.88426223E-02  2.32184443E-01
  4.67941348E-01  3.62311985E-01 -1.19332420E-01 -1.60854152E-01  1.14345644E+00
  1.00000000E+00  1.00000000E+00  1.83473713E-03  1.40373228E-02  6.88426223E-02
  2.32184443E-01  4.67941348E-01  3.62311985E-01 -1.19332420E-01 -1.60854152E-01
  1.14345644E+00  1.00000000E+00  1.00000000E+00  1.83473713E-03  1.40373228E-02
  6.88426223E-02  2.32184443E-01  4.67941348E-01  3.62311985E-01 -1.19332420E-01
 -1.60854152E-01  1.14345644E+00  1.00000000E+00  1.00000000E+00  1.83473713E-03
  1.40373228E-02  6.88426223E-02  2.32184443E-01  4.67941348E-01  3.62311985E-01
 -1.19332420E-01 -1.60854152E-01  1.14345644E+00  1.00000000E+00  1.00000000E+00
  1.83473713E-03  1.40373228E-02  6.88426223E-02  2.32184443E-01  4.67941348E-01
  3.62311985E-01 -1.19332420E-01 -1.60854152E-01  1.14345644E+00  1.00000000E+00
  1.00000000E+00  3.34946043E-02  2.34726953E-01  8.13757326E-01  1.00000000E+00
  3.34946043E-02  2.34726953E-01  8.13757326E-01  1.00000000E+00  3.34946043E-02
  2.34726953E-01  8.13757326E-01  1.00000000E+00  3.34946043E-02  2.34726953E-01
  8.13757326E-01  1.00000000E+00  3.34946043E-02  2.34726953E-01  8.13757326E-01
  1.00000000E+00  3.34946043E-02  2.34726953E-01  8.13757326E-01  1.00000000E+00
  3.34946043E-02  2.34726953E-01  8.13757326E-01  1.00000000E+00  3.34946043E-02
  2.34726953E-01  8.13757326E-01  1.00000000E+00  3.34946043E-02  2.34726953E-01
  8.13757326E-01  1.00000000E+00  3.34946043E-02  2.34726953E-01  8.13757326E-01
  1.00000000E+00  3.34946043E-02  2.34726953E-01  8.13757326E-01  1.00000000E+00
  3.34946043E-02  2.34726953E-01  8.13757326E-01  1.00000000E+00
P(S=P) Contraction coefficients            R   N=         114
  0.00000000E+00  0.00000000E+00  0.00000000E+00  0.00000000E+00  0.00000000E+00
  0.00000000E+00  6.89990666E-02  3.16423961E-01  7.44308291E-01  1.00000000E+00
  0.00000000E+00  0.00000000E+00  0.00000000E+00  0.00000000E+00  0.00000000E+00
  0.00000000E+00  0.00000000E+00  6.89990666E-02  3.16423961E-01  7.44308291E-01
  1.00000000E+00  0.00000000E+00  0.00000000E+00  0.00000000E+00  0.00000000E+00
  0.00000000E+00  0.00000000E+00  0.00000000E+00  6.89990666E-02  3.16423961E-01
  7.44308291E-01  1.00000000E+00  0.00000000E+00  0.00000000E+00  0.00000000E+00
  0.00000000E+00  0.00000000E+00  0.00000000E+00  0.00000000E+00  6.89990666E-02
  3.16423961E-01  7.44308291E-01  1.00000000E+00  0.00000000E+00  0.00000000E+00
  0.00000000E+00  0.00000000E+00  0.00000000E+00  0.00000000E+00  0.00000000E+00
  6.89990666E-02  3.16423961E-01  7.44308291E-01  1.00000000E+00  0.00000000E+00
  0.00000000E+00  0.00000000E+00  0.00000000E+00  0.00000000E+00  0.00000000E+00
  0.00000000E+00  6.89990666E-02  3.16423961E-01  7.44308291E-01  1.00000000E+00
  0.00000000E+00  0.00000000E+00  0.00000000E+00  0.00000000E+00  0.00000000E+00
  0.00000000E+00  0.00000000E+00  0.00000000E+00  0.00000000E+00  0.00000000E+00
  0.00000000E+00  0.00000000E+00  0.00000000E+00  0.00000000E+00  0.00000000E+00
  0.00000000E+00  0.00000000E+00  0.00000000E+00  0.00000000E+00  0.00000000E+00
  0.00000000E+00  0.00000000E+00  0.00000000E+00  0.00000000E+00  0.00000000E+00
  0.00000000E+00  0.00000000E+00  0.00000000E+00  0.00000000E+00  0.00000000E+00
  0.00000000E+00  0.00000000E+00  0.00000000E+00  0.00000000E+00  0.00000000E+00
  0.00000000E+00  0.00000000E+00  0.00000000E+00  0.00000000E+00  0.00000000E+00
  0.00000000E+00  0.00000000E+00  0.00000000E+00  0.00000000E+00  0.00000000E+00
  0.00000000E+00  0.00000000E+00  0.00000000E+00  0.00000000E+00
Coordinates of each shell                  R   N=         144
  2.18040120E-02  4.03643658E-01  6.70143964E-01  2.18040120E-02  4.03643658E-01
  6.70143964E-01  2.18040120E-02  4.03643658E-01  6.70143964E-01  2.18040120E-02
  4.03643658E-01  6.70143964E-01  2.44561296E+00  1.87445467E+00 -3.87474147E-02
  2.44561296E+00  1.87445467E+00 -3.87474147E-02  2.44561296E+00  1.87445467E+00
 -3.87474147E-02  2.44561296E+00  1.87445467E+00 -3.87474147E-02  1.33512735E+00
 -2.01139213E+00 -3.29678689E-01  1.33512735E+00 -2.01139213E+00 -3.29678689E-01
  1.33512735E+00 -2.01139213E+00 -3.29678689E-01  1.33512735E+00 -2.01139213E+00
 -3.29678689E-01  3.89252014E+00 -6.57849712E-01  4.97930464E-02  3.89252014E+00
 -6.57849712E-01  4.97930464E-02  3.89252014E+00 -6.57849712E-01  4.97930464E-02
  3.89252014E+00 -6.57849712E-01  4.97930464E-02 -2.49649678E+00  1.19279409E+00
 -4.50672296E-01 -2.49649678E+00  1.19279409E+00 -4.50672296E-01 -2.49649678E+00
  1.19279409E+00 -4.50672296E-01 -2.49649678E+00  1.19279409E+00 -4.50672296E-01
 -4.61289743E+00 -6.68745802E-01  1.67756930E-01 -4.61289743E+00 -6.68745802E-01
  1.67756930E-01 -4.61289743E+00 -6.68745802E-01  1.67756930E-01 -4.61289743E+00
 -6.68745802E-01  1.67756930E-01 -1.28333082E-01  2.88681586E-01  2.73837314E+00
 -1.28333082E-01  2.88681586E-01  2.73837314E+00  3.06133760E+00  3.41292100E+00
  1.19873830E+00  3.06133760E+00  3.41292100E+00  1.19873830E+00  2.31497453E+00
  2.59023111E+00 -1.97801007E+00  2.31497453E+00  2.59023111E+00 -1.97801007E+00
  9.24540786E-01 -2.27387938E+00 -2.34374769E+00  9.24540786E-01 -2.27387938E+00
 -2.34374769E+00  1.00833133E+00 -3.79992823E+00  6.55365342E-01  1.00833133E+00
 -3.79992823E+00  6.55365342E-01  5.38921442E+00 -9.82086063E-01 -1.33877791E+00
  5.38921442E+00 -9.82086063E-01 -1.33877791E+00  4.65232385E+00 -1.01660892E+00
  1.93935941E+00  4.65232385E+00 -1.01660892E+00  1.93935941E+00 -2.99540554E+00
  3.08600462E+00  2.36358750E-01 -2.99540554E+00  3.08600462E+00  2.36358750E-01
 -2.28328621E+00  1.35176134E+00 -2.50874624E+00 -2.28328621E+00  1.35176134E+00
 -2.50874624E+00 -4.87922390E+00 -8.26165748E-01  2.21293609E+00 -4.87922390E+00
 -8.26165748E-01  2.21293609E+00 -4.16805137E+00 -2.55273503E+00 -5.59594171E-01
 -4.16805137E+00 -2.55273503E+00 -5.59594171E-01 -6.41044394E+00 -7.56248974E-02
 -6.63828199E-01 -6.41044394E+00 -7.56248974E-02 -6.63828199E-01
Constraint Structure                       R   N=          54
  2.18040120E-02  4.03643658E-01  6.70143964E-01  2.44561296E+00  1.87445467E+00
 -3.87474147E-02  1.33512735E+00 -2.01139213E+00 -3.29678689E-01  3.89252014E+00
 -6.57849712E-01  4.97930464E-02 -2.49649678E+00  1.19279409E+00 -4.50672296E-01
 -4.61289743E+00 -6.68745802E-01  1.67756930E-01 -1.28333082E-01  2.88681586E-01
  2.73837314E+00  3.06133760E+00  3.41292100E+00  1.19873830E+00  2.31497453E+00
  2.59023111E+00 -1.97801007E+00  9.24540786E-01 -2.27387938E+00 -2.34374769E+00
  1.00833133E+00 -3.79992823E+00  6.55365342E-01  5.38921442E+00 -9.82086063E-01
 -1.33877791E+00  4.65232385E+00 -1.01660892E+00  1.93935941E+00 -2.99540554E+00
  3.08600462E+00  2.36358750E-01 -2.28328621E+00  1.35176134E+00 -2.50874624E+00
 -4.87922390E+00 -8.26165748E-01  2.21293609E+00 -4.16805137E+00 -2.55273503E+00
 -5.59594171E-01 -6.41044394E+00 -7.56248974E-02 -6.63828199E-01
Num ILSW                                   I              100
ILSW                                       I   N=         100
           0           1           0           0           2           0
           0           0           0           0           0          -1
           0           0           0           0           0           0
           0           0           0           0           1           0
           1           0           0           0           0           0
           0           0      100000           0          -1           0
           0           0           0           0           0           0
           0           0           0           1           1           0
           0           0           1           0           0           0
           0           0           4          40           0           0
           0           0           0           0           0           0
           0           0           0           0           0           0
           0           0           0           0           0           0
           0           0           0           0           0           0
           0           0           0           0           0           0
           0           0           0           0           0           0
           0           0           0           0
Num RLSW                                   I               40
RLSW                                       R   N=          40
  1.00000000E+00  1.00000000E+00  1.00000000E+00  1.00000000E+00  1.00000000E+00
  0.00000000E+00  0.00000000E+00  1.00000000E+00  0.00000000E+00  0.00000000E+00
  0.00000000E+00  0.00000000E+00  1.00000000E+00  0.00000000E+00  0.00000000E+00
  0.00000000E+00  0.00000000E+00  1.00000000E+00  0.00000000E+00  0.00000000E+00
  0.00000000E+00  0.00000000E+00  1.00000000E+00  0.00000000E+00  0.00000000E+00
  0.00000000E+00  0.00000000E+00  1.00000000E+00  0.00000000E+00  0.00000000E+00
  0.00000000E+00  0.00000000E+00  0.00000000E+00  0.00000000E+00  0.00000000E+00
  0.00000000E+00  0.00000000E+00  0.00000000E+00  1.00000000E+00  1.00000000E+00
MxBond                                     I                4
NBond                                      I   N=          18
           4           4           4           4           4           4
           1           1           1           1           1           1
           1           1           1           1           1           1
IBond                                      I   N=          72
           2           3           5           7           1           4
           8           9           1           4          10          11
           2           3          12          13           1           6
          14          15           5          16          17          18
           1           0           0           0           2           0
           0           0           2           0           0           0
           3           0           0           0           3           0
           0           0           4           0           0           0
           4           0           0           0           5           0
           0           0           5           0           0           0
           6           0           0           0           6           0
           0           0           6           0           0           0
RBond                                      R   N=          72
  1.00000000E+00  1.00000000E+00  1.00000000E+00  1.00000000E+00  1.00000000E+00
  1.00000000E+00  1.00000000E+00  1.00000000E+00  1.00000000E+00  1.00000000E+00
  1.00000000E+00  1.00000000E+00  1.00000000E+00  1.00000000E+00  1.00000000E+00
  1.00000000E+00  1.00000000E+00  1.00000000E+00  1.00000000E+00  1.00000000E+00
  1.00000000E+00  1.00000000E+00  1.00000000E+00  1.00000000E+00  1.00000000E+00
  0.00000000E+00  0.00000000E+00  0.00000000E+00  1.00000000E+00  0.00000000E+00
  0.00000000E+00  0.00000000E+00  1.00000000E+00  0.00000000E+00  0.00000000E+00
  0.00000000E+00  1.00000000E+00  0.00000000E+00  0.00000000E+00  0.00000000E+00
  1.00000000E+00  0.00000000E+00  0.00000000E+00  0.00000000E+00  1.00000000E+00
  0.00000000E+00  0.00000000E+00  0.00000000E+00  1.00000000E+00  0.00000000E+00
  0.00000000E+00  0.00000000E+00  1.00000000E+00  0.00000000E+00  0.00000000E+00
  0.00000000E+00  1.00000000E+00  0.00000000E+00  0.00000000E+00  0.00000000E+00
  1.00000000E+00  0.00000000E+00  0.00000000E+00  0.00000000E+00  1.00000000E+00
  0.00000000E+00  0.00000000E+00  0.00000000E+00  1.00000000E+00  0.00000000E+00
  0.00000000E+00  0.00000000E+00
Virial Ratio                               R      2.000910652563043E+00
SCF Energy                                 R     -2.341681645294545E+02
MP2 Energy                                 R     -2.349542598675209E+02
Total Energy                               R     -2.349542598675209E+02
Post-SCF wavefunction norm                 R      1.590602432669568E+00
RMS Force                                  R      7.239627757524192E-07
RMS Density                                R      5.460851290599018E-10
External E-field                           R   N=          35
  0.00000000E+00  0.00000000E+00  0.00000000E+00  0.00000000E+00  0.00000000E+00
  0.00000000E+00  0.00000000E+00  0.00000000E+00  0.00000000E+00  0.00000000E+00
  0.00000000E+00  0.00000000E+00  0.00000000E+00  0.00000000E+00  0.00000000E+00
  0.00000000E+00  0.00000000E+00  0.00000000E+00  0.00000000E+00  0.00000000E+00
  0.00000000E+00  0.00000000E+00  0.00000000E+00  0.00000000E+00  0.00000000E+00
  0.00000000E+00  0.00000000E+00  0.00000000E+00  0.00000000E+00  0.00000000E+00
  0.00000000E+00  0.00000000E+00  0.00000000E+00  0.00000000E+00  0.00000000E+00
IOpCl                                      I                0
IROHF                                      I                0
Alpha Orbital Energies                     R   N=         114
 -1.12190356E+01 -1.12157524E+01 -1.12144917E+01 -1.12139689E+01 -1.12137421E+01
 -1.12104948E+01 -1.13430877E+00 -1.02691874E+00 -8.98613832E-01 -8.87531849E-01
 -8.08113266E-01 -7.43106699E-01 -6.48523601E-01 -6.25036575E-01 -6.01184760E-01
 -5.52704904E-01 -5.34223289E-01 -5.30208411E-01 -5.05933256E-01 -4.77619327E-01
 -4.60924715E-01 -4.44779886E-01 -4.25297474E-01 -4.18123359E-01  2.30254045E-01
  2.49330636E-01  2.51329106E-01  2.81682692E-01  3.01679777E-01  3.11342103E-01
  3.21385557E-01  3.32716049E-01  3.41107470E-01  3.51528811E-01  3.57301798E-01
  3.65143875E-01  3.78335298E-01  3.87776268E-01  4.20183261E-01  4.29411237E-01
  4.83700500E-01  5.21818597E-01  6.89556692E-01  7.18652313E-01  7.31627904E-01
  7.40249800E-01  7.54932973E-01  7.85086705E-01  8.05112800E-01  8.79956693E-01
  8.88495475E-01  9.13969028E-01  9.62721972E-01  9.76440796E-01  9.96256092E-01
  1.02612929E+00  1.05538858E+00  1.09059617E+00  1.12141768E+00  1.13242898E+00
  1.14867437E+00  1.15871895E+00  1.16261385E+00  1.16771996E+00  1.19074936E+00
  1.20458671E+00  1.20740617E+00  1.22134447E+00  1.23194715E+00  1.24121657E+00
  1.26201720E+00  1.26871393E+00  1.37234048E+00  1.48803516E+00  1.56967938E+00
  1.65255318E+00  1.67465113E+00  1.82480284E+00  1.89367531E+00  1.91564496E+00
  1.96657514E+00  2.04307964E+00  2.11141753E+00  2.14830189E+00  2.19239426E+00
  2.22610518E+00  2.27577063E+00  2.28877095E+00  2.33459119E+00  2.34870291E+00
  2.37603697E+00  2.41750294E+00  2.43409367E+00  2.45368277E+00  2.51506773E+00
  2.55447533E+00  2.64781657E+00  2.66763385E+00  2.67985372E+00  2.74472601E+00
  2.80117234E+00  2.81581267E+00  2.90634687E+00  2.92444436E+00  2.94720499E+00
  3.01164240E+00  3.11997079E+00  3.23662264E+00  4.54087904E+00  4.64492040E+00
  4.76791799E+00  4.79429242E+00  4.90721048E+00  5.16470713E+00
Alpha MO coefficients                      R   N=       12996
  9.90728582E-01  2.86005145E-02  2.19558409E-04 -9.40636480E-05 -1.82739532E-04
 -2.01133775E-02 -1.59812443E-03  5.96864704E-04  2.13815708E-03 -1.27644454E-03
 -1.48098353E-03 -1.28858948E-03 -5.39409929E-05  2.24284123E-05 -3.33085710E-05
  5.23380225E-02  1.43755569E-03 -1.85725561E-04 -5.86175546E-05  4.50032588E-05
  5.44285108E-03 -1.74843761E-03 -1.40621170E-03  1.25244530E-04 -4.54277181E-04
 -4.42788324E-04 -2.39218031E-04 -1.87898508E-04  1.17979408E-04  8.49048064E-05
  5.41064498E-02  1.41614468E-03 -1.36178950E-04  1.44430309E-04  6.24431233E-05
  5.87173198E-03 -8.87680557E-04  2.25565371E-03  4.72835024E-04 -3.18867760E-04
 -5.62167169E-04 -2.93345147E-04  7.12600857E-05  5.32112407E-05 -1.71928481E-04
  9.17796261E-03  3.42097315E-04 -3.63218763E-05  1.74627720E-05 -3.35680739E-06
 -1.97683238E-03  7.04890642E-04 -2.55530256E-04  6.49743318E-04  1.04802377E-04
 -4.13594497E-05  6.62612557E-05 -4.60259143E-05 -1.06543120E-04  2.30389232E-05
  6.82093498E-02  1.97397551E-03  5.20383004E-05  5.76487305E-06  7.20474178E-05
  2.91961631E-03  2.44482967E-03 -5.17474689E-04 -3.35824627E-04 -4.60709619E-04
 -2.99803384E-04 -3.19799855E-04  5.70168747E-05 -2.23128321E-04  9.62578568E-05
  1.49352497E-03 -2.32562663E-04 -9.94875978E-05 -9.82936865E-06 -4.88285130E-05
  1.36272804E-03  4.84789307E-04  2.64177210E-04  4.18458540E-04 -6.40998087E-05
 -8.47651066E-05 -1.18353769E-04 -2.30673393E-06  5.46174884E-05 -1.48691689E-05
  1.82850774E-04  2.38642265E-03 -1.94540619E-04  7.86815053E-05 -2.63138483E-04
 -1.25062125E-04 -2.89153154E-04 -1.06210590E-04 -2.11378837E-04  7.82154551E-05
  3.69059192E-05  3.51726690E-04 -1.01891273E-05 -2.36531625E-04 -7.53664292E-05
  3.84708677E-04 -2.37412185E-04 -2.73303159E-04 -8.12883410E-05 -4.80825877E-04
 -4.64153111E-05 -1.21998729E-04 -5.01662909E-05  2.94650819E-04 -2.39179125E-02
 -6.36821053E-04  3.27312864E-05 -1.35511136E-05 -4.77531929E-05  2.98107213E-05
  5.21792298E-04 -1.90292197E-04  6.24496602E-04  1.09588717E-04 -3.18905624E-05
  4.49836917E-05 -4.94729961E-05  3.22886552E-05 -1.78969245E-05  1.34571293E-01
  3.87323604E-03  4.15223201E-05 -1.04515296E-04 -3.19792316E-05  2.35636344E-03
  1.05999338E-03 -1.36072658E-03  1.60962621E-04 -4.52191807E-04 -6.80358727E-04
 -3.22274036E-04  1.43267486E-04  5.02181152E-05  3.82999051E-05  1.50161220E-01
  4.30502548E-03  8.14932579E-05  7.29355368E-05 -2.07919216E-05  2.19796790E-03
  1.64583975E-03  5.68626362E-04  3.23866284E-04 -6.51054591E-04 -5.13511856E-04
 -3.70222610E-04 -1.77112399E-04 -1.54361490E-05 -9.16026088E-05  9.74836357E-01
  2.78464517E-02 -2.96466807E-04  7.63007776E-05  1.12346542E-04 -1.55858445E-02
  1.72977199E-03 -4.48324942E-04 -5.53102893E-04 -1.63692317E-03 -1.79258951E-03
 -1.51529968E-03 -5.73186045E-05 -7.73926834E-05 -3.42309428E-06 -7.14750410E-03
 -3.20561193E-04 -2.58755594E-05  1.11124468E-05  2.24691140E-05  8.87806500E-04
  5.66295748E-04 -9.77063775E-05 -1.67875400E-04 -4.61351397E-06 -3.09878261E-05
 -3.54888500E-05 -1.91298702E-05  4.36141716E-06  5.38494790E-06 -4.63404986E-04
 -3.69678776E-05 -3.65330292E-05 -5.68182058E-06 -4.54517663E-06  4.81627118E-05
  1.26482181E-04  1.45395135E-04  7.14022473E-05 -1.10189612E-05  6.84287244E-06
 -1.94398060E-05  1.23329532E-05 -8.76632492E-07 -4.03428551E-06 -9.93661672E-05
 -2.48142457E-04 -1.81998985E-04  1.45135784E-04 -1.67510993E-04  4.01018912E-04
 -1.60327151E-04  4.38508183E-04 -1.77406173E-04  1.67242289E-04  1.55822974E-05
  2.03593382E-03  1.90151616E-04  2.74851700E-03 -3.55137455E-05  9.21255850E-05
 -4.42844064E-05 -2.68638794E-04 -1.91239169E-06 -3.99092507E-05 -3.86142809E-05
  1.99095054E-04  3.80937938E-06  8.21611919E-05 -6.46859349E-02 -1.82173477E-03
 -5.53306705E-05 -7.85658958E-07  2.99000216E-05  5.28546570E-03 -2.20403829E-03
  7.67161454E-04 -9.98604048E-04 -2.41350646E-04 -6.72700189E-05 -6.93102938E-05
  1.10496633E-04 -1.43512338E-04  5.19562524E-05 -2.96914351E-02 -8.83483249E-04
  8.83433675E-05  9.64294295E-06  2.24870919E-05  1.94226606E-04  1.95317915E-04
  2.22815580E-04 -9.74169672E-05  2.15678573E-05 -1.29356185E-05  2.91357309E-05
  2.18883812E-06 -1.63401617E-05 -5.17971859E-05 -4.46893142E-02 -1.41495932E-03
  9.85875165E-05 -9.67358265E-05  3.70138715E-05  7.91745722E-04 -1.65434375E-04
  5.96882395E-05 -2.38814541E-04  9.36459014E-07 -4.29204602E-06  3.03188067E-05
 -4.74309581E-05  1.43967209E-05  5.98197364E-05  1.66598949E-02  3.62507956E-04
  1.80847151E-05  1.27911353E-05 -7.01720974E-05  8.10543692E-05 -3.72225517E-04
  1.88502907E-05  5.28720366E-04 -7.63611469E-06 -2.39635493E-05 -4.08913397E-05
  1.88965971E-06  6.90876690E-06 -3.95806500E-06  9.89404944E-01  2.84084903E-02