020_DimethylSulfide Gaussian SP Calculation on node35.bme.utexas.edu    
Freq      RMP2-FC                                                     6-31G(d)            
Number of atoms                            I                9
Info1-9                                    I   N=           9
          20          19        1002           0           0         100
           6           2           1
Charge                                     I                0
Multiplicity                               I                1
Number of electrons                        I               34
Number of alpha electrons                  I               17
Number of beta electrons                   I               17
Number of basis functions                  I               61
Number of independent functions            I               61
Number of point charges in /Mol/           I                0
Number of translation vectors              I                0
Atomic numbers                             I   N=           9
           6           6          16           1           1           1
           1           1           1
Nuclear charges                            R   N=           9
  6.00000000E+00  6.00000000E+00  1.60000000E+01  1.00000000E+00  1.00000000E+00
  1.00000000E+00  1.00000000E+00  1.00000000E+00  1.00000000E+00
Current cartesian coordinates              R   N=          27
 -2.58711246E+00 -9.71500722E-01 -6.87979579E-07  2.58711236E+00 -9.71500843E-01
 -6.61120990E-07  4.79973626E-08  1.25576632E+00 -3.14591106E-07 -2.54828322E+00
 -2.16379395E+00  1.68564180E+00 -4.34357411E+00  1.10469938E-01  1.56517855E-07
 -2.54827818E+00 -2.16380186E+00 -1.68563540E+00  2.54827907E+00 -2.16379893E+00
  1.68563825E+00  2.54828210E+00 -2.16379666E+00 -1.68563916E+00  4.34357413E+00
  1.10469780E-01  7.48070181E-06
Force Field                                I                0
Int Atom Types                             I   N=           9
           0           0           0           0           0           0
           0           0           0
MM charges                                 R   N=           9
  0.00000000E+00  0.00000000E+00  0.00000000E+00  0.00000000E+00  0.00000000E+00
  0.00000000E+00  0.00000000E+00  0.00000000E+00  0.00000000E+00
Integer atomic weights                     I   N=           9
          12          12          32           1           1           1
           1           1           1
Real atomic weights                        R   N=           9
  1.20000000E+01  1.20000000E+01  3.19720718E+01  1.00782504E+00  1.00782504E+00
  1.00782504E+00  1.00782504E+00  1.00782504E+00  1.00782504E+00
Atom fragment info                         I   N=           9
           0           0           0           0           0           0
           0           0           0
Atom residue num                           I   N=           9
           0           0           0           0           0           0
           0           0           0
Nuclear spins                              I   N=           9
           0           0           0           1           1           1
           1           1           1
Nuclear ZEff                               R   N=           9
 -3.60000000E+00 -3.60000000E+00 -1.36000000E+01 -1.00000000E+00 -1.00000000E+00
 -1.00000000E+00 -1.00000000E+00 -1.00000000E+00 -1.00000000E+00
Nuclear QMom                               R   N=           9
  0.00000000E+00  0.00000000E+00  0.00000000E+00  0.00000000E+00  0.00000000E+00
  0.00000000E+00  0.00000000E+00  0.00000000E+00  0.00000000E+00
Nuclear GFac                               R   N=           9
  0.00000000E+00  0.00000000E+00  0.00000000E+00  2.79284600E+00  2.79284600E+00
  2.79284600E+00  2.79284600E+00  2.79284600E+00  2.79284600E+00
MicOpt                                     I   N=           9
          -1          -1          -1          -1          -1          -1
          -1          -1          -1
Number of contracted shells                I               25
Number of primitive shells                 I               63
Pure/Cartesian d shells                    I                1
Pure/Cartesian f shells                    I                0
Highest angular momentum                   I                2
Largest degree of contraction              I                6
Shell types                                I   N=          25
           0          -1          -1           2           0          -1
          -1           2           0          -1          -1          -1
           2           0           0           0           0           0
           0           0           0           0           0           0
           0
Number of primitives per shell             I   N=          25
           6           3           1           1           6           3
           1           1           6           6           3           1
           1           3           1           3           1           3
           1           3           1           3           1           3
           1
Shell to atom map                          I   N=          25
           1           1           1           1           2           2
           2           2           3           3           3           3
           3           4           4           5           5           6
           6           7           7           8           8           9
           9
Primitive exponents                        R   N=          63
  3.04752488E+03  4.57369518E+02  1.03948685E+02  2.92101553E+01  9.28666296E+00
  3.16392696E+00  7.86827235E+00  1.88128854E+00  5.44249258E-01  1.68714478E-01
  8.00000000E-01  3.04752488E+03  4.57369518E+02  1.03948685E+02  2.92101553E+01
  9.28666296E+00  3.16392696E+00  7.86827235E+00  1.88128854E+00  5.44249258E-01
  1.68714478E-01  8.00000000E-01  2.19171000E+04  3.30149000E+03  7.54146000E+02
  2.12711000E+02  6.79896000E+01  2.30515000E+01  4.23735000E+02  1.00710000E+02
  3.21599000E+01  1.18079000E+01  4.63110000E+00  1.87025000E+00  2.61584000E+00
  9.22167000E-01  3.41287000E-01  1.17167000E-01  6.50000000E-01  1.87311370E+01
  2.82539436E+00  6.40121692E-01  1.61277759E-01  1.87311370E+01  2.82539436E+00
  6.40121692E-01  1.61277759E-01  1.87311370E+01  2.82539436E+00  6.40121692E-01
  1.61277759E-01  1.87311370E+01  2.82539436E+00  6.40121692E-01  1.61277759E-01
  1.87311370E+01  2.82539436E+00  6.40121692E-01  1.61277759E-01  1.87311370E+01
  2.82539436E+00  6.40121692E-01  1.61277759E-01
Contraction coefficients                   R   N=          63
  1.83473713E-03  1.40373228E-02  6.88426223E-02  2.32184443E-01  4.67941348E-01
  3.62311985E-01 -1.19332420E-01 -1.60854152E-01  1.14345644E+00  1.00000000E+00
  1.00000000E+00  1.83473713E-03  1.40373228E-02  6.88426223E-02  2.32184443E-01
  4.67941348E-01  3.62311985E-01 -1.19332420E-01 -1.60854152E-01  1.14345644E+00
  1.00000000E+00  1.00000000E+00  1.86924085E-03  1.42303065E-02  6.96962317E-02
  2.38487108E-01  4.83307220E-01  3.38074154E-01 -2.37677050E-03 -3.16930067E-02
 -1.13317024E-01  5.60900118E-02  5.92255124E-01  4.55006095E-01 -2.50373114E-01
  6.69567631E-02  1.05450627E+00  1.00000000E+00  1.00000000E+00  3.34946043E-02
  2.34726953E-01  8.13757326E-01  1.00000000E+00  3.34946043E-02  2.34726953E-01
  8.13757326E-01  1.00000000E+00  3.34946043E-02  2.34726953E-01  8.13757326E-01
  1.00000000E+00  3.34946043E-02  2.34726953E-01  8.13757326E-01  1.00000000E+00
  3.34946043E-02  2.34726953E-01  8.13757326E-01  1.00000000E+00  3.34946043E-02
  2.34726953E-01  8.13757326E-01  1.00000000E+00
P(S=P) Contraction coefficients            R   N=          63
  0.00000000E+00  0.00000000E+00  0.00000000E+00  0.00000000E+00  0.00000000E+00
  0.00000000E+00  6.89990666E-02  3.16423961E-01  7.44308291E-01  1.00000000E+00
  0.00000000E+00  0.00000000E+00  0.00000000E+00  0.00000000E+00  0.00000000E+00
  0.00000000E+00  0.00000000E+00  6.89990666E-02  3.16423961E-01  7.44308291E-01
  1.00000000E+00  0.00000000E+00  0.00000000E+00  0.00000000E+00  0.00000000E+00
  0.00000000E+00  0.00000000E+00  0.00000000E+00  4.06100998E-03  3.06812999E-02
  1.30451999E-01  3.27204999E-01  4.52850998E-01  2.56041999E-01 -1.45104895E-02
  3.10262776E-01  7.54482456E-01  1.00000000E+00  0.00000000E+00  0.00000000E+00
  0.00000000E+00  0.00000000E+00  0.00000000E+00  0.00000000E+00  0.00000000E+00
  0.00000000E+00  0.00000000E+00  0.00000000E+00  0.00000000E+00  0.00000000E+00
  0.00000000E+00  0.00000000E+00  0.00000000E+00  0.00000000E+00  0.00000000E+00
  0.00000000E+00  0.00000000E+00  0.00000000E+00  0.00000000E+00  0.00000000E+00
  0.00000000E+00  0.00000000E+00  0.00000000E+00
Coordinates of each shell                  R   N=          75
 -2.58711246E+00 -9.71500722E-01 -6.87979579E-07 -2.58711246E+00 -9.71500722E-01
 -6.87979579E-07 -2.58711246E+00 -9.71500722E-01 -6.87979579E-07 -2.58711246E+00
 -9.71500722E-01 -6.87979579E-07  2.58711236E+00 -9.71500843E-01 -6.61120990E-07
  2.58711236E+00 -9.71500843E-01 -6.61120990E-07  2.58711236E+00 -9.71500843E-01
 -6.61120990E-07  2.58711236E+00 -9.71500843E-01 -6.61120990E-07  4.79973626E-08
  1.25576632E+00 -3.14591106E-07  4.79973626E-08  1.25576632E+00 -3.14591106E-07
  4.79973626E-08  1.25576632E+00 -3.14591106E-07  4.79973626E-08  1.25576632E+00
 -3.14591106E-07  4.79973626E-08  1.25576632E+00 -3.14591106E-07 -2.54828322E+00
 -2.16379395E+00  1.68564180E+00 -2.54828322E+00 -2.16379395E+00  1.68564180E+00
 -4.34357411E+00  1.10469938E-01  1.56517855E-07 -4.34357411E+00  1.10469938E-01
  1.56517855E-07 -2.54827818E+00 -2.16380186E+00 -1.68563540E+00 -2.54827818E+00
 -2.16380186E+00 -1.68563540E+00  2.54827907E+00 -2.16379893E+00  1.68563825E+00
  2.54827907E+00 -2.16379893E+00  1.68563825E+00  2.54828210E+00 -2.16379666E+00
 -1.68563916E+00  2.54828210E+00 -2.16379666E+00 -1.68563916E+00  4.34357413E+00
  1.10469780E-01  7.48070181E-06  4.34357413E+00  1.10469780E-01  7.48070181E-06
Constraint Structure                       R   N=          27
 -2.58711246E+00 -9.71500722E-01 -6.87979579E-07  2.58711236E+00 -9.71500843E-01
 -6.61120990E-07  4.79973626E-08  1.25576632E+00 -3.14591106E-07 -2.54828322E+00
 -2.16379395E+00  1.68564180E+00 -4.34357411E+00  1.10469938E-01  1.56517855E-07
 -2.54827818E+00 -2.16380186E+00 -1.68563540E+00  2.54827907E+00 -2.16379893E+00
  1.68563825E+00  2.54828210E+00 -2.16379666E+00 -1.68563916E+00  4.34357413E+00
  1.10469780E-01  7.48070181E-06
Num ILSW                                   I              100
ILSW                                       I   N=         100
           0           1           0           0           2           0
           0           0           0           0           0          -1
           0           0           0           0           0           0
           0           0           0           0           1           0
           1           0           0           0           0           0
           0           0      100000           0          -1           0
           0           0           0           0           0           0
           0           0           0           1           1           0
           0           0           1           0           0           0
           0           0           4          40           0           0
           0           0           0           0           0           0
           0           0           0           0           0           0
           0           0           0           0           0           0
           0           0           0           0           0           0
           0           0           0           0           0           0
           0           0           0           0           0           0
           0           0           0           0
Num RLSW                                   I               40
RLSW                                       R   N=          40
  1.00000000E+00  1.00000000E+00  1.00000000E+00  1.00000000E+00  1.00000000E+00
  0.00000000E+00  0.00000000E+00  1.00000000E+00  0.00000000E+00  0.00000000E+00
  0.00000000E+00  0.00000000E+00  1.00000000E+00  0.00000000E+00  0.00000000E+00
  0.00000000E+00  0.00000000E+00  1.00000000E+00  0.00000000E+00  0.00000000E+00
  0.00000000E+00  0.00000000E+00  1.00000000E+00  0.00000000E+00  0.00000000E+00
  0.00000000E+00  0.00000000E+00  1.00000000E+00  0.00000000E+00  0.00000000E+00
  0.00000000E+00  0.00000000E+00  0.00000000E+00  0.00000000E+00  0.00000000E+00
  0.00000000E+00  0.00000000E+00  0.00000000E+00  1.00000000E+00  1.00000000E+00
MxBond                                     I                4
NBond                                      I   N=           9
           4           4           2           1           1           1
           1           1           1
IBond                                      I   N=          36
           3           4           5           6           3           7
           8           9           1           2           0           0
           1           0           0           0           1           0
           0           0           1           0           0           0
           2           0           0           0           2           0
           0           0           2           0           0           0
RBond                                      R   N=          36
  1.00000000E+00  1.00000000E+00  1.00000000E+00  1.00000000E+00  1.00000000E+00
  1.00000000E+00  1.00000000E+00  1.00000000E+00  1.00000000E+00  1.00000000E+00
  0.00000000E+00  0.00000000E+00  1.00000000E+00  0.00000000E+00  0.00000000E+00
  0.00000000E+00  1.00000000E+00  0.00000000E+00  0.00000000E+00  0.00000000E+00
  1.00000000E+00  0.00000000E+00  0.00000000E+00  0.00000000E+00  1.00000000E+00
  0.00000000E+00  0.00000000E+00  0.00000000E+00  1.00000000E+00  0.00000000E+00
  0.00000000E+00  0.00000000E+00  1.00000000E+00  0.00000000E+00  0.00000000E+00
  0.00000000E+00
Virial Ratio                               R      2.000546409638007E+00
SCF Energy                                 R     -4.767348614052538E+02
MP2 Energy                                 R     -4.771211081339576E+02
Total Energy                               R     -4.771211081339576E+02
Post-SCF wavefunction norm                 R      1.511498708821141E+00
RMS Force                                  R      1.243958059161704E-06
RMS Density                                R      7.448143302839208E-10
External E-field                           R   N=          35
  0.00000000E+00  0.00000000E+00  0.00000000E+00  0.00000000E+00  0.00000000E+00
  0.00000000E+00  0.00000000E+00  0.00000000E+00  0.00000000E+00  0.00000000E+00
  0.00000000E+00  0.00000000E+00  0.00000000E+00  0.00000000E+00  0.00000000E+00
  0.00000000E+00  0.00000000E+00  0.00000000E+00  0.00000000E+00  0.00000000E+00
  0.00000000E+00  0.00000000E+00  0.00000000E+00  0.00000000E+00  0.00000000E+00
  0.00000000E+00  0.00000000E+00  0.00000000E+00  0.00000000E+00  0.00000000E+00
  0.00000000E+00  0.00000000E+00  0.00000000E+00  0.00000000E+00  0.00000000E+00
IOpCl                                      I                0
IROHF                                      I                0
Alpha Orbital Energies                     R   N=          61
 -9.19321625E+01 -1.12516372E+01 -1.12516226E+01 -8.94248261E+00 -6.62549258E+00
 -6.62407163E+00 -6.62193038E+00 -1.06250628E+00 -9.51252158E-01 -8.07323262E-01
 -6.03510963E-01 -6.02342850E-01 -5.77481133E-01 -5.63961255E-01 -4.94366639E-01
 -4.34865599E-01 -3.34429769E-01  1.93813033E-01  2.26636607E-01  2.54541131E-01
  2.82344393E-01  2.89704156E-01  3.19485946E-01  3.19556410E-01  3.36755662E-01
  5.48797692E-01  5.74443166E-01  5.76838807E-01  5.77786023E-01  6.50119083E-01
  7.22617233E-01  7.65114844E-01  8.13923239E-01  8.24976367E-01  9.87138575E-01
  1.07883000E+00  1.09231518E+00  1.12995442E+00  1.14488945E+00  1.16199200E+00
  1.17908908E+00  1.18871921E+00  1.20171997E+00  1.21590995E+00  1.23463194E+00
  1.33148219E+00  1.47409694E+00  1.56449349E+00  1.96755285E+00  1.97848437E+00
  2.01894656E+00  2.05800947E+00  2.43181441E+00  2.54216749E+00  2.54322986E+00
  2.58369614E+00  2.58450477E+00  2.58708480E+00  4.33717981E+00  4.62370584E+00
  4.62497027E+00
Alpha MO coefficients                      R   N=        3721
 -5.36563443E-06  4.34435694E-05  8.32329266E-05  7.51637183E-05 -1.99076074E-10
  2.22289565E-04 -1.42186757E-04 -8.95252092E-05  1.35345933E-09 -3.41762050E-05
 -2.19658867E-05 -1.86580414E-05 -1.73761486E-05 -7.21988098E-11 -3.09515549E-11
 -5.36563718E-06  4.34435707E-05 -8.32329206E-05  7.51637166E-05 -1.18547665E-10
  2.22289676E-04  1.42186754E-04 -8.95251923E-05  9.21343199E-10 -3.41762258E-05
 -2.19659139E-05 -1.86580418E-05  1.73761625E-05  8.98745927E-11  1.31885267E-11
  9.96254762E-01  1.42565371E-02 -2.00463878E-12 -9.24168633E-05  4.20694752E-12
 -2.00010290E-02 -2.65440439E-12  1.26911452E-04 -1.04009051E-10  2.77882056E-03
 -1.58779036E-11 -2.72401731E-04 -2.22140129E-10  6.90633058E-03  6.91184157E-03
  6.89702673E-03  5.98975780E-13  2.69909714E-11  1.04810706E-10 -2.41070623E-05
 -1.98947981E-04 -2.82170729E-05 -1.96802576E-04 -2.41068762E-05 -1.98946734E-04
 -2.41070701E-05 -1.98947664E-04 -2.41068757E-05 -1.98947126E-04 -2.82170823E-05
 -1.96802588E-04  7.04148152E-01  2.00179102E-02  3.24920018E-04  1.48728161E-04
  1.18884407E-09 -9.81050318E-03 -6.97528569E-04  1.80850595E-04 -6.27371725E-09
 -1.33377403E-03 -1.25913841E-03 -1.20235584E-03 -1.05241241E-04 -1.19414105E-10
  1.12929370E-09 -7.04116549E-01 -2.00170201E-02  3.24914397E-04 -1.48718644E-04
 -8.25665697E-10  9.81007999E-03 -6.97520222E-04 -1.80877896E-04  3.05507429E-09
  1.33371070E-03  1.25907613E-03  1.20229660E-03 -1.05234939E-04 -5.42187191E-10
 -1.41125507E-09  1.51839890E-11 -8.70311302E-10  6.00943236E-05  8.07186095E-10
 -4.44321626E-11  1.17197378E-08 -5.97505512E-04 -8.55969373E-09  2.46686763E-10
  7.97672085E-08 -1.25667325E-03 -3.61247768E-08 -2.14857210E-11 -3.82440072E-09
 -5.11162927E-09 -5.57109775E-09 -1.36854968E-05 -2.42722752E-10 -8.72660383E-11
  1.13825760E-04  1.91354890E-03  5.48285865E-05  1.20445238E-03  1.13824425E-04
  1.91354658E-03 -1.13823745E-04 -1.91348751E-03 -1.13821387E-04 -1.91348961E-03
 -5.48261078E-05 -1.20436840E-03  7.04067585E-01  1.98328402E-02  1.25160861E-04
  2.14442470E-04  5.85484053E-10 -9.42632408E-03 -1.82640781E-04 -6.16814815E-04
 -4.13645362E-09 -1.41244287E-03 -1.38822450E-03 -1.31847538E-03 -1.39124285E-04
 -2.82824906E-10  1.42424213E-09  7.04099190E-01  1.98337388E-02 -1.25175440E-04
  2.14449240E-04  1.27017108E-09 -9.42676442E-03  1.82672046E-04 -6.16807038E-04
 -7.14791724E-09 -1.41250279E-03 -1.38828107E-03 -1.31852929E-03  1.39128952E-04
  8.38060083E-11  1.30754811E-09  7.41377783E-07 -3.80032482E-05 -1.34900032E-09
  3.60137297E-05 -1.03803496E-10  5.27297144E-04  1.34125584E-08 -3.82690183E-04
  5.38123322E-10  3.54930034E-03  2.82364306E-08 -1.60579776E-03  3.26213589E-10
 -1.70034436E-04 -2.29075497E-04 -2.47470265E-04  3.25414779E-10  9.95821927E-11
 -4.64547934E-10  5.48889643E-05  1.31860832E-03  5.69008458E-05  1.87160393E-03
  5.48864258E-05  1.31860864E-03  5.48936273E-05  1.31869627E-03  5.48919323E-05
  1.31869232E-03  5.69033733E-05  1.87165793E-03 -9.70359552E-05  4.84776988E-04
 -1.30472305E-04 -1.31569217E-04  7.38552413E-10 -3.83609291E-04  4.91999248E-04
  2.67119328E-04 -5.22037704E-09 -2.52518332E-04 -1.99139046E-04  8.10020633E-05
 -3.05526585E-04  4.08179626E-11  1.97261142E-10 -9.70359482E-05  4.84777062E-04
  1.30472317E-04 -1.31569237E-04  2.85504365E-10 -3.83609847E-04 -4.91999206E-04
  2.67119336E-04 -2.72958364E-09 -2.52518257E-04 -1.99139027E-04  8.10020836E-05
  3.05526586E-04 -1.40291523E-10  4.36957308E-12 -2.81778158E-01  1.03025320E+00
 -1.52959198E-10 -6.49916109E-03 -7.90340624E-10  2.42944091E-02  2.98051837E-11
 -1.65131834E-03  2.42967664E-10 -7.52607109E-03  5.81818941E-11  1.71310170E-03
  7.75201060E-10 -9.20981799E-04 -1.19248186E-03 -1.60270016E-03 -4.42989806E-11
 -8.97340123E-11 -1.40701286E-10 -3.79243363E-05  7.36942773E-04  2.69042190E-05
  6.01318885E-04 -3.79248739E-05  7.36937139E-04 -3.79242447E-05  7.36940988E-04
 -3.79249288E-05  7.36939354E-04  2.69042605E-05  6.01318924E-04  1.68020029E-05
 -1.03217754E-03  3.12935498E-04  3.50075333E-04 -9.60028562E-10  2.91227763E-03
  3.63585554E-04  4.98920477E-04  7.66557555E-09  2.41461407E-04  3.95743529E-04
 -2.19005514E-04  5.57136381E-04 -1.87131086E-10 -1.76494180E-10 -1.68020116E-05
  1.03217758E-03  3.12935514E-04 -3.50075366E-04  8.81426544E-10 -2.91227821E-03
  3.63585552E-04 -4.98920649E-04 -7.30759674E-09 -2.41461286E-04 -3.95743531E-04
  2.19005496E-04  5.57136350E-04 -3.89884854E-10 -1.19036800E-10  6.17228557E-11
 -2.24842874E-10  9.92832412E-01 -4.84241374E-08  6.42372283E-08  1.38617103E-10
  2.41941707E-02 -1.19619433E-09  1.45945377E-09  1.03076488E-10 -5.71416512E-03
  2.35193440E-10 -4.77640155E-10 -2.13813496E-11  9.26493457E-11 -4.16681668E-11
 -1.45035437E-03  5.94116718E-10 -9.11394607E-11 -1.71528752E-04 -6.84801514E-04
 -1.29540087E-04 -1.59762921E-03 -1.71527428E-04 -6.84793136E-04  1.71528884E-04
  6.84799553E-04  1.71527383E-04  6.84795416E-04  1.29540152E-04  1.59762928E-03
  5.29545035E-05 -6.18574919E-04  2.68638477E-04  2.20118153E-04 -6.31067431E-11
  1.70055342E-03  6.02360383E-04  1.14443167E-04  6.97089725E-10  4.62019949E-04
 -5.15290322E-05 -5.39470566E-05  3.51822662E-04 -3.03313612E-10  2.75366223E-10
  5.29545214E-05 -6.18574846E-04 -2.68638478E-04  2.20118119E-04 -4.78223660E-11
  1.70055350E-03 -6.02360381E-04  1.14443456E-04  8.82954600E-10  4.62019886E-04
 -5.15290749E-05 -5.39470153E-05 -3.51822642E-04  8.42888121E-11 -1.98383333E-11
 -2.12580738E-03  8.09158696E-03  4.84383392E-08  9.93212132E-01  4.53129909E-07
 -4.89173923E-03  1.10689882E-09  2.26664244E-02  9.74554294E-09 -3.26335119E-04
 -3.64102061E-10 -5.11124443E-03 -2.31278488E-09  1.28423206E-03  3.91097790E-04
  1.89935762E-03 -1.00307181E-12 -5.27284657E-11 -2.91762334E-10 -1.25663514E-04
 -8.75799451E-04 -1.40804775E-04  1.15199224E-04 -1.25662640E-04 -8.75803652E-04
 -1.25663196E-04 -8.75802467E-04 -1.25663009E-04 -8.75800489E-04 -1.40804805E-04
  1.15199255E-04  3.58122447E-10  1.73270713E-09 -4.00244174E-11 -1.86696806E-11
 -8.49113016E-06 -8.30810570E-09  8.65678550E-10 -6.66175556E-10 -3.89029120E-04
  5.34771992E-10  9.45433391E-10  2.36358988E-10 -5.00784473E-11 -2.20103383E-04
 -1.16477825E-04  1.78953291E-10  9.17486748E-10  6.47054655E-10  4.22593185E-10
 -8.49110661E-06 -4.77744034E-09 -4.03162634E-09 -2.87621382E-09 -3.89029466E-04
 -6.39351313E-11  3.09445855E-10  5.28196933E-10 -4.20334924E-10  2.20103395E-04
 -1.16477817E-04  7.64289890E-10 -2.72748804E-09 -6.42469733E-08 -4.53136792E-07
  9.93913642E-01  2.25261297E-09 -1.50248957E-09 -9.99981746E-09  2.02365882E-02
 -5.68096768E-10 -7.65172418E-11  3.01490905E-09 -4.70669787E-03 -2.48276020E-11
 -1.82416214E-10 -4.59298281E-10  2.41177959E-10  1.97371459E-11 -5.78449955E-04
  1.97763112E-06  6.67908116E-04  5.82574854E-10  1.53981186E-09 -1.97658209E-06
 -6.67902764E-04  1.97737831E-06  6.67905163E-04 -1.97692323E-06 -6.67906184E-04
  5.55634087E-10  6.96517432E-09 -1.07551661E-01  1.97493971E-01  4.06349936E-02
  2.86168313E-02  3.30768665E-08  1.97845387E-01  1.50713861E-02  9.28578621E-03
  6.59276446E-08  8.44441986E-03  7.06996859E-03  3.28749637E-03  4.56202195E-03
 -2.69663944E-08  3.15295615E-08 -1.07551674E-01  1.97493995E-01 -4.06349978E-02
  2.86168388E-02  3.91438733E-08  1.97845411E-01 -1.50713851E-02  9.28579162E-03
  6.75286207E-08  8.44441940E-03  7.06996777E-03  3.28749969E-03 -4.56202309E-03
  2.43803789E-08  2.86957330E-08  4.72095708E-02 -2.19056749E-01 -3.37837245E-09
  4.66116360E-02  1.68475885E-10  4.15022267E-01  7.48970896E-09 -1.05565531E-01
 -9.51219810E-10  1.23374916E-01 -1.26758195E-09  2.20515791E-03 -6.07399228E-09
  2.48303288E-02  1.86584877E-02 -1.22534589E-02 -3.35483219E-09  6.75200828E-10
  1.09227203E-08  6.18312576E-02  9.11115766E-03  6.02912059E-02  7.98617441E-03
  6.18313348E-02  9.11119832E-03  6.18312807E-02  9.11116144E-03  6.18313313E-02
  9.11119764E-03  6.02912093E-02  7.98617525E-03 -1.38215681E-01  2.56321442E-01
 -2.45636191E-02 -2.44312745E-03  7.64484615E-08  2.82340074E-01 -1.47116169E-03
  2.13660294E-03  1.01947562E-07  4.86334161E-03  7.58991160E-03  8.09889591E-03
 -3.42124281E-03 -4.21757932E-08  4.40343943E-08  1.38215668E-01 -2.56321418E-01
 -2.45636124E-02  2.44312457E-03 -7.64687747E-08 -2.82340048E-01 -1.47116327E-03
 -2.13660785E-03 -8.81354335E-08 -4.86334032E-03 -7.58990737E-03 -8.09889947E-03
 -3.42124162E-03 -4.47251422E-08 -4.76045650E-08  8.93819774E-10 -4.05823816E-09
  6.27300329E-02 -1.33389327E-09  8.03009588E-10  8.03260940E-09 -1.45679324E-01
  2.84502256E-09 -2.56752640E-09  4.02036610E-09  1.86088997E-03  2.87006601E-10
  9.38381986E-11  2.82023060E-09 -1.48087930E-09  7.71464551E-11  3.87060939E-02
  4.36423742E-09  7.92868994E-10  9.55777824E-02  2.40200334E-02  1.04298329E-01
  3.12554136E-02  9.55778649E-02  2.40200830E-02 -9.55777565E-02 -2.40200347E-02
 -9.55778778E-02 -2.40200783E-02 -1.04298312E-01 -3.12554096E-02  8.00879976E-02
 -1.52377714E-01  1.12637610E-01  1.06546125E-01 -1.89935052E-08 -1.77310707E-01
  3.58085182E-02  4.01123360E-02 -5.36850414E-08  3.67380552E-03 -7.05111429E-04
 -1.23188757E-02  1.47791556E-02  3.95522413E-08 -4.57549615E-08  8.00880043E-02
 -1.52377727E-01 -1.12637605E-01  1.06546130E-01 -2.89060055E-08 -1.77310724E-01
 -3.58085181E-02  4.01123321E-02 -3.79605856E-08  3.67380409E-03 -7.05107271E-04
 -1.23188798E-02 -1.47791557E-02 -3.30333087E-08 -3.68587564E-08  5.30015862E-02
 -2.46732256E-01  2.26445900E-09 -9.22306888E-03  6.66884294E-09  5.00896265E-01
 -5.23767303E-09  2.25692965E-02 -1.53608374E-08  2.63664707E-01  1.00215141E-09
  3.04646930E-03  1.89585594E-08  6.37330405E-03  3.61526378E-03  1.22899972E-03
  1.24374677E-09 -9.49681974E-10  4.69209347E-09 -9.37909950E-02 -4.53967403E-02
 -8.41850892E-02 -4.23846167E-02 -9.37912068E-02 -4.53968352E-02 -9.37910335E-02
 -4.53967708E-02 -9.37911793E-02 -4.53968117E-02 -8.41850906E-02 -4.23846177E-02
 -1.68022268E-06  2.67833706E-06 -7.26042539E-05  6.16054287E-05  2.93937228E-01
  5.35286496E-06 -3.91653190E-05  3.45376462E-05  1.57267483E-01  3.86180080E-06
  6.24304069E-07 -4.46329660E-06 -4.74081963E-06  5.40539884E-03 -2.08759467E-02
 -1.68110047E-06  2.70637574E-06  7.25313655E-05  6.14212257E-05  2.93937522E-01
  5.27109766E-06  3.92237505E-05  3.45262269E-05  1.57267637E-01  3.93021364E-06
  7.46311395E-07 -4.63752413E-06  4.84671364E-06 -5.40540160E-03 -2.08759671E-02
  1.24979025E-06 -5.80802378E-06  2.12714017E-08 -2.00640142E-05 -7.63136817E-02
  1.37068017E-05 -5.23108517E-08  5.00918245E-05  1.93851140E-01  9.86494731E-06
  9.00248847E-10  1.48131300E-05  6.12595666E-02  6.33479381E-06 -9.71920561E-06
  1.62510800E-06  8.68259172E-09  9.41713451E-09 -2.16646678E-02  1.51240091E-01
  1.10604758E-01  6.03244543E-05  4.20944320E-05 -1.51284328E-01 -1.10636605E-01
  1.51240007E-01  1.10604740E-01 -1.51284722E-01 -1.10636823E-01  6.08884897E-05
  4.24201527E-05  5.45866578E-03 -9.07709379E-03  2.30110250E-01 -1.94008814E-01
  9.27106779E-05 -1.63563677E-02  1.24400942E-01 -1.09154613E-01  4.96549865E-05
 -1.22764560E-02 -2.32286683E-03  1.45501114E-02  1.51697374E-02  1.70071126E-06
 -6.51929959E-06  5.45866976E-03 -9.07709564E-03 -2.30110184E-01 -1.94008585E-01
  9.28069775E-05 -1.63563876E-02 -1.24400909E-01 -1.09154487E-01  4.97016094E-05
 -1.22764417E-02 -2.32286706E-03  1.45500966E-02 -1.51697330E-02 -1.83853457E-06
 -6.70094569E-06 -4.03008650E-03  1.87334946E-02 -2.42915766E-08  6.40523816E-02
 -2.42321081E-05 -4.41366004E-02  6.06135302E-08 -1.59928902E-01  6.15710291E-05
 -3.22046160E-02  7.63538911E-09 -4.73585687E-02  1.95626081E-05 -2.00994470E-02
  3.08711244E-02 -5.20425108E-03 -6.08650664E-09 -5.19270386E-09 -6.86638672E-06
  7.03767664E-02  5.08420294E-02 -1.91481999E-01 -1.34309643E-01  7.02819434E-02
  5.07722613E-02  7.03773169E-02  5.08424041E-02  7.02812138E-02  5.07717729E-02
 -1.91481889E-01 -1.34309575E-01  7.56409202E-03 -1.52425109E-02 -7.07596022E-02
  2.97637773E-01  9.05347919E-06 -7.77544118E-03 -4.09533479E-02  1.72280499E-01
  4.86560815E-06  1.93665689E-02  3.37446239E-03 -2.16821978E-02 -3.29424329E-03
  7.97692758E-08 -7.93234653E-07 -7.56409407E-03  1.52425208E-02 -7.07597897E-02
 -2.97637895E-01 -9.24094247E-06  7.77543240E-03 -4.09534580E-02 -1.72280570E-01
 -4.96634726E-06 -1.93665754E-02 -3.37446932E-03  2.16822106E-02 -3.29425399E-03
 -5.05697316E-08  6.34767505E-07 -2.91034138E-09  1.34808222E-08  9.39952787E-02
  2.88892222E-08  2.84634225E-08 -3.15650088E-08 -2.34586554E-01 -7.26002457E-08
 -7.10108467E-08 -2.21743667E-08 -4.07457212E-02 -2.51038752E-08 -3.00504496E-08
 -6.30664841E-09  1.24751476E-08 -2.62064067E-09  2.79660538E-02 -5.84220560E-07
  1.51942420E-09 -1.16783171E-01 -8.28524245E-02  1.33422437E-01  9.59853329E-02
 -1.16793400E-01 -8.28597508E-02  1.16783663E-01  8.28528012E-02  1.16792996E-01
  8.28594480E-02 -1.33422573E-01 -9.59854385E-02 -1.09847654E-07  1.84003653E-07
  1.23897690E-06 -8.58788461E-06  3.19623274E-01 -2.57804148E-08  6.31845240E-07
 -5.09764753E-06  1.74760581E-01 -5.76402196E-07 -2.30279163E-07  7.93220386E-07
  7.65810825E-08  1.61322976E-03 -2.50975796E-02  1.06941766E-07 -1.49317099E-07
  1.17247851E-06  8.52954500E-06 -3.19623012E-01 -6.53133213E-08  6.88297223E-07
  5.06610172E-06 -1.74760435E-01  4.95923869E-07  1.01282370E-07 -5.69435389E-07
 -4.70608601E-08  1.61322560E-03  2.50975589E-02 -8.98180117E-10  7.02799446E-10
 -3.18857852E-06  1.68437222E-08 -3.81464351E-08 -2.12366469E-08  8.00940256E-06
 -4.24880085E-08  9.79500267E-08  7.86586690E-08  1.49606545E-06 -7.28800943E-08
  3.64761699E-08 -9.51758842E-09  3.32669507E-09  5.50699088E-09 -1.02560422E-06