opt=Tight                                                               
Freq      RMP2-FC                                                     6-31G(d)            
Number of atoms                            I               15
Info1-9                                    I   N=           9
          24          24        1002           0           0         100
           6           2           1
Charge                                     I                0
Multiplicity                               I                1
Number of electrons                        I               74
Number of alpha electrons                  I               37
Number of beta electrons                   I               37
Number of basis functions                  I              160
Number of independent functions            I              160
Number of point charges in /Mol/           I                0
Number of translation vectors              I                0
Atomic numbers                             I   N=          15
           9           9           9           6           6           6
           6           6           6           6           1           1
           1           1           1
Nuclear charges                            R   N=          15
  9.00000000E+00  9.00000000E+00  9.00000000E+00  6.00000000E+00  6.00000000E+00
  6.00000000E+00  6.00000000E+00  6.00000000E+00  6.00000000E+00  6.00000000E+00
  1.00000000E+00  1.00000000E+00  1.00000000E+00  1.00000000E+00  1.00000000E+00
Current cartesian coordinates              R   N=          45
  3.74575089E+00  2.36748480E+00 -7.67228810E-04  3.65693754E+00 -1.20314705E+00
  2.05384318E+00  3.65702636E+00 -1.20453600E+00 -2.05297957E+00 -9.14570757E-02
  5.12021296E-02 -7.93684976E-05 -1.42731015E+00  2.32443495E+00 -4.53534272E-05
 -1.36141729E+00 -2.26687201E+00 -4.91328795E-05  2.73537480E+00  1.98950367E-02
 -2.49977493E-07 -4.06513350E+00  2.27149805E+00  1.88972613E-06 -3.99410059E+00
 -2.30091542E+00  1.88972613E-06 -5.34848998E+00 -3.27772998E-02  3.21253443E-05
 -4.17918603E-01  4.10975183E+00 -7.36993192E-05 -2.92930227E-01 -4.02156776E+00
 -9.25965805E-05 -5.11718562E+00  4.03560653E+00  1.70075352E-05 -4.99160576E+00
 -4.09642359E+00  1.70075352E-05 -7.40259017E+00 -6.43565132E-02  7.55890453E-05
Force Field                                I                0
Int Atom Types                             I   N=          15
           0           0           0           0           0           0
           0           0           0           0           0           0
           0           0           0
MM charges                                 R   N=          15
  0.00000000E+00  0.00000000E+00  0.00000000E+00  0.00000000E+00  0.00000000E+00
  0.00000000E+00  0.00000000E+00  0.00000000E+00  0.00000000E+00  0.00000000E+00
  0.00000000E+00  0.00000000E+00  0.00000000E+00  0.00000000E+00  0.00000000E+00
Integer atomic weights                     I   N=          15
          19          19          19          12          12          12
          12          12          12          12           1           1
           1           1           1
Real atomic weights                        R   N=          15
  1.89984032E+01  1.89984032E+01  1.89984032E+01  1.20000000E+01  1.20000000E+01
  1.20000000E+01  1.20000000E+01  1.20000000E+01  1.20000000E+01  1.20000000E+01
  1.00782504E+00  1.00782504E+00  1.00782504E+00  1.00782504E+00  1.00782504E+00
Atom fragment info                         I   N=          15
           0           0           0           0           0           0
           0           0           0           0           0           0
           0           0           0
Atom residue num                           I   N=          15
           0           0           0           0           0           0
           0           0           0           0           0           0
           0           0           0
Nuclear spins                              I   N=          15
           1           1           1           0           0           0
           0           0           0           0           1           1
           1           1           1
Nuclear ZEff                               R   N=          15
 -6.75000000E+00 -6.75000000E+00 -6.75000000E+00 -3.60000000E+00 -3.60000000E+00
 -3.60000000E+00 -3.60000000E+00 -3.60000000E+00 -3.60000000E+00 -3.60000000E+00
 -1.00000000E+00 -1.00000000E+00 -1.00000000E+00 -1.00000000E+00 -1.00000000E+00
Nuclear QMom                               R   N=          15
  0.00000000E+00  0.00000000E+00  0.00000000E+00  0.00000000E+00  0.00000000E+00
  0.00000000E+00  0.00000000E+00  0.00000000E+00  0.00000000E+00  0.00000000E+00
  0.00000000E+00  0.00000000E+00  0.00000000E+00  0.00000000E+00  0.00000000E+00
Nuclear GFac                               R   N=          15
  2.62886700E+00  2.62886700E+00  2.62886700E+00  0.00000000E+00  0.00000000E+00
  0.00000000E+00  0.00000000E+00  0.00000000E+00  0.00000000E+00  0.00000000E+00
  2.79284600E+00  2.79284600E+00  2.79284600E+00  2.79284600E+00  2.79284600E+00
MicOpt                                     I   N=          15
          -1          -1          -1          -1          -1          -1
          -1          -1          -1          -1          -1          -1
          -1          -1          -1
Number of contracted shells                I               50
Number of primitive shells                 I              130
Pure/Cartesian d shells                    I                1
Pure/Cartesian f shells                    I                0
Highest angular momentum                   I                2
Largest degree of contraction              I                6
Shell types                                I   N=          50
           0          -1          -1           2           0          -1
          -1           2           0          -1          -1           2
           0          -1          -1           2           0          -1
          -1           2           0          -1          -1           2
           0          -1          -1           2           0          -1
          -1           2           0          -1          -1           2
           0          -1          -1           2           0           0
           0           0           0           0           0           0
           0           0
Number of primitives per shell             I   N=          50
           6           3           1           1           6           3
           1           1           6           3           1           1
           6           3           1           1           6           3
           1           1           6           3           1           1
           6           3           1           1           6           3
           1           1           6           3           1           1
           6           3           1           1           3           1
           3           1           3           1           3           1
           3           1
Shell to atom map                          I   N=          50
           1           1           1           1           2           2
           2           2           3           3           3           3
           4           4           4           4           5           5
           5           5           6           6           6           6
           7           7           7           7           8           8
           8           8           9           9           9           9
          10          10          10          10          11          11
          12          12          13          13          14          14
          15          15
Primitive exponents                        R   N=         130
  7.00171309E+03  1.05136609E+03  2.39285690E+02  6.73974453E+01  2.15199573E+01
  7.40310130E+00  2.08479528E+01  4.80830834E+00  1.34406986E+00  3.58151393E-01
  8.00000000E-01  7.00171309E+03  1.05136609E+03  2.39285690E+02  6.73974453E+01
  2.15199573E+01  7.40310130E+00  2.08479528E+01  4.80830834E+00  1.34406986E+00
  3.58151393E-01  8.00000000E-01  7.00171309E+03  1.05136609E+03  2.39285690E+02
  6.73974453E+01  2.15199573E+01  7.40310130E+00  2.08479528E+01  4.80830834E+00
  1.34406986E+00  3.58151393E-01  8.00000000E-01  3.04752488E+03  4.57369518E+02
  1.03948685E+02  2.92101553E+01  9.28666296E+00  3.16392696E+00  7.86827235E+00
  1.88128854E+00  5.44249258E-01  1.68714478E-01  8.00000000E-01  3.04752488E+03
  4.57369518E+02  1.03948685E+02  2.92101553E+01  9.28666296E+00  3.16392696E+00
  7.86827235E+00  1.88128854E+00  5.44249258E-01  1.68714478E-01  8.00000000E-01
  3.04752488E+03  4.57369518E+02  1.03948685E+02  2.92101553E+01  9.28666296E+00
  3.16392696E+00  7.86827235E+00  1.88128854E+00  5.44249258E-01  1.68714478E-01
  8.00000000E-01  3.04752488E+03  4.57369518E+02  1.03948685E+02  2.92101553E+01
  9.28666296E+00  3.16392696E+00  7.86827235E+00  1.88128854E+00  5.44249258E-01
  1.68714478E-01  8.00000000E-01  3.04752488E+03  4.57369518E+02  1.03948685E+02
  2.92101553E+01  9.28666296E+00  3.16392696E+00  7.86827235E+00  1.88128854E+00
  5.44249258E-01  1.68714478E-01  8.00000000E-01  3.04752488E+03  4.57369518E+02
  1.03948685E+02  2.92101553E+01  9.28666296E+00  3.16392696E+00  7.86827235E+00
  1.88128854E+00  5.44249258E-01  1.68714478E-01  8.00000000E-01  3.04752488E+03
  4.57369518E+02  1.03948685E+02  2.92101553E+01  9.28666296E+00  3.16392696E+00
  7.86827235E+00  1.88128854E+00  5.44249258E-01  1.68714478E-01  8.00000000E-01
  1.87311370E+01  2.82539436E+00  6.40121692E-01  1.61277759E-01  1.87311370E+01
  2.82539436E+00  6.40121692E-01  1.61277759E-01  1.87311370E+01  2.82539436E+00
  6.40121692E-01  1.61277759E-01  1.87311370E+01  2.82539436E+00  6.40121692E-01
  1.61277759E-01  1.87311370E+01  2.82539436E+00  6.40121692E-01  1.61277759E-01
Contraction coefficients                   R   N=         130
  1.81961690E-03  1.39160796E-02  6.84053245E-02  2.33185760E-01  4.71267439E-01
  3.56618546E-01 -1.08506975E-01 -1.46451658E-01  1.12868858E+00  1.00000000E+00
  1.00000000E+00  1.81961690E-03  1.39160796E-02  6.84053245E-02  2.33185760E-01
  4.71267439E-01  3.56618546E-01 -1.08506975E-01 -1.46451658E-01  1.12868858E+00
  1.00000000E+00  1.00000000E+00  1.81961690E-03  1.39160796E-02  6.84053245E-02
  2.33185760E-01  4.71267439E-01  3.56618546E-01 -1.08506975E-01 -1.46451658E-01
  1.12868858E+00  1.00000000E+00  1.00000000E+00  1.83473713E-03  1.40373228E-02
  6.88426223E-02  2.32184443E-01  4.67941348E-01  3.62311985E-01 -1.19332420E-01
 -1.60854152E-01  1.14345644E+00  1.00000000E+00  1.00000000E+00  1.83473713E-03
  1.40373228E-02  6.88426223E-02  2.32184443E-01  4.67941348E-01  3.62311985E-01
 -1.19332420E-01 -1.60854152E-01  1.14345644E+00  1.00000000E+00  1.00000000E+00
  1.83473713E-03  1.40373228E-02  6.88426223E-02  2.32184443E-01  4.67941348E-01
  3.62311985E-01 -1.19332420E-01 -1.60854152E-01  1.14345644E+00  1.00000000E+00
  1.00000000E+00  1.83473713E-03  1.40373228E-02  6.88426223E-02  2.32184443E-01
  4.67941348E-01  3.62311985E-01 -1.19332420E-01 -1.60854152E-01  1.14345644E+00
  1.00000000E+00  1.00000000E+00  1.83473713E-03  1.40373228E-02  6.88426223E-02
  2.32184443E-01  4.67941348E-01  3.62311985E-01 -1.19332420E-01 -1.60854152E-01
  1.14345644E+00  1.00000000E+00  1.00000000E+00  1.83473713E-03  1.40373228E-02
  6.88426223E-02  2.32184443E-01  4.67941348E-01  3.62311985E-01 -1.19332420E-01
 -1.60854152E-01  1.14345644E+00  1.00000000E+00  1.00000000E+00  1.83473713E-03
  1.40373228E-02  6.88426223E-02  2.32184443E-01  4.67941348E-01  3.62311985E-01
 -1.19332420E-01 -1.60854152E-01  1.14345644E+00  1.00000000E+00  1.00000000E+00
  3.34946043E-02  2.34726953E-01  8.13757326E-01  1.00000000E+00  3.34946043E-02
  2.34726953E-01  8.13757326E-01  1.00000000E+00  3.34946043E-02  2.34726953E-01
  8.13757326E-01  1.00000000E+00  3.34946043E-02  2.34726953E-01  8.13757326E-01
  1.00000000E+00  3.34946043E-02  2.34726953E-01  8.13757326E-01  1.00000000E+00
P(S=P) Contraction coefficients            R   N=         130
  0.00000000E+00  0.00000000E+00  0.00000000E+00  0.00000000E+00  0.00000000E+00
  0.00000000E+00  7.16287242E-02  3.45912103E-01  7.22469956E-01  1.00000000E+00
  0.00000000E+00  0.00000000E+00  0.00000000E+00  0.00000000E+00  0.00000000E+00
  0.00000000E+00  0.00000000E+00  7.16287242E-02  3.45912103E-01  7.22469956E-01
  1.00000000E+00  0.00000000E+00  0.00000000E+00  0.00000000E+00  0.00000000E+00
  0.00000000E+00  0.00000000E+00  0.00000000E+00  7.16287242E-02  3.45912103E-01
  7.22469956E-01  1.00000000E+00  0.00000000E+00  0.00000000E+00  0.00000000E+00
  0.00000000E+00  0.00000000E+00  0.00000000E+00  0.00000000E+00  6.89990666E-02
  3.16423961E-01  7.44308291E-01  1.00000000E+00  0.00000000E+00  0.00000000E+00
  0.00000000E+00  0.00000000E+00  0.00000000E+00  0.00000000E+00  0.00000000E+00
  6.89990666E-02  3.16423961E-01  7.44308291E-01  1.00000000E+00  0.00000000E+00
  0.00000000E+00  0.00000000E+00  0.00000000E+00  0.00000000E+00  0.00000000E+00
  0.00000000E+00  6.89990666E-02  3.16423961E-01  7.44308291E-01  1.00000000E+00
  0.00000000E+00  0.00000000E+00  0.00000000E+00  0.00000000E+00  0.00000000E+00
  0.00000000E+00  0.00000000E+00  6.89990666E-02  3.16423961E-01  7.44308291E-01
  1.00000000E+00  0.00000000E+00  0.00000000E+00  0.00000000E+00  0.00000000E+00
  0.00000000E+00  0.00000000E+00  0.00000000E+00  6.89990666E-02  3.16423961E-01
  7.44308291E-01  1.00000000E+00  0.00000000E+00  0.00000000E+00  0.00000000E+00
  0.00000000E+00  0.00000000E+00  0.00000000E+00  0.00000000E+00  6.89990666E-02
  3.16423961E-01  7.44308291E-01  1.00000000E+00  0.00000000E+00  0.00000000E+00
  0.00000000E+00  0.00000000E+00  0.00000000E+00  0.00000000E+00  0.00000000E+00
  6.89990666E-02  3.16423961E-01  7.44308291E-01  1.00000000E+00  0.00000000E+00
  0.00000000E+00  0.00000000E+00  0.00000000E+00  0.00000000E+00  0.00000000E+00
  0.00000000E+00  0.00000000E+00  0.00000000E+00  0.00000000E+00  0.00000000E+00
  0.00000000E+00  0.00000000E+00  0.00000000E+00  0.00000000E+00  0.00000000E+00
  0.00000000E+00  0.00000000E+00  0.00000000E+00  0.00000000E+00  0.00000000E+00
Coordinates of each shell                  R   N=         150
  3.74575105E+00  2.36748430E+00 -7.66978832E-04  3.74575105E+00  2.36748430E+00
 -7.66978832E-04  3.74575105E+00  2.36748430E+00 -7.66978832E-04  3.74575105E+00
  2.36748430E+00 -7.66978832E-04  3.65693746E+00 -1.20314755E+00  2.05384343E+00
  3.65693746E+00 -1.20314755E+00  2.05384343E+00  3.65693746E+00 -1.20314755E+00
  2.05384343E+00  3.65693746E+00 -1.20314755E+00  2.05384343E+00  3.65702628E+00
 -1.20453650E+00 -2.05297932E+00  3.65702628E+00 -1.20453650E+00 -2.05297932E+00
  3.65702628E+00 -1.20453650E+00 -2.05297932E+00  3.65702628E+00 -1.20453650E+00
 -2.05297932E+00 -9.14570723E-02  5.12018802E-02 -7.91185201E-05 -9.14570723E-02
  5.12018802E-02 -7.91185201E-05 -9.14570723E-02  5.12018802E-02 -7.91185201E-05
 -9.14570723E-02  5.12018802E-02 -7.91185201E-05 -1.42731000E+00  2.32443479E+00
 -4.51034497E-05 -1.42731000E+00  2.32443479E+00 -4.51034497E-05 -1.42731000E+00
  2.32443479E+00 -4.51034497E-05 -1.42731000E+00  2.32443479E+00 -4.51034497E-05
 -1.36141744E+00 -2.26687217E+00 -4.88829020E-05 -1.36141744E+00 -2.26687217E+00
 -4.88829020E-05 -1.36141744E+00 -2.26687217E+00 -4.88829020E-05 -1.36141744E+00
 -2.26687217E+00 -4.88829020E-05  2.73537480E+00  1.98946012E-02  0.00000000E+00
  2.73537480E+00  1.98946012E-02  0.00000000E+00  2.73537480E+00  1.98946012E-02
  0.00000000E+00  2.73537480E+00  1.98946012E-02  0.00000000E+00 -4.06513335E+00
  2.27149807E+00  2.13970363E-06 -4.06513335E+00  2.27149807E+00  2.13970363E-06
 -4.06513335E+00  2.27149807E+00  2.13970363E-06 -4.06513335E+00  2.27149807E+00
  2.13970363E-06 -3.99410074E+00 -2.30091541E+00  2.13970363E-06 -3.99410074E+00
 -2.30091541E+00  2.13970363E-06 -3.99410074E+00 -2.30091541E+00  2.13970363E-06
 -3.99410074E+00 -2.30091541E+00  2.13970363E-06 -5.34848999E+00 -3.27772028E-02
  3.23753218E-05 -5.34848999E+00 -3.27772028E-02  3.23753218E-05 -5.34848999E+00
 -3.27772028E-02  3.23753218E-05 -5.34848999E+00 -3.27772028E-02  3.23753218E-05
 -4.17918333E-01  4.10975160E+00 -7.34493417E-05 -4.17918333E-01  4.10975160E+00
 -7.34493417E-05 -2.92930492E-01 -4.02156799E+00 -9.23466030E-05 -2.92930492E-01
 -4.02156799E+00 -9.23466030E-05 -5.11718535E+00  4.03560661E+00  1.72575127E-05
 -5.11718535E+00  4.03560661E+00  1.72575127E-05 -4.99160603E+00 -4.09642352E+00
  1.72575127E-05 -4.99160603E+00 -4.09642352E+00  1.72575127E-05 -7.40259017E+00
 -6.43562809E-02  7.58390228E-05 -7.40259017E+00 -6.43562809E-02  7.58390228E-05
Constraint Structure                       R   N=          45
  3.74575105E+00  2.36748430E+00 -7.66978832E-04  3.65693746E+00 -1.20314755E+00
  2.05384343E+00  3.65702628E+00 -1.20453650E+00 -2.05297932E+00 -9.14570723E-02
  5.12018802E-02 -7.91185201E-05 -1.42731000E+00  2.32443479E+00 -4.51034497E-05
 -1.36141744E+00 -2.26687217E+00 -4.88829020E-05  2.73537480E+00  1.98946012E-02
  0.00000000E+00 -4.06513335E+00  2.27149807E+00  2.13970363E-06 -3.99410074E+00
 -2.30091541E+00  2.13970363E-06 -5.34848999E+00 -3.27772028E-02  3.23753218E-05
 -4.17918333E-01  4.10975160E+00 -7.34493417E-05 -2.92930492E-01 -4.02156799E+00
 -9.23466030E-05 -5.11718535E+00  4.03560661E+00  1.72575127E-05 -4.99160603E+00
 -4.09642352E+00  1.72575127E-05 -7.40259017E+00 -6.43562809E-02  7.58390228E-05
Num ILSW                                   I              100
ILSW                                       I   N=         100
           0           1           0           1           2           0
           0           0           0           0           0          -1
           0           0           0           0           0           0
           0           0           0           0           1           0
           1           0           0           0           0           0
           0           0      100000           0          -1           0
           0           0           0           0           0           0
           0           0           0           1           1           0
           0           0           1           0           0           0
           0           0           4          40           0           0
           0           0           0           0           0           0
           0           0           0           0           0           0
           0           0           0           0           0           0
           0           0           0           0           0           0
           0           0           0           0           0           0
           0           0           0           0           0           0
           0           0           0           0
Num RLSW                                   I               40
RLSW                                       R   N=          40
  1.00000000E+00  1.00000000E+00  1.00000000E+00  1.00000000E+00  1.00000000E+00
  0.00000000E+00  0.00000000E+00  1.00000000E+00  0.00000000E+00  0.00000000E+00
  0.00000000E+00  0.00000000E+00  1.00000000E+00  0.00000000E+00  0.00000000E+00
  0.00000000E+00  0.00000000E+00  1.00000000E+00  0.00000000E+00  0.00000000E+00
  0.00000000E+00  0.00000000E+00  1.00000000E+00  0.00000000E+00  0.00000000E+00
  0.00000000E+00  0.00000000E+00  1.00000000E+00  0.00000000E+00  0.00000000E+00
  0.00000000E+00  0.00000000E+00  0.00000000E+00  0.00000000E+00  0.00000000E+00
  0.00000000E+00  0.00000000E+00  0.00000000E+00  1.00000000E+00  1.00000000E+00
MxBond                                     I                4
NBond                                      I   N=          15
           1           1           1           3           3           3
           4           3           3           3           1           1
           1           1           1
IBond                                      I   N=          60
           7           0           0           0           7           0
           0           0           7           0           0           0
           5           6           7           0           4           8
          11           0           4           9          12           0
           1           2           3           4           5          10
          13           0           6          10          14           0
           8           9          15           0           5           0
           0           0           6           0           0           0
           8           0           0           0           9           0
           0           0          10           0           0           0
RBond                                      R   N=          60
  1.00000000E+00  0.00000000E+00  0.00000000E+00  0.00000000E+00  1.00000000E+00
  0.00000000E+00  0.00000000E+00  0.00000000E+00  1.00000000E+00  0.00000000E+00
  0.00000000E+00  0.00000000E+00  1.50000000E+00  1.50000000E+00  1.00000000E+00
  0.00000000E+00  1.50000000E+00  1.50000000E+00  1.00000000E+00  0.00000000E+00
  1.50000000E+00  1.50000000E+00  1.00000000E+00  0.00000000E+00  1.00000000E+00
  1.00000000E+00  1.00000000E+00  1.00000000E+00  1.50000000E+00  1.50000000E+00
  1.00000000E+00  0.00000000E+00  1.50000000E+00  1.50000000E+00  1.00000000E+00
  0.00000000E+00  1.50000000E+00  1.50000000E+00  1.00000000E+00  0.00000000E+00
  1.00000000E+00  0.00000000E+00  0.00000000E+00  0.00000000E+00  1.00000000E+00
  0.00000000E+00  0.00000000E+00  0.00000000E+00  1.00000000E+00  0.00000000E+00
  0.00000000E+00  0.00000000E+00  1.00000000E+00  0.00000000E+00  0.00000000E+00
  0.00000000E+00  1.00000000E+00  0.00000000E+00  0.00000000E+00  0.00000000E+00
Virial Ratio                               R      2.002385963160311E+00
SCF Energy                                 R     -5.663215470984433E+02
MP2 Energy                                 R     -5.677150499662088E+02
Total Energy                               R     -5.677150499662088E+02
Post-SCF wavefunction norm                 R      1.690792840653436E+00
RMS Force                                  R      1.291534301202015E-06
RMS Density                                R      3.423716789947530E-09
External E-field                           R   N=          35
  0.00000000E+00  0.00000000E+00  0.00000000E+00  0.00000000E+00  0.00000000E+00
  0.00000000E+00  0.00000000E+00  0.00000000E+00  0.00000000E+00  0.00000000E+00
  0.00000000E+00  0.00000000E+00  0.00000000E+00  0.00000000E+00  0.00000000E+00
  0.00000000E+00  0.00000000E+00  0.00000000E+00  0.00000000E+00  0.00000000E+00
  0.00000000E+00  0.00000000E+00  0.00000000E+00  0.00000000E+00  0.00000000E+00
  0.00000000E+00  0.00000000E+00  0.00000000E+00  0.00000000E+00  0.00000000E+00
  0.00000000E+00  0.00000000E+00  0.00000000E+00  0.00000000E+00  0.00000000E+00
IOpCl                                      I                0
IROHF                                      I                0
Alpha Orbital Energies                     R   N=         160
 -2.63374228E+01 -2.63302039E+01 -2.63301852E+01 -1.15081167E+01 -1.12663867E+01
 -1.12611600E+01 -1.12609431E+01 -1.12579594E+01 -1.12544863E+01 -1.12539249E+01
 -1.71071462E+00 -1.62025420E+00 -1.61455286E+00 -1.17535737E+00 -1.06589788E+00
 -1.03330775E+00 -9.54640363E-01 -8.56791124E-01 -8.51935205E-01 -8.03090441E-01
 -7.98125739E-01 -7.79312407E-01 -7.03737498E-01 -6.93319307E-01 -6.92258939E-01
 -6.52170538E-01 -6.47044167E-01 -6.45484543E-01 -6.32193412E-01 -6.30391872E-01
 -6.02778523E-01 -5.83321602E-01 -5.18188627E-01 -5.15932634E-01 -5.13151151E-01
 -3.57172319E-01 -3.51383543E-01  1.11364261E-01  1.25697073E-01  2.25699856E-01
  2.78362888E-01  2.92775301E-01  3.11648758E-01  3.18644321E-01  3.24025468E-01
  3.68550116E-01  4.27712328E-01  4.35622334E-01  4.40910333E-01  4.58118513E-01
  4.72853698E-01  5.24677458E-01  5.34290872E-01  6.42333639E-01  6.91347514E-01
  7.14009901E-01  7.19558235E-01  7.54117416E-01  7.64982304E-01  7.74651383E-01
  7.97883228E-01  8.03599689E-01  8.10204703E-01  8.21003517E-01  8.26910589E-01
  8.57909256E-01  8.65772443E-01  8.89687934E-01  9.37706638E-01  9.51681802E-01
  9.96077410E-01  1.06538924E+00  1.09018177E+00  1.09621073E+00  1.10142467E+00
  1.13550918E+00  1.14631001E+00  1.18808957E+00  1.20267255E+00  1.25037380E+00
  1.26981036E+00  1.33248054E+00  1.34415654E+00  1.36555646E+00  1.37827344E+00
  1.39322151E+00  1.40061953E+00  1.43846237E+00  1.48936785E+00  1.50841091E+00
  1.63318767E+00  1.63364810E+00  1.64542394E+00  1.65109311E+00  1.66794249E+00
  1.68202917E+00  1.69163736E+00  1.69191158E+00  1.73127922E+00  1.74688363E+00
  1.75001579E+00  1.76992877E+00  1.82822524E+00  1.93084965E+00  1.96255359E+00
  1.97296978E+00  2.02123247E+00  2.06431358E+00  2.08369626E+00  2.12388153E+00
  2.14432432E+00  2.15165793E+00  2.19042954E+00  2.21586798E+00  2.26140603E+00
  2.27963063E+00  2.31002110E+00  2.31288521E+00  2.34172425E+00  2.36183474E+00
  2.36204733E+00  2.38290200E+00  2.39054953E+00  2.42079214E+00  2.44655154E+00
  2.44700037E+00  2.47594844E+00  2.50386773E+00  2.56179452E+00  2.60426174E+00
  2.61677856E+00  2.64434386E+00  2.70906614E+00  2.80167478E+00  2.86121756E+00
  2.91433460E+00  2.97316634E+00  2.97633176E+00  3.03560782E+00  3.07150219E+00
  3.07599126E+00  3.09397876E+00  3.09628910E+00  3.23062635E+00  3.26570646E+00
  3.39356590E+00  3.40305600E+00  3.47213104E+00  3.48079272E+00  3.77404897E+00
  4.49135027E+00  4.51003428E+00  4.51950820E+00  4.66757466E+00  4.70292566E+00
  4.72611789E+00  4.87357560E+00  5.10036057E+00  5.17752633E+00  5.95439503E+00
Alpha MO coefficients                      R   N=       25600
  9.94445766E-01  1.79453372E-02 -3.83932779E-04 -8.58246313E-04  2.87214050E-07
  7.46287997E-03  3.16151742E-04  7.64206029E-04 -2.51133026E-07 -4.52314432E-03
 -4.90094176E-03 -4.47170271E-03 -2.37954605E-04  7.67439999E-08  1.65278090E-07
 -1.21412399E-03  1.20783238E-04 -5.49832090E-06  3.27092192E-06  7.52912676E-07
 -4.89225614E-04  3.89609335E-05 -1.77498922E-04  1.12068372E-04  9.83554502E-05
  1.11595711E-05  6.31885545E-05  1.07747354E-05 -6.20153909E-06  5.54010575E-05
 -1.21468960E-03  1.20729593E-04 -5.49580945E-06  3.26610578E-06 -7.56347357E-07
 -4.89070497E-04  3.89455006E-05 -1.77544613E-04 -1.11931004E-04  9.83290417E-05
  1.10706245E-05  6.32275873E-05  1.07746680E-05  6.19350600E-06 -5.53560996E-05
  5.25112558E-06  1.00521194E-04  7.85243001E-06  5.38027988E-06 -2.31761821E-09
 -4.46585095E-05 -1.13823794E-03  1.01027074E-04  2.67143787E-08 -9.45812151E-05
 -1.02733565E-05 -2.48255072E-08 -5.49804904E-05  8.69842901E-09  5.54769077E-09
  4.35980001E-06  2.56466795E-05  2.21793092E-05 -2.24261389E-05 -2.49633233E-09
 -1.62775725E-04 -1.56660716E-04  6.36511633E-04  7.95127856E-09  2.41204442E-05
 -4.01359246E-05  1.85937085E-05  5.42624107E-06  6.50911080E-10  5.65183717E-10
  3.40817565E-06  1.86846832E-05 -9.76693803E-06  6.46220996E-06  3.96212354E-09
 -4.20936081E-04  3.60207893E-04 -2.75626264E-04 -2.00895175E-08  2.57882743E-06
  6.92883277E-06  6.26113251E-06  1.25808427E-05 -1.01743238E-09  3.65246361E-10
 -3.55591030E-05  9.45922063E-05  2.83238750E-04  4.96358938E-04 -1.60816161E-07
  1.53324109E-03 -3.63220021E-04  1.85477334E-04 -1.68172370E-08  6.02736530E-05
  2.60927487E-04  2.19310644E-07  1.55253348E-04 -4.51918727E-08 -1.02722967E-07
  5.21682069E-06  2.77753274E-05  4.52482351E-06 -1.27116458E-06  6.61422519E-10
 -6.94849772E-05 -1.99433766E-04 -1.99616666E-04  1.46231025E-09 -1.16572063E-05
  6.66303665E-06  1.52802334E-05 -2.81166535E-06  4.59886187E-10 -6.59267812E-11
  1.95005247E-06  7.41832978E-06  1.54948697E-05  5.00896415E-06 -1.24305559E-09
  2.34377076E-04  1.54314107E-04 -1.80696445E-05  3.10073499E-09  6.02282413E-06
 -3.63927948E-06  8.17596547E-06  1.06813357E-06  9.29297495E-10  2.23411891E-10
  1.63179909E-06  7.75759169E-06  2.60409520E-06  2.62219543E-06 -2.30705647E-10
 -1.46002003E-04 -3.89720479E-05 -1.37916718E-04  3.02533783E-10  2.05361427E-06
 -1.67112631E-06  4.88567207E-06 -3.06394798E-06  9.13090956E-11  6.08552931E-10
  2.92624843E-05 -4.06058668E-04 -1.91313932E-05 -1.56140190E-04  1.09289146E-05
  2.75282182E-05 -2.26112112E-06 -8.95860074E-06  3.26300138E-06 -9.04936031E-06
  1.66388847E-04  1.96440827E-05 -9.24249333E-07 -1.57078184E-07  2.94499800E-06
 -5.46543449E-05  6.28449845E-06  2.36996031E-05  9.71045221E-05  9.67189899E-06
 -1.37197168E-06  5.74149338E-06 -1.65397219E-06 -7.41136218E-06 -6.46091733E-05
 -6.34196073E-01 -1.13116387E-02  2.08852353E-04 -2.78128752E-04  4.77283352E-04
 -5.23323898E-03 -1.38970865E-04  2.04751888E-04 -2.31943421E-04  2.95134681E-03
  2.99093429E-03  3.04733538E-03 -6.45760014E-05  1.02057773E-04 -1.38135623E-04
  7.65951184E-01  1.37283473E-02 -2.54811756E-04  3.37145510E-04  5.78193866E-04
  6.08143120E-03  1.93768001E-04 -2.60779245E-04 -3.60089134E-04 -3.52337413E-03
 -3.57224566E-03 -3.67331098E-03  7.97733688E-05  1.30463411E-04 -1.68889007E-04
  1.58951422E-06  1.85579700E-05 -5.37494307E-08  1.38585022E-06  2.88470800E-06
 -6.69450474E-05 -1.44898920E-04 -4.43057050E-05  1.14347868E-04 -1.33662110E-05
  4.07644888E-07 -2.04979874E-07  6.12234120E-06  5.72627354E-05 -1.33976716E-05
  1.17386534E-07 -4.56640499E-07 -6.88377633E-07 -1.47742052E-06  4.25630394E-06
 -1.48424538E-05  5.68627855E-05  1.83619927E-05 -3.54312020E-05  1.81158340E-06
  7.13311905E-07  5.66316434E-07 -2.22004122E-06 -1.37960373E-06  2.35814220E-06
  9.73162290E-07  3.17939217E-06  4.20911676E-06  6.75451903E-07 -1.94852196E-05
 -2.42383946E-05 -4.68262912E-05 -5.90802127E-05  3.00681466E-05  5.78376624E-06
 -4.56285639E-06  3.80063474E-06 -5.28170501E-07 -6.05931413E-07 -4.44167700E-06
 -6.21431143E-06  4.00687778E-06  3.63152138E-05 -3.38179170E-05 -6.17722755E-04
  2.49164173E-04 -5.92952082E-05 -2.91971141E-05 -7.37294577E-05  5.74851360E-06