190_Glutamine Gaussian SP Calculation on node58.bme.utexas.edu          
Freq      RMP2-FC                                                     6-31G(d)            
Number of atoms                            I               20
Info1-9                                    I   N=           9
          31          30        1002           0           0         100
           6           2           1
Charge                                     I                0
Multiplicity                               I                1
Number of electrons                        I               78
Number of alpha electrons                  I               39
Number of beta electrons                   I               39
Number of basis functions                  I              170
Number of independent functions            I              170
Number of point charges in /Mol/           I                0
Number of translation vectors              I                0
Atomic numbers                             I   N=          20
           8           8           8           7           7           6
           6           6           6           6           1           1
           1           1           1           1           1           1
           1           1
Nuclear charges                            R   N=          20
  8.00000000E+00  8.00000000E+00  8.00000000E+00  7.00000000E+00  7.00000000E+00
  6.00000000E+00  6.00000000E+00  6.00000000E+00  6.00000000E+00  6.00000000E+00
  1.00000000E+00  1.00000000E+00  1.00000000E+00  1.00000000E+00  1.00000000E+00
  1.00000000E+00  1.00000000E+00  1.00000000E+00  1.00000000E+00  1.00000000E+00
Current cartesian coordinates              R   N=          60
 -4.26599931E+00 -3.10846590E+00 -2.45053861E-01 -4.14261469E+00 -5.48423998E-02
  2.75616043E+00  4.87329918E+00 -2.35960089E+00 -1.03726472E+00 -2.76798119E+00
  3.59205604E+00 -9.12831534E-01  6.33239198E+00  8.99607043E-01  1.36318647E+00
  1.73630240E-01  1.03215516E-01 -1.84131996E+00 -2.59273086E+00  8.94486140E-01
 -1.47097645E+00  1.82028257E+00  7.00622788E-01  4.47054316E-01 -3.76323267E+00
 -7.34170442E-01  5.82413926E-01  4.45870860E+00 -3.92304717E-01  1.30860685E-01
  2.90456313E-01 -1.91713445E+00 -2.25672821E+00  8.92602012E-01  1.12745269E+00
 -3.48812321E+00 -3.60655933E+00  5.10816122E-01 -3.23488657E+00  1.91442683E+00
  2.74687104E+00  7.47026647E-01  1.01683182E+00 -1.24113048E-01  2.17368313E+00
 -2.46432469E+00  3.82274510E+00  9.78268488E-01 -4.58397745E+00  4.17336015E+00
 -1.19447160E+00  6.07200434E+00  2.69378079E+00  1.95485475E+00  8.12731111E+00
  3.12212004E-01  1.06386614E+00 -4.90707526E+00 -4.03545415E+00  1.22509607E+00
Force Field                                I                0
Int Atom Types                             I   N=          20
           0           0           0           0           0           0
           0           0           0           0           0           0
           0           0           0           0           0           0
           0           0
MM charges                                 R   N=          20
  0.00000000E+00  0.00000000E+00  0.00000000E+00  0.00000000E+00  0.00000000E+00
  0.00000000E+00  0.00000000E+00  0.00000000E+00  0.00000000E+00  0.00000000E+00
  0.00000000E+00  0.00000000E+00  0.00000000E+00  0.00000000E+00  0.00000000E+00
  0.00000000E+00  0.00000000E+00  0.00000000E+00  0.00000000E+00  0.00000000E+00
Integer atomic weights                     I   N=          20
          16          16          16          14          14          12
          12          12          12          12           1           1
           1           1           1           1           1           1
           1           1
Real atomic weights                        R   N=          20
  1.59949146E+01  1.59949146E+01  1.59949146E+01  1.40030740E+01  1.40030740E+01
  1.20000000E+01  1.20000000E+01  1.20000000E+01  1.20000000E+01  1.20000000E+01
  1.00782504E+00  1.00782504E+00  1.00782504E+00  1.00782504E+00  1.00782504E+00
  1.00782504E+00  1.00782504E+00  1.00782504E+00  1.00782504E+00  1.00782504E+00
Atom fragment info                         I   N=          20
           0           0           0           0           0           0
           0           0           0           0           0           0
           0           0           0           0           0           0
           0           0
Atom residue num                           I   N=          20
           0           0           0           0           0           0
           0           0           0           0           0           0
           0           0           0           0           0           0
           0           0
Nuclear spins                              I   N=          20
           0           0           0           2           2           0
           0           0           0           0           1           1
           1           1           1           1           1           1
           1           1
Nuclear ZEff                               R   N=          20
 -5.60000000E+00 -5.60000000E+00 -5.60000000E+00 -4.55000000E+00 -4.55000000E+00
 -3.60000000E+00 -3.60000000E+00 -3.60000000E+00 -3.60000000E+00 -3.60000000E+00
 -1.00000000E+00 -1.00000000E+00 -1.00000000E+00 -1.00000000E+00 -1.00000000E+00
 -1.00000000E+00 -1.00000000E+00 -1.00000000E+00 -1.00000000E+00 -1.00000000E+00
Nuclear QMom                               R   N=          20
  0.00000000E+00  0.00000000E+00  0.00000000E+00  2.04400000E+00  2.04400000E+00
  0.00000000E+00  0.00000000E+00  0.00000000E+00  0.00000000E+00  0.00000000E+00
  0.00000000E+00  0.00000000E+00  0.00000000E+00  0.00000000E+00  0.00000000E+00
  0.00000000E+00  0.00000000E+00  0.00000000E+00  0.00000000E+00  0.00000000E+00
Nuclear GFac                               R   N=          20
  0.00000000E+00  0.00000000E+00  0.00000000E+00  4.03761000E-01  4.03761000E-01
  0.00000000E+00  0.00000000E+00  0.00000000E+00  0.00000000E+00  0.00000000E+00
  2.79284600E+00  2.79284600E+00  2.79284600E+00  2.79284600E+00  2.79284600E+00
  2.79284600E+00  2.79284600E+00  2.79284600E+00  2.79284600E+00  2.79284600E+00
MicOpt                                     I   N=          20
          -1          -1          -1          -1          -1          -1
          -1          -1          -1          -1          -1          -1
          -1          -1          -1          -1          -1          -1
          -1          -1
Number of contracted shells                I               60
Number of primitive shells                 I              150
Pure/Cartesian d shells                    I                1
Pure/Cartesian f shells                    I                0
Highest angular momentum                   I                2
Largest degree of contraction              I                6
Shell types                                I   N=          60
           0          -1          -1           2           0          -1
          -1           2           0          -1          -1           2
           0          -1          -1           2           0          -1
          -1           2           0          -1          -1           2
           0          -1          -1           2           0          -1
          -1           2           0          -1          -1           2
           0          -1          -1           2           0           0
           0           0           0           0           0           0
           0           0           0           0           0           0
           0           0           0           0           0           0
Number of primitives per shell             I   N=          60
           6           3           1           1           6           3
           1           1           6           3           1           1
           6           3           1           1           6           3
           1           1           6           3           1           1
           6           3           1           1           6           3
           1           1           6           3           1           1
           6           3           1           1           3           1
           3           1           3           1           3           1
           3           1           3           1           3           1
           3           1           3           1           3           1
Shell to atom map                          I   N=          60
           1           1           1           1           2           2
           2           2           3           3           3           3
           4           4           4           4           5           5
           5           5           6           6           6           6
           7           7           7           7           8           8
           8           8           9           9           9           9
          10          10          10          10          11          11
          12          12          13          13          14          14
          15          15          16          16          17          17
          18          18          19          19          20          20
Primitive exponents                        R   N=         150
  5.48467166E+03  8.25234946E+02  1.88046958E+02  5.29645000E+01  1.68975704E+01
  5.79963534E+00  1.55396162E+01  3.59993359E+00  1.01376175E+00  2.70005823E-01
  8.00000000E-01  5.48467166E+03  8.25234946E+02  1.88046958E+02  5.29645000E+01
  1.68975704E+01  5.79963534E+00  1.55396162E+01  3.59993359E+00  1.01376175E+00
  2.70005823E-01  8.00000000E-01  5.48467166E+03  8.25234946E+02  1.88046958E+02
  5.29645000E+01  1.68975704E+01  5.79963534E+00  1.55396162E+01  3.59993359E+00
  1.01376175E+00  2.70005823E-01  8.00000000E-01  4.17351146E+03  6.27457911E+02
  1.42902093E+02  4.02343293E+01  1.28202129E+01  4.39043701E+00  1.16263619E+01
  2.71627981E+00  7.72218397E-01  2.12031498E-01  8.00000000E-01  4.17351146E+03
  6.27457911E+02  1.42902093E+02  4.02343293E+01  1.28202129E+01  4.39043701E+00
  1.16263619E+01  2.71627981E+00  7.72218397E-01  2.12031498E-01  8.00000000E-01
  3.04752488E+03  4.57369518E+02  1.03948685E+02  2.92101553E+01  9.28666296E+00
  3.16392696E+00  7.86827235E+00  1.88128854E+00  5.44249258E-01  1.68714478E-01
  8.00000000E-01  3.04752488E+03  4.57369518E+02  1.03948685E+02  2.92101553E+01
  9.28666296E+00  3.16392696E+00  7.86827235E+00  1.88128854E+00  5.44249258E-01
  1.68714478E-01  8.00000000E-01  3.04752488E+03  4.57369518E+02  1.03948685E+02
  2.92101553E+01  9.28666296E+00  3.16392696E+00  7.86827235E+00  1.88128854E+00
  5.44249258E-01  1.68714478E-01  8.00000000E-01  3.04752488E+03  4.57369518E+02
  1.03948685E+02  2.92101553E+01  9.28666296E+00  3.16392696E+00  7.86827235E+00
  1.88128854E+00  5.44249258E-01  1.68714478E-01  8.00000000E-01  3.04752488E+03
  4.57369518E+02  1.03948685E+02  2.92101553E+01  9.28666296E+00  3.16392696E+00
  7.86827235E+00  1.88128854E+00  5.44249258E-01  1.68714478E-01  8.00000000E-01
  1.87311370E+01  2.82539436E+00  6.40121692E-01  1.61277759E-01  1.87311370E+01
  2.82539436E+00  6.40121692E-01  1.61277759E-01  1.87311370E+01  2.82539436E+00
  6.40121692E-01  1.61277759E-01  1.87311370E+01  2.82539436E+00  6.40121692E-01
  1.61277759E-01  1.87311370E+01  2.82539436E+00  6.40121692E-01  1.61277759E-01
  1.87311370E+01  2.82539436E+00  6.40121692E-01  1.61277759E-01  1.87311370E+01
  2.82539436E+00  6.40121692E-01  1.61277759E-01  1.87311370E+01  2.82539436E+00
  6.40121692E-01  1.61277759E-01  1.87311370E+01  2.82539436E+00  6.40121692E-01
  1.61277759E-01  1.87311370E+01  2.82539436E+00  6.40121692E-01  1.61277759E-01
Contraction coefficients                   R   N=         150
  1.83107443E-03  1.39501722E-02  6.84450781E-02  2.32714336E-01  4.70192898E-01
  3.58520853E-01 -1.10777550E-01 -1.48026263E-01  1.13076702E+00  1.00000000E+00
  1.00000000E+00  1.83107443E-03  1.39501722E-02  6.84450781E-02  2.32714336E-01
  4.70192898E-01  3.58520853E-01 -1.10777550E-01 -1.48026263E-01  1.13076702E+00
  1.00000000E+00  1.00000000E+00  1.83107443E-03  1.39501722E-02  6.84450781E-02
  2.32714336E-01  4.70192898E-01  3.58520853E-01 -1.10777550E-01 -1.48026263E-01
  1.13076702E+00  1.00000000E+00  1.00000000E+00  1.83477216E-03  1.39946270E-02
  6.85865518E-02  2.32240873E-01  4.69069948E-01  3.60455199E-01 -1.14961182E-01
 -1.69117479E-01  1.14585195E+00  1.00000000E+00  1.00000000E+00  1.83477216E-03
  1.39946270E-02  6.85865518E-02  2.32240873E-01  4.69069948E-01  3.60455199E-01
 -1.14961182E-01 -1.69117479E-01  1.14585195E+00  1.00000000E+00  1.00000000E+00
  1.83473713E-03  1.40373228E-02  6.88426223E-02  2.32184443E-01  4.67941348E-01
  3.62311985E-01 -1.19332420E-01 -1.60854152E-01  1.14345644E+00  1.00000000E+00
  1.00000000E+00  1.83473713E-03  1.40373228E-02  6.88426223E-02  2.32184443E-01
  4.67941348E-01  3.62311985E-01 -1.19332420E-01 -1.60854152E-01  1.14345644E+00
  1.00000000E+00  1.00000000E+00  1.83473713E-03  1.40373228E-02  6.88426223E-02
  2.32184443E-01  4.67941348E-01  3.62311985E-01 -1.19332420E-01 -1.60854152E-01
  1.14345644E+00  1.00000000E+00  1.00000000E+00  1.83473713E-03  1.40373228E-02
  6.88426223E-02  2.32184443E-01  4.67941348E-01  3.62311985E-01 -1.19332420E-01
 -1.60854152E-01  1.14345644E+00  1.00000000E+00  1.00000000E+00  1.83473713E-03
  1.40373228E-02  6.88426223E-02  2.32184443E-01  4.67941348E-01  3.62311985E-01
 -1.19332420E-01 -1.60854152E-01  1.14345644E+00  1.00000000E+00  1.00000000E+00
  3.34946043E-02  2.34726953E-01  8.13757326E-01  1.00000000E+00  3.34946043E-02
  2.34726953E-01  8.13757326E-01  1.00000000E+00  3.34946043E-02  2.34726953E-01
  8.13757326E-01  1.00000000E+00  3.34946043E-02  2.34726953E-01  8.13757326E-01
  1.00000000E+00  3.34946043E-02  2.34726953E-01  8.13757326E-01  1.00000000E+00
  3.34946043E-02  2.34726953E-01  8.13757326E-01  1.00000000E+00  3.34946043E-02
  2.34726953E-01  8.13757326E-01  1.00000000E+00  3.34946043E-02  2.34726953E-01
  8.13757326E-01  1.00000000E+00  3.34946043E-02  2.34726953E-01  8.13757326E-01
  1.00000000E+00  3.34946043E-02  2.34726953E-01  8.13757326E-01  1.00000000E+00
P(S=P) Contraction coefficients            R   N=         150
  0.00000000E+00  0.00000000E+00  0.00000000E+00  0.00000000E+00  0.00000000E+00
  0.00000000E+00  7.08742682E-02  3.39752839E-01  7.27158577E-01  1.00000000E+00
  0.00000000E+00  0.00000000E+00  0.00000000E+00  0.00000000E+00  0.00000000E+00
  0.00000000E+00  0.00000000E+00  7.08742682E-02  3.39752839E-01  7.27158577E-01
  1.00000000E+00  0.00000000E+00  0.00000000E+00  0.00000000E+00  0.00000000E+00
  0.00000000E+00  0.00000000E+00  0.00000000E+00  7.08742682E-02  3.39752839E-01
  7.27158577E-01  1.00000000E+00  0.00000000E+00  0.00000000E+00  0.00000000E+00
  0.00000000E+00  0.00000000E+00  0.00000000E+00  0.00000000E+00  6.75797439E-02
  3.23907296E-01  7.40895140E-01  1.00000000E+00  0.00000000E+00  0.00000000E+00
  0.00000000E+00  0.00000000E+00  0.00000000E+00  0.00000000E+00  0.00000000E+00
  6.75797439E-02  3.23907296E-01  7.40895140E-01  1.00000000E+00  0.00000000E+00
  0.00000000E+00  0.00000000E+00  0.00000000E+00  0.00000000E+00  0.00000000E+00
  0.00000000E+00  6.89990666E-02  3.16423961E-01  7.44308291E-01  1.00000000E+00
  0.00000000E+00  0.00000000E+00  0.00000000E+00  0.00000000E+00  0.00000000E+00
  0.00000000E+00  0.00000000E+00  6.89990666E-02  3.16423961E-01  7.44308291E-01
  1.00000000E+00  0.00000000E+00  0.00000000E+00  0.00000000E+00  0.00000000E+00
  0.00000000E+00  0.00000000E+00  0.00000000E+00  6.89990666E-02  3.16423961E-01
  7.44308291E-01  1.00000000E+00  0.00000000E+00  0.00000000E+00  0.00000000E+00
  0.00000000E+00  0.00000000E+00  0.00000000E+00  0.00000000E+00  6.89990666E-02
  3.16423961E-01  7.44308291E-01  1.00000000E+00  0.00000000E+00  0.00000000E+00
  0.00000000E+00  0.00000000E+00  0.00000000E+00  0.00000000E+00  0.00000000E+00
  6.89990666E-02  3.16423961E-01  7.44308291E-01  1.00000000E+00  0.00000000E+00
  0.00000000E+00  0.00000000E+00  0.00000000E+00  0.00000000E+00  0.00000000E+00
  0.00000000E+00  0.00000000E+00  0.00000000E+00  0.00000000E+00  0.00000000E+00
  0.00000000E+00  0.00000000E+00  0.00000000E+00  0.00000000E+00  0.00000000E+00
  0.00000000E+00  0.00000000E+00  0.00000000E+00  0.00000000E+00  0.00000000E+00
  0.00000000E+00  0.00000000E+00  0.00000000E+00  0.00000000E+00  0.00000000E+00
  0.00000000E+00  0.00000000E+00  0.00000000E+00  0.00000000E+00  0.00000000E+00
  0.00000000E+00  0.00000000E+00  0.00000000E+00  0.00000000E+00  0.00000000E+00
  0.00000000E+00  0.00000000E+00  0.00000000E+00  0.00000000E+00  0.00000000E+00
Coordinates of each shell                  R   N=         180
 -4.26599931E+00 -3.10846590E+00 -2.45053861E-01 -4.26599931E+00 -3.10846590E+00
 -2.45053861E-01 -4.26599931E+00 -3.10846590E+00 -2.45053861E-01 -4.26599931E+00
 -3.10846590E+00 -2.45053861E-01 -4.14261469E+00 -5.48423998E-02  2.75616043E+00
 -4.14261469E+00 -5.48423998E-02  2.75616043E+00 -4.14261469E+00 -5.48423998E-02
  2.75616043E+00 -4.14261469E+00 -5.48423998E-02  2.75616043E+00  4.87329918E+00
 -2.35960089E+00 -1.03726472E+00  4.87329918E+00 -2.35960089E+00 -1.03726472E+00
  4.87329918E+00 -2.35960089E+00 -1.03726472E+00  4.87329918E+00 -2.35960089E+00
 -1.03726472E+00 -2.76798119E+00  3.59205604E+00 -9.12831534E-01 -2.76798119E+00
  3.59205604E+00 -9.12831534E-01 -2.76798119E+00  3.59205604E+00 -9.12831534E-01
 -2.76798119E+00  3.59205604E+00 -9.12831534E-01  6.33239198E+00  8.99607043E-01
  1.36318647E+00  6.33239198E+00  8.99607043E-01  1.36318647E+00  6.33239198E+00
  8.99607043E-01  1.36318647E+00  6.33239198E+00  8.99607043E-01  1.36318647E+00
  1.73630240E-01  1.03215516E-01 -1.84131996E+00  1.73630240E-01  1.03215516E-01
 -1.84131996E+00  1.73630240E-01  1.03215516E-01 -1.84131996E+00  1.73630240E-01
  1.03215516E-01 -1.84131996E+00 -2.59273086E+00  8.94486140E-01 -1.47097645E+00
 -2.59273086E+00  8.94486140E-01 -1.47097645E+00 -2.59273086E+00  8.94486140E-01
 -1.47097645E+00 -2.59273086E+00  8.94486140E-01 -1.47097645E+00  1.82028257E+00
  7.00622788E-01  4.47054316E-01  1.82028257E+00  7.00622788E-01  4.47054316E-01
  1.82028257E+00  7.00622788E-01  4.47054316E-01  1.82028257E+00  7.00622788E-01
  4.47054316E-01 -3.76323267E+00 -7.34170442E-01  5.82413926E-01 -3.76323267E+00
 -7.34170442E-01  5.82413926E-01 -3.76323267E+00 -7.34170442E-01  5.82413926E-01
 -3.76323267E+00 -7.34170442E-01  5.82413926E-01  4.45870860E+00 -3.92304717E-01
  1.30860685E-01  4.45870860E+00 -3.92304717E-01  1.30860685E-01  4.45870860E+00
 -3.92304717E-01  1.30860685E-01  4.45870860E+00 -3.92304717E-01  1.30860685E-01
  2.90456313E-01 -1.91713445E+00 -2.25672821E+00  2.90456313E-01 -1.91713445E+00
 -2.25672821E+00  8.92602012E-01  1.12745269E+00 -3.48812321E+00  8.92602012E-01
  1.12745269E+00 -3.48812321E+00 -3.60655933E+00  5.10816122E-01 -3.23488657E+00
 -3.60655933E+00  5.10816122E-01 -3.23488657E+00  1.91442683E+00  2.74687104E+00
  7.47026647E-01  1.91442683E+00  2.74687104E+00  7.47026647E-01  1.01683182E+00
 -1.24113048E-01  2.17368313E+00  1.01683182E+00 -1.24113048E-01  2.17368313E+00
 -2.46432469E+00  3.82274510E+00  9.78268488E-01 -2.46432469E+00  3.82274510E+00
  9.78268488E-01 -4.58397745E+00  4.17336015E+00 -1.19447160E+00 -4.58397745E+00
  4.17336015E+00 -1.19447160E+00  6.07200434E+00  2.69378079E+00  1.95485475E+00
  6.07200434E+00  2.69378079E+00  1.95485475E+00  8.12731111E+00  3.12212004E-01
  1.06386614E+00  8.12731111E+00  3.12212004E-01  1.06386614E+00 -4.90707526E+00
 -4.03545415E+00  1.22509607E+00 -4.90707526E+00 -4.03545415E+00  1.22509607E+00
Constraint Structure                       R   N=          60
 -4.26599931E+00 -3.10846590E+00 -2.45053861E-01 -4.14261469E+00 -5.48423998E-02
  2.75616043E+00  4.87329918E+00 -2.35960089E+00 -1.03726472E+00 -2.76798119E+00
  3.59205604E+00 -9.12831534E-01  6.33239198E+00  8.99607043E-01  1.36318647E+00
  1.73630240E-01  1.03215516E-01 -1.84131996E+00 -2.59273086E+00  8.94486140E-01
 -1.47097645E+00  1.82028257E+00  7.00622788E-01  4.47054316E-01 -3.76323267E+00
 -7.34170442E-01  5.82413926E-01  4.45870860E+00 -3.92304717E-01  1.30860685E-01
  2.90456313E-01 -1.91713445E+00 -2.25672821E+00  8.92602012E-01  1.12745269E+00
 -3.48812321E+00 -3.60655933E+00  5.10816122E-01 -3.23488657E+00  1.91442683E+00
  2.74687104E+00  7.47026647E-01  1.01683182E+00 -1.24113048E-01  2.17368313E+00
 -2.46432469E+00  3.82274510E+00  9.78268488E-01 -4.58397745E+00  4.17336015E+00
 -1.19447160E+00  6.07200434E+00  2.69378079E+00  1.95485475E+00  8.12731111E+00
  3.12212004E-01  1.06386614E+00 -4.90707526E+00 -4.03545415E+00  1.22509607E+00
Num ILSW                                   I              100
ILSW                                       I   N=         100
           0           1           0           0           2           0
           0           0           0           0           0          -1
           0           0           0           0           0           0
           0           0           0           0           1           0
           1           0           0           0           0           0
           0           0      100000           0          -1           0
           0           0           0           0           0           0
           0           0           0           1           1           0
           0           0           1           0           0           0
           0           0           4          40           0           0
           0           0           0           0           0           0
           0           0           0           0           0           0
           0           0           0           0           0           0
           0           0           0           0           0           0
           0           0           0           0           0           0
           0           0           0           0           0           0
           0           0           0           0
Num RLSW                                   I               40
RLSW                                       R   N=          40
  1.00000000E+00  1.00000000E+00  1.00000000E+00  1.00000000E+00  1.00000000E+00
  0.00000000E+00  0.00000000E+00  1.00000000E+00  0.00000000E+00  0.00000000E+00
  0.00000000E+00  0.00000000E+00  1.00000000E+00  0.00000000E+00  0.00000000E+00
  0.00000000E+00  0.00000000E+00  1.00000000E+00  0.00000000E+00  0.00000000E+00
  0.00000000E+00  0.00000000E+00  1.00000000E+00  0.00000000E+00  0.00000000E+00
  0.00000000E+00  0.00000000E+00  1.00000000E+00  0.00000000E+00  0.00000000E+00
  0.00000000E+00  0.00000000E+00  0.00000000E+00  0.00000000E+00  0.00000000E+00
  0.00000000E+00  0.00000000E+00  0.00000000E+00  1.00000000E+00  1.00000000E+00
MxBond                                     I                4
NBond                                      I   N=          20
           2           1           1           3           3           4
           4           4           3           3           1           1
           1           1           1           1           1           1
           1           1
IBond                                      I   N=          80
           9          20           0           0           9           0
           0           0          10           0           0           0
           7          16          17           0          10          18
          19           0           7           8          11          12
           4           6           9          13           6          10
          14          15           1           2           7           0
           3           5           8           0           6           0
           0           0           6           0           0           0
           7           0           0           0           8           0
           0           0           8           0           0           0
           4           0           0           0           4           0
           0           0           5           0           0           0
           5           0           0           0           1           0
           0           0
RBond                                      R   N=          80
  1.50000000E+00  1.00000000E+00  0.00000000E+00  0.00000000E+00  2.00000000E+00
  0.00000000E+00  0.00000000E+00  0.00000000E+00  2.00000000E+00  0.00000000E+00
  0.00000000E+00  0.00000000E+00  1.00000000E+00  1.00000000E+00  1.00000000E+00
  0.00000000E+00  1.41000000E+00  1.00000000E+00  1.00000000E+00  0.00000000E+00
  1.00000000E+00  1.00000000E+00  1.00000000E+00  1.00000000E+00  1.00000000E+00
  1.00000000E+00  1.00000000E+00  1.00000000E+00  1.00000000E+00  1.00000000E+00
  1.00000000E+00  1.00000000E+00  1.50000000E+00  2.00000000E+00  1.00000000E+00
  0.00000000E+00  2.00000000E+00  1.41000000E+00  1.00000000E+00  0.00000000E+00
  1.00000000E+00  0.00000000E+00  0.00000000E+00  0.00000000E+00  1.00000000E+00
  0.00000000E+00  0.00000000E+00  0.00000000E+00  1.00000000E+00  0.00000000E+00
  0.00000000E+00  0.00000000E+00  1.00000000E+00  0.00000000E+00  0.00000000E+00
  0.00000000E+00  1.00000000E+00  0.00000000E+00  0.00000000E+00  0.00000000E+00
  1.00000000E+00  0.00000000E+00  0.00000000E+00  0.00000000E+00  1.00000000E+00
  0.00000000E+00  0.00000000E+00  0.00000000E+00  1.00000000E+00  0.00000000E+00
  0.00000000E+00  0.00000000E+00  1.00000000E+00  0.00000000E+00  0.00000000E+00
  0.00000000E+00  1.00000000E+00  0.00000000E+00  0.00000000E+00  0.00000000E+00
Virial Ratio                               R      2.002838362269402E+00
SCF Energy                                 R     -5.286759769947831E+02
MP2 Energy                                 R     -5.301782995283667E+02
Total Energy                               R     -5.301782995283667E+02
Post-SCF wavefunction norm                 R      1.709246795091013E+00
RMS Force                                  R      3.772711640839362E-08
RMS Density                                R      2.428885247832973E-09
External E-field                           R   N=          35
  0.00000000E+00  0.00000000E+00  0.00000000E+00  0.00000000E+00  0.00000000E+00
  0.00000000E+00  0.00000000E+00  0.00000000E+00  0.00000000E+00  0.00000000E+00
  0.00000000E+00  0.00000000E+00  0.00000000E+00  0.00000000E+00  0.00000000E+00
  0.00000000E+00  0.00000000E+00  0.00000000E+00  0.00000000E+00  0.00000000E+00
  0.00000000E+00  0.00000000E+00  0.00000000E+00  0.00000000E+00  0.00000000E+00
  0.00000000E+00  0.00000000E+00  0.00000000E+00  0.00000000E+00  0.00000000E+00
  0.00000000E+00  0.00000000E+00  0.00000000E+00  0.00000000E+00  0.00000000E+00
IOpCl                                      I                0
IROHF                                      I                0
Alpha Orbital Energies                     R   N=         170
 -2.06293886E+01 -2.05688475E+01 -2.05249241E+01 -1.55897564E+01 -1.55585891E+01
 -1.13966054E+01 -1.13566140E+01 -1.12829719E+01 -1.12442494E+01 -1.12356309E+01
 -1.46676886E+00 -1.37088542E+00 -1.36359267E+00 -1.20746411E+00 -1.20393213E+00
 -1.06845079E+00 -9.80850683E-01 -8.82201109E-01 -7.99551002E-01 -7.73663076E-01
 -7.28122020E-01 -7.08941463E-01 -7.03285647E-01 -6.85193315E-01 -6.51867388E-01
 -6.45359636E-01 -6.15692601E-01 -5.98807003E-01 -5.85421718E-01 -5.81218601E-01
 -5.49010910E-01 -5.17968118E-01 -5.04678740E-01 -4.97313103E-01 -4.80508319E-01
 -4.58987326E-01 -4.20406468E-01 -4.12846996E-01 -4.08022163E-01  1.65137122E-01
  1.93996811E-01  2.10859218E-01  2.20699540E-01  2.26385576E-01  2.58049703E-01
  2.79333272E-01  2.97186157E-01  3.00572859E-01  3.32703366E-01  3.35421517E-01
  3.66204108E-01  3.92737071E-01  3.94084861E-01  4.20593648E-01  4.29366965E-01
  4.69877343E-01  5.09537473E-01  5.24334718E-01  5.77618335E-01  5.84493817E-01
  7.14905261E-01  7.39503783E-01  7.62565588E-01  7.78865806E-01  7.95047591E-01
  8.05400492E-01  8.50639008E-01  8.75868443E-01  8.86017208E-01  9.10062848E-01
  9.23271283E-01  9.29765336E-01  9.48730157E-01  9.63476646E-01  9.71431862E-01
  9.85857199E-01  9.93933287E-01  1.03179731E+00  1.05274021E+00  1.07693472E+00
  1.09114568E+00  1.10982202E+00  1.13003468E+00  1.14157571E+00  1.15441777E+00
  1.17152986E+00  1.17655930E+00  1.18191082E+00  1.20073742E+00  1.20837167E+00
  1.21261762E+00  1.23751443E+00  1.24550587E+00  1.27354222E+00  1.32202041E+00
  1.33698954E+00  1.34612680E+00  1.37497782E+00  1.40680344E+00  1.41418705E+00
  1.42932713E+00  1.48245358E+00  1.51206812E+00  1.58163499E+00  1.58483005E+00
  1.62520184E+00  1.64973576E+00  1.68007111E+00  1.74423626E+00  1.76899162E+00
  1.82084688E+00  1.86489676E+00  1.89673572E+00  1.93463800E+00  1.97690163E+00
  2.00418373E+00  2.01151707E+00  2.03599967E+00  2.06802687E+00  2.08686898E+00
  2.11425194E+00  2.12020849E+00  2.13035127E+00  2.16254248E+00  2.17662113E+00
  2.21916024E+00  2.26838603E+00  2.27932898E+00  2.29598392E+00  2.30169111E+00
  2.33043464E+00  2.33682316E+00  2.40852977E+00  2.42442101E+00  2.45583647E+00
  2.48382062E+00  2.51949353E+00  2.56729808E+00  2.57032442E+00  2.63647177E+00
  2.67821713E+00  2.70887462E+00  2.74455592E+00  2.77118133E+00  2.79614322E+00
  2.81463919E+00  2.85331029E+00  2.93573871E+00  2.94432091E+00  2.97153410E+00
  2.99689255E+00  3.02064237E+00  3.05494151E+00  3.15264522E+00  3.21528103E+00
  3.23756301E+00  3.35244594E+00  3.36234087E+00  3.44138693E+00  3.45128735E+00
  4.15644777E+00  4.22559731E+00  4.32425861E+00  4.48074804E+00  4.53693389E+00
  4.66732572E+00  4.71394216E+00  4.83306845E+00  4.94711245E+00  5.06390974E+00
Alpha MO coefficients                      R   N=       28900
  9.94640270E-01  2.11893954E-02 -1.57351896E-04  4.72272749E-04  1.18171097E-03
  3.95519551E-03  1.29061513E-04 -1.32672539E-04 -6.51039302E-04 -3.97185302E-03
 -4.12092198E-03 -4.08734086E-03 -6.61433078E-05  4.33371799E-05  2.32148319E-05