12691389                                                                
Freq      RMP2-FC                                                     6-31G(d)            
Number of atoms                            I                9
Info1-9                                    I   N=           9
          21          19        1002           0           0         100
           6           2           1
Charge                                     I               -2
Multiplicity                               I                1
Number of electrons                        I               58
Number of alpha electrons                  I               29
Number of beta electrons                   I               29
Number of basis functions                  I              100
Number of independent functions            I              100
Number of point charges in /Mol/           I                0
Number of translation vectors              I                0
Atomic numbers                             I   N=           9
          15           8           8           8           8           6
           1           1           1
Nuclear charges                            R   N=           9
  1.50000000E+01  8.00000000E+00  8.00000000E+00  8.00000000E+00  8.00000000E+00
  6.00000000E+00  1.00000000E+00  1.00000000E+00  1.00000000E+00
Current cartesian coordinates              R   N=          27
 -1.03720436E+00 -1.35476997E-01  5.29047208E-06  1.84500060E+00  1.66626088E+00
 -5.49919163E-05 -2.98620784E+00  2.01189812E+00  2.51990797E-06 -7.95679817E-01
 -1.67903565E+00  2.46003322E+00 -7.95747911E-01 -1.67910002E+00 -2.45998922E+00
  3.95234026E+00  8.82844454E-02 -4.93760986E-06  3.99999221E+00 -1.15100482E+00
  1.67607289E+00  5.70521365E+00  1.24448553E+00 -1.28643060E-04  3.99989775E+00
 -1.15121908E+00 -1.67592617E+00
Force Field                                I                0
Int Atom Types                             I   N=           9
           0           0           0           0           0           0
           0           0           0
MM charges                                 R   N=           9
  0.00000000E+00  0.00000000E+00  0.00000000E+00  0.00000000E+00  0.00000000E+00
  0.00000000E+00  0.00000000E+00  0.00000000E+00  0.00000000E+00
Integer atomic weights                     I   N=           9
          31          16          16          16          16          12
           1           1           1
Real atomic weights                        R   N=           9
  3.09737634E+01  1.59949146E+01  1.59949146E+01  1.59949146E+01  1.59949146E+01
  1.20000000E+01  1.00782504E+00  1.00782504E+00  1.00782504E+00
Atom fragment info                         I   N=           9
           0           0           0           0           0           0
           0           0           0
Atom residue num                           I   N=           9
           0           0           0           0           0           0
           0           0           0
Nuclear spins                              I   N=           9
           1           0           0           0           0           0
           1           1           1
Nuclear ZEff                               R   N=           9
 -1.29400000E+01 -5.60000000E+00 -5.60000000E+00 -5.60000000E+00 -5.60000000E+00
 -3.60000000E+00 -1.00000000E+00 -1.00000000E+00 -1.00000000E+00
Nuclear QMom                               R   N=           9
  0.00000000E+00  0.00000000E+00  0.00000000E+00  0.00000000E+00  0.00000000E+00
  0.00000000E+00  0.00000000E+00  0.00000000E+00  0.00000000E+00
Nuclear GFac                               R   N=           9
  1.13160000E+00  0.00000000E+00  0.00000000E+00  0.00000000E+00  0.00000000E+00
  0.00000000E+00  2.79284600E+00  2.79284600E+00  2.79284600E+00
MicOpt                                     I   N=           9
          -1          -1          -1          -1          -1          -1
          -1          -1          -1
Number of contracted shells                I               31
Number of primitive shells                 I               84
Pure/Cartesian d shells                    I                1
Pure/Cartesian f shells                    I                0
Highest angular momentum                   I                2
Largest degree of contraction              I                6
Shell types                                I   N=          31
           0          -1          -1          -1           2           0
          -1          -1           2           0          -1          -1
           2           0          -1          -1           2           0
          -1          -1           2           0          -1          -1
           2           0           0           0           0           0
           0
Number of primitives per shell             I   N=          31
           6           6           3           1           1           6
           3           1           1           6           3           1
           1           6           3           1           1           6
           3           1           1           6           3           1
           1           3           1           3           1           3
           1
Shell to atom map                          I   N=          31
           1           1           1           1           1           2
           2           2           2           3           3           3
           3           4           4           4           4           5
           5           5           5           6           6           6
           6           7           7           8           8           9
           9
Primitive exponents                        R   N=          84
  1.94133000E+04  2.90942000E+03  6.61364000E+02  1.85759000E+02  5.91943000E+01
  2.00310000E+01  3.39478000E+02  8.10101000E+01  2.58780000E+01  9.45221000E+00
  3.66566000E+00  1.46746000E+00  2.15623000E+00  7.48997000E-01  2.83145000E-01
  9.98317000E-02  5.50000000E-01  5.48467166E+03  8.25234946E+02  1.88046958E+02
  5.29645000E+01  1.68975704E+01  5.79963534E+00  1.55396162E+01  3.59993359E+00
  1.01376175E+00  2.70005823E-01  8.00000000E-01  5.48467166E+03  8.25234946E+02
  1.88046958E+02  5.29645000E+01  1.68975704E+01  5.79963534E+00  1.55396162E+01
  3.59993359E+00  1.01376175E+00  2.70005823E-01  8.00000000E-01  5.48467166E+03
  8.25234946E+02  1.88046958E+02  5.29645000E+01  1.68975704E+01  5.79963534E+00
  1.55396162E+01  3.59993359E+00  1.01376175E+00  2.70005823E-01  8.00000000E-01
  5.48467166E+03  8.25234946E+02  1.88046958E+02  5.29645000E+01  1.68975704E+01
  5.79963534E+00  1.55396162E+01  3.59993359E+00  1.01376175E+00  2.70005823E-01
  8.00000000E-01  3.04752488E+03  4.57369518E+02  1.03948685E+02  2.92101553E+01
  9.28666296E+00  3.16392696E+00  7.86827235E+00  1.88128854E+00  5.44249258E-01
  1.68714478E-01  8.00000000E-01  1.87311370E+01  2.82539436E+00  6.40121692E-01
  1.61277759E-01  1.87311370E+01  2.82539436E+00  6.40121692E-01  1.61277759E-01
  1.87311370E+01  2.82539436E+00  6.40121692E-01  1.61277759E-01
Contraction coefficients                   R   N=          84
  1.85159892E-03  1.42061917E-02  6.99994593E-02  2.40078860E-01  4.84761718E-01
  3.35199805E-01 -2.78217010E-03 -3.60499014E-02 -1.16631004E-01  9.68328036E-02
  6.14418023E-01  4.03798015E-01 -2.52924114E-01  3.28518447E-02  1.08125476E+00
  1.00000000E+00  1.00000000E+00  1.83107443E-03  1.39501722E-02  6.84450781E-02
  2.32714336E-01  4.70192898E-01  3.58520853E-01 -1.10777550E-01 -1.48026263E-01
  1.13076702E+00  1.00000000E+00  1.00000000E+00  1.83107443E-03  1.39501722E-02
  6.84450781E-02  2.32714336E-01  4.70192898E-01  3.58520853E-01 -1.10777550E-01
 -1.48026263E-01  1.13076702E+00  1.00000000E+00  1.00000000E+00  1.83107443E-03
  1.39501722E-02  6.84450781E-02  2.32714336E-01  4.70192898E-01  3.58520853E-01
 -1.10777550E-01 -1.48026263E-01  1.13076702E+00  1.00000000E+00  1.00000000E+00
  1.83107443E-03  1.39501722E-02  6.84450781E-02  2.32714336E-01  4.70192898E-01
  3.58520853E-01 -1.10777550E-01 -1.48026263E-01  1.13076702E+00  1.00000000E+00
  1.00000000E+00  1.83473713E-03  1.40373228E-02  6.88426223E-02  2.32184443E-01
  4.67941348E-01  3.62311985E-01 -1.19332420E-01 -1.60854152E-01  1.14345644E+00
  1.00000000E+00  1.00000000E+00  3.34946043E-02  2.34726953E-01  8.13757326E-01
  1.00000000E+00  3.34946043E-02  2.34726953E-01  8.13757326E-01  1.00000000E+00
  3.34946043E-02  2.34726953E-01  8.13757326E-01  1.00000000E+00
P(S=P) Contraction coefficients            R   N=          84
  0.00000000E+00  0.00000000E+00  0.00000000E+00  0.00000000E+00  0.00000000E+00
  0.00000000E+00  4.56461619E-03  3.36935719E-02  1.39754883E-01  3.39361717E-01
  4.50920624E-01  2.38585801E-01 -1.77653127E-02  2.74058196E-01  7.85421563E-01
  1.00000000E+00  0.00000000E+00  0.00000000E+00  0.00000000E+00  0.00000000E+00
  0.00000000E+00  0.00000000E+00  0.00000000E+00  7.08742682E-02  3.39752839E-01
  7.27158577E-01  1.00000000E+00  0.00000000E+00  0.00000000E+00  0.00000000E+00
  0.00000000E+00  0.00000000E+00  0.00000000E+00  0.00000000E+00  7.08742682E-02
  3.39752839E-01  7.27158577E-01  1.00000000E+00  0.00000000E+00  0.00000000E+00
  0.00000000E+00  0.00000000E+00  0.00000000E+00  0.00000000E+00  0.00000000E+00
  7.08742682E-02  3.39752839E-01  7.27158577E-01  1.00000000E+00  0.00000000E+00
  0.00000000E+00  0.00000000E+00  0.00000000E+00  0.00000000E+00  0.00000000E+00
  0.00000000E+00  7.08742682E-02  3.39752839E-01  7.27158577E-01  1.00000000E+00
  0.00000000E+00  0.00000000E+00  0.00000000E+00  0.00000000E+00  0.00000000E+00
  0.00000000E+00  0.00000000E+00  6.89990666E-02  3.16423961E-01  7.44308291E-01
  1.00000000E+00  0.00000000E+00  0.00000000E+00  0.00000000E+00  0.00000000E+00
  0.00000000E+00  0.00000000E+00  0.00000000E+00  0.00000000E+00  0.00000000E+00
  0.00000000E+00  0.00000000E+00  0.00000000E+00  0.00000000E+00
Coordinates of each shell                  R   N=          93
 -1.03720436E+00 -1.35476997E-01  5.29047208E-06 -1.03720436E+00 -1.35476997E-01
  5.29047208E-06 -1.03720436E+00 -1.35476997E-01  5.29047208E-06 -1.03720436E+00
 -1.35476997E-01  5.29047208E-06 -1.03720436E+00 -1.35476997E-01  5.29047208E-06
  1.84500060E+00  1.66626088E+00 -5.49919163E-05  1.84500060E+00  1.66626088E+00
 -5.49919163E-05  1.84500060E+00  1.66626088E+00 -5.49919163E-05  1.84500060E+00
  1.66626088E+00 -5.49919163E-05 -2.98620784E+00  2.01189812E+00  2.51990797E-06
 -2.98620784E+00  2.01189812E+00  2.51990797E-06 -2.98620784E+00  2.01189812E+00
  2.51990797E-06 -2.98620784E+00  2.01189812E+00  2.51990797E-06 -7.95679817E-01
 -1.67903565E+00  2.46003322E+00 -7.95679817E-01 -1.67903565E+00  2.46003322E+00
 -7.95679817E-01 -1.67903565E+00  2.46003322E+00 -7.95679817E-01 -1.67903565E+00
  2.46003322E+00 -7.95747911E-01 -1.67910002E+00 -2.45998922E+00 -7.95747911E-01
 -1.67910002E+00 -2.45998922E+00 -7.95747911E-01 -1.67910002E+00 -2.45998922E+00
 -7.95747911E-01 -1.67910002E+00 -2.45998922E+00  3.95234026E+00  8.82844454E-02
 -4.93760986E-06  3.95234026E+00  8.82844454E-02 -4.93760986E-06  3.95234026E+00
  8.82844454E-02 -4.93760986E-06  3.95234026E+00  8.82844454E-02 -4.93760986E-06
  3.99999221E+00 -1.15100482E+00  1.67607289E+00  3.99999221E+00 -1.15100482E+00
  1.67607289E+00  5.70521365E+00  1.24448553E+00 -1.28643060E-04  5.70521365E+00
  1.24448553E+00 -1.28643060E-04  3.99989775E+00 -1.15121908E+00 -1.67592617E+00
  3.99989775E+00 -1.15121908E+00 -1.67592617E+00
Constraint Structure                       R   N=          27
 -1.03720436E+00 -1.35476997E-01  5.29047208E-06  1.84500060E+00  1.66626088E+00
 -5.49919163E-05 -2.98620784E+00  2.01189812E+00  2.51990797E-06 -7.95679817E-01
 -1.67903565E+00  2.46003322E+00 -7.95747911E-01 -1.67910002E+00 -2.45998922E+00
  3.95234026E+00  8.82844454E-02 -4.93760986E-06  3.99999221E+00 -1.15100482E+00
  1.67607289E+00  5.70521365E+00  1.24448553E+00 -1.28643060E-04  3.99989775E+00
 -1.15121908E+00 -1.67592617E+00
Num ILSW                                   I              100
ILSW                                       I   N=         100
           0           1           0           0           2           0
           0           0           0           0           0          -1
           0           0           0           0           0           0
           0           0           0           0           1           0
           1           0           0           0           0           0
           0           0      100000           0          -1           0
           0           0           0           0           0           0
           0           0           0           1           1           0
           0           0           1           0           0           0
           0           0           4          40           0           0
           0           0           0           0           0           0
           0           0           0           0           0           0
           0           0           0           0           0           0
           0           0           0           0           0           0
           0           0           0           0           0           0
           0           0           0           0           0           0
           0           0           0           0
Num RLSW                                   I               40
RLSW                                       R   N=          40
  1.00000000E+00  1.00000000E+00  1.00000000E+00  1.00000000E+00  1.00000000E+00
  0.00000000E+00  0.00000000E+00  1.00000000E+00  0.00000000E+00  0.00000000E+00
  0.00000000E+00  0.00000000E+00  1.00000000E+00  0.00000000E+00  0.00000000E+00
  0.00000000E+00  0.00000000E+00  1.00000000E+00  0.00000000E+00  0.00000000E+00
  0.00000000E+00  0.00000000E+00  1.00000000E+00  0.00000000E+00  0.00000000E+00
  0.00000000E+00  0.00000000E+00  1.00000000E+00  0.00000000E+00  0.00000000E+00
  0.00000000E+00  0.00000000E+00  0.00000000E+00  0.00000000E+00  0.00000000E+00
  0.00000000E+00  0.00000000E+00  0.00000000E+00  1.00000000E+00  1.00000000E+00
MxBond                                     I                4
NBond                                      I   N=           9
           4           2           1           1           1           4
           1           1           1
IBond                                      I   N=          36
           2           3           4           5           1           6
           0           0           1           0           0           0
           1           0           0           0           1           0
           0           0           2           7           8           9
           6           0           0           0           6           0
           0           0           6           0           0           0
RBond                                      R   N=          36
  1.00000000E+00  2.00000000E+00  2.00000000E+00  2.00000000E+00  1.00000000E+00
  1.00000000E+00  0.00000000E+00  0.00000000E+00  2.00000000E+00  0.00000000E+00
  0.00000000E+00  0.00000000E+00  2.00000000E+00  0.00000000E+00  0.00000000E+00
  0.00000000E+00  2.00000000E+00  0.00000000E+00  0.00000000E+00  0.00000000E+00
  1.00000000E+00  1.00000000E+00  1.00000000E+00  1.00000000E+00  1.00000000E+00
  0.00000000E+00  0.00000000E+00  0.00000000E+00  1.00000000E+00  0.00000000E+00
  0.00000000E+00  0.00000000E+00  1.00000000E+00  0.00000000E+00  0.00000000E+00
  0.00000000E+00
Virial Ratio                               R      2.002061968596345E+00
SCF Energy                                 R     -6.797284980942596E+02
MP2 Energy                                 R     -6.807025979602435E+02
Total Energy                               R     -6.807025979602435E+02
Post-SCF wavefunction norm                 R      1.605647408427951E+00
RMS Force                                  R      1.867936222695032E-06
RMS Density                                R      2.007682236610482E-09
External E-field                           R   N=          35
  0.00000000E+00  0.00000000E+00  0.00000000E+00  0.00000000E+00  0.00000000E+00
  0.00000000E+00  0.00000000E+00  0.00000000E+00  0.00000000E+00  0.00000000E+00
  0.00000000E+00  0.00000000E+00  0.00000000E+00  0.00000000E+00  0.00000000E+00
  0.00000000E+00  0.00000000E+00  0.00000000E+00  0.00000000E+00  0.00000000E+00
  0.00000000E+00  0.00000000E+00  0.00000000E+00  0.00000000E+00  0.00000000E+00
  0.00000000E+00  0.00000000E+00  0.00000000E+00  0.00000000E+00  0.00000000E+00
  0.00000000E+00  0.00000000E+00  0.00000000E+00  0.00000000E+00  0.00000000E+00
IOpCl                                      I                0
IROHF                                      I                0
Alpha Orbital Energies                     R   N=         100
 -7.96415413E+01 -2.01768963E+01 -2.00781903E+01 -2.00781729E+01 -2.00775629E+01
 -1.09482701E+01 -7.15990122E+00 -5.05957485E+00 -5.05741337E+00 -5.05721333E+00
 -9.74577822E-01 -8.82562426E-01 -8.13800918E-01 -8.12375888E-01 -5.77273091E-01
 -3.33486433E-01 -2.79685787E-01 -2.65297799E-01 -2.27787638E-01 -1.54008450E-01
 -1.47107374E-01 -1.31831866E-01 -7.42464754E-02 -4.88272605E-02 -4.63671860E-02
 -4.16472710E-02 -1.14010453E-02 -6.92867352E-03  2.26176016E-02  5.59287349E-01
  6.14066857E-01  6.44711857E-01  6.51919741E-01  6.85914387E-01  7.63819323E-01
  7.67686764E-01  7.87316932E-01  9.08293453E-01  9.41598743E-01  1.02904569E+00
  1.03080436E+00  1.10237899E+00  1.13017879E+00  1.19232536E+00  1.34208684E+00
  1.37596377E+00  1.41091321E+00  1.42191948E+00  1.45898225E+00  1.48552717E+00
  1.49568955E+00  1.51871245E+00  1.59701679E+00  1.64430913E+00  1.66748730E+00
  1.71942950E+00  1.73766443E+00  1.74399810E+00  1.77310147E+00  1.79604532E+00
  1.80127286E+00  1.85919529E+00  1.91978038E+00  1.95181500E+00  1.95865143E+00
  2.04627225E+00  2.06127660E+00  2.14563479E+00  2.18344059E+00  2.24462647E+00
  2.31959341E+00  2.47702779E+00  2.52074168E+00  2.55095014E+00  2.56093099E+00
  2.56463011E+00  2.56715289E+00  2.57413558E+00  2.60231942E+00  2.68823720E+00
  2.77891831E+00  2.79255447E+00  2.81565845E+00  2.85905633E+00  2.86214374E+00
  3.02985342E+00  3.05666758E+00  3.05828399E+00  3.11886340E+00  3.15687020E+00
  3.45239386E+00  3.53157839E+00  3.59303269E+00  3.60952396E+00  4.31889140E+00
  4.54225503E+00  4.57958397E+00  4.73256529E+00  4.81174434E+00  4.99226161E+00
Alpha MO coefficients                      R   N=       10000
  9.96431348E-01  1.34993849E-02  4.03121552E-05  2.05340867E-05 -7.78135631E-10
 -2.18431618E-02 -4.95259563E-05 -2.65924760E-05  1.59875648E-09  1.86574902E-03
  1.11069947E-05 -1.23257462E-04  2.60979106E-09  7.44500120E-03  7.43816975E-03
  7.43246060E-03  3.32390702E-05 -1.06673020E-09 -1.07590376E-09 -2.77723321E-05
 -9.34838931E-05 -1.05307806E-06  2.28360630E-05 -7.52603570E-10  7.39468442E-04
 -2.70845992E-04 -2.88662045E-04  9.14813764E-09 -9.86291961E-05 -8.86710886E-05
 -9.88047577E-05 -5.73005053E-05  1.88588039E-09 -2.30958423E-10 -1.62512105E-05
 -1.24841629E-04 -9.57204150E-05  1.06709535E-04 -9.07053102E-11  8.83935984E-04
  3.57295916E-04 -3.75517444E-04 -3.71731136E-11 -1.06162668E-04 -1.29494377E-04
 -4.65343236E-05  8.00937774E-05 -1.84853598E-10  2.22972261E-10 -5.96744371E-06
 -8.30211281E-05  1.12116296E-05 -7.49355003E-05  1.10600343E-04  6.78937785E-04
 -3.12081837E-05  2.76466078E-04 -3.89474969E-04 -1.40484401E-05 -5.30174932E-05
 -1.24391005E-04  9.00600234E-06 -1.66971251E-05  7.22967055E-05 -5.96785536E-06
 -8.30225768E-05  1.12082146E-05 -7.49383552E-05 -1.10599217E-04  6.78944327E-04
 -3.11964834E-05  2.76476853E-04  3.89470994E-04 -1.40489022E-05 -5.30222415E-05
 -1.24389669E-04  9.00432416E-06  1.66936461E-05 -7.22987516E-05 -1.73837108E-05
 -8.09495455E-05  5.07065475E-05  5.07441035E-06 -1.64973083E-09  1.84920163E-04
  5.64165818E-05 -1.06647721E-04  8.04911451E-09 -2.92423543E-05 -8.91196193E-06
 -4.41570560E-05  2.50547038E-05 -2.70935778E-10 -1.79182506E-10  4.39603922E-06
 -1.78956676E-04 -2.35319308E-05  2.47436048E-05  4.39246507E-06 -1.78953659E-04
  4.44114549E-06 -6.11970613E-06 -6.04555992E-05 -3.36266701E-05  8.87083903E-10
 -4.91264198E-05  2.02280878E-04  1.19743805E-04 -1.56916228E-09 -7.64089066E-04
 -2.33975872E-04 -3.48790567E-04  1.32236137E-08  2.40984446E-04  6.12164072E-05
  9.06042606E-06  1.17286003E-04 -3.72569024E-09 -2.14226193E-09  9.94660650E-01
  2.10465637E-02  4.62810881E-04 -1.03178140E-03  3.38145101E-08  4.15351244E-03
 -4.57243871E-04  5.53440234E-04 -1.81653870E-08 -4.19582410E-03 -4.09188443E-03
 -3.88756702E-03  1.07109090E-04 -3.41650567E-09  8.02584295E-09 -6.67178392E-05
 -4.56249774E-05  1.39403141E-05 -1.03913143E-06  7.49184535E-11  3.37120082E-04
  1.80035583E-06 -3.98252916E-05 -1.08012591E-09 -7.53562477E-05 -1.80700488E-05
  1.53662232E-06 -1.16800405E-05  1.14085518E-09  6.53421335E-10 -7.83119098E-05
 -3.77992004E-05 -7.89533145E-06 -1.99976917E-05 -3.93846466E-06  2.22268341E-04
 -1.52076904E-06  8.93293603E-05 -2.66598499E-05 -4.13997618E-05 -2.58369601E-05
 -1.89588529E-05 -2.56127510E-05  1.37327534E-05  6.46947696E-07 -7.83118598E-05
 -3.78024484E-05 -7.89545139E-06 -1.99974480E-05  3.93915143E-06  2.22284254E-04
 -1.51865523E-06  8.93321969E-05  2.66597667E-05 -4.14028037E-05 -2.58392918E-05
 -1.89605989E-05 -2.56131727E-05 -1.37308943E-05 -6.45400314E-07 -2.03247843E-05
  3.13989295E-04 -3.06824153E-04  2.49634430E-04 -7.69237305E-09  3.14034231E-04
 -8.17779860E-05 -1.43113212E-04  4.81785764E-09 -2.85034952E-05 -5.43741819E-05
 -6.20148977E-05 -3.52589087E-05  2.05056081E-09  8.85328942E-10 -5.61415852E-05
 -7.64418952E-05 -1.35072869E-05 -2.71609178E-05 -5.61436150E-05 -7.64435436E-05
  3.50094738E-08 -1.27460264E-07 -1.22184741E-08  3.77438007E-08 -4.47005932E-05
  1.23727040E-06  1.08316808E-07 -3.95316783E-07  4.62071051E-04 -8.64050880E-07
 -2.14506388E-07  4.02713942E-07 -4.30916161E-04 -3.07921754E-07 -2.51500760E-07
 -9.67359830E-08  6.46330802E-09  2.33909636E-05 -1.27713839E-04  1.38956231E-07
  4.16554138E-09  1.26717489E-08  8.33708003E-09 -1.27802714E-05  4.24680924E-08
 -1.54273980E-08  2.82114998E-08  1.56847006E-05  2.53994829E-09 -2.92021411E-08
 -9.88939096E-09 -1.82280782E-08  1.25181107E-05  2.40886988E-05 -2.67625254E-05
 -5.29670794E-07 -1.18592173E-08  2.46610134E-08 -2.34034350E-05 -2.07711731E-07
  1.57525054E-08 -1.28749990E-08  4.55863025E-05  1.51531604E-07  1.19728370E-07
  1.14162562E-07  2.38972739E-09 -1.17809863E-05  2.62525145E-05  7.04343804E-01
  1.47801685E-02 -5.11603760E-05  3.59750743E-04 -6.02245683E-04  2.96847812E-03
  2.48725672E-05 -1.32226911E-04  2.53996562E-04 -2.81993515E-03 -2.84049896E-03
 -2.86433779E-03  1.00804116E-06 -1.19436444E-05  6.38145720E-05 -7.02350002E-01
 -1.47383234E-02  5.09824439E-05 -3.58690393E-04 -6.00578545E-04 -2.95995731E-03
 -2.47295287E-05  1.31773233E-04  2.53394114E-04  2.81197168E-03  2.83249737E-03
  2.85614075E-03 -1.00188252E-06 -1.19087451E-05  6.36884332E-05 -7.15573792E-09
 -3.66483012E-08 -5.27727355E-09  9.57205726E-09 -1.05631315E-05  2.58957995E-07
 -6.16304388E-08 -8.04066810E-08  6.50077657E-05 -9.97637653E-09 -1.31096204E-08
 -9.26713962E-09  6.71167910E-09  1.63638508E-06 -7.54313553E-08  1.58790570E-05
 -8.22146588E-05 -6.68620332E-09  2.14954312E-08 -1.58702940E-05  8.20380604E-05
  2.46865409E-05 -8.97887426E-05 -8.25426189E-06  2.69772439E-05  6.30922949E-08
  8.72246846E-04  7.26076553E-05 -2.82764709E-04 -6.51654402E-07 -6.09184161E-04
 -1.47136734E-04  2.87782486E-04  6.10013919E-07 -2.17090610E-04 -1.75050327E-04
 -6.94356538E-05  5.91414166E-06 -3.08980219E-08  1.82402275E-07  9.77676131E-05
  3.80672819E-06  8.86016215E-06  5.51804841E-06  1.82274829E-08  2.57362403E-05
 -1.07564761E-05  2.23733700E-05 -2.45863755E-08  2.41957195E-06 -2.06796529E-05
 -5.53097953E-06 -1.29738590E-05 -1.78141361E-08 -3.33489040E-08 -1.94324247E-02
 -3.85335633E-04 -8.53461255E-06  1.80340882E-05  3.31038150E-08 -1.48370361E-04
  1.08299883E-05 -9.63970347E-06 -6.48605641E-08  1.09210332E-04  8.61766122E-05
  8.28741719E-05  1.54466239E-06  1.62648253E-08 -3.72888399E-08  7.02216360E-01
  1.47377660E-02 -5.64086923E-05  3.78921954E-04 -5.84523244E-04  3.00057542E-03
  4.76423378E-05 -1.62270529E-04  2.11277230E-04 -2.80449042E-03 -2.81898836E-03
 -2.88607652E-03  1.56971821E-06 -1.17169765E-05  4.47564629E-05  7.04210519E-01
  1.47796108E-02 -5.65362908E-05  3.79955276E-04  5.86220336E-04  3.00898337E-03
  4.77065929E-05 -1.62649418E-04 -2.11992519E-04 -2.81247451E-03 -2.82703299E-03
 -2.89418488E-03  1.57153255E-06  1.17481520E-05 -4.49391847E-05 -5.26016367E-06
 -2.71647498E-05 -3.49326177E-06  8.27195574E-06  1.38744254E-08  1.88307797E-04
 -4.77795962E-05 -6.36867269E-05 -8.37210353E-08 -7.04597715E-06 -9.59563672E-06
 -6.34203595E-06  4.70382894E-06 -1.90507085E-09  3.84498103E-10  2.08084154E-06
 -6.45744524E-05 -4.78842698E-06  1.74130720E-05  2.12512365E-06 -6.47953219E-05
  1.77204436E-05 -7.63856200E-05  2.39700220E-05 -2.53195248E-05  1.48984893E-10
  6.18211529E-04 -2.69862408E-04  2.66518951E-04 -1.17346325E-09 -2.08355598E-04
  3.54912516E-04 -3.71384104E-04  6.77073752E-10 -1.10550995E-04 -8.69033660E-05
 -1.80771303E-04 -8.09868162E-05 -1.72266039E-10 -2.32875717E-10  5.29767368E-05
 -1.57297316E-05  8.65738018E-06  5.02121607E-06 -7.00093254E-10  1.11820564E-04
  2.23289898E-05 -1.47013848E-05  2.55576038E-09 -5.53916710E-05 -1.03700916E-05
 -1.82088895E-05  4.31915467E-06  7.36383092E-10 -5.94066385E-10  9.94491438E-01
  2.08712768E-02  6.67459284E-04 -7.55912024E-04  1.14938486E-09  4.25205691E-03
 -2.67879821E-04  2.97235112E-04 -4.45004919E-10 -4.04037944E-03 -4.05377403E-03
 -3.96604346E-03  7.07348525E-05  2.93078142E-10  4.49090503E-10  1.37556737E-02
  3.31404379E-04  1.25762477E-05 -4.80648392E-06 -2.44233240E-05 -1.26038664E-04
 -3.19797411E-05  2.17068275E-05  5.79343190E-05 -2.60373895E-05 -3.54978368E-05
 -2.13389029E-05  1.58492160E-05 -7.66455104E-06  4.60485798E-06  1.37567845E-02
  3.31428131E-04  1.25770061E-05 -4.80514653E-06  2.44241389E-05 -1.26035626E-04
 -3.19817706E-05  2.17041383E-05 -5.79352410E-05 -2.60411659E-05 -3.55023085E-05
 -2.13433946E-05  1.58491459E-05  7.66425258E-06 -4.60528743E-06  2.96018911E-06
  1.57595360E-05 -1.36965573E-05 -5.18749098E-06  8.42775416E-10 -7.30520474E-05
  1.22994398E-04  4.12234227E-05 -7.97363759E-09  1.73557557E-06  1.19661512E-05
  1.57365958E-06 -6.07679729E-06 -2.44056639E-10 -7.97697149E-10  1.71382413E-05
 -2.77514742E-05 -7.69018224E-06 -5.55603706E-05  1.71400748E-05 -2.77649549E-05
 -3.48660364E-06 -6.30153865E-05 -3.26523753E-05  7.81287514E-06  1.09859326E-09
 -3.38710176E-04  9.20098275E-05 -2.15113022E-05 -1.50959953E-08  9.02335212E-04
  8.04978556E-04 -3.97414831E-04  7.39453351E-10  1.93994081E-04 -7.70061865E-05
 -8.97844822E-05 -4.21862531E-05 -3.64534949E-09  5.31305018E-09 -1.55920115E-04
  1.20236234E-04  7.97315563E-05 -1.22126102E-04  3.46161660E-09  1.20743052E-03
  4.59818367E-05  2.26653200E-04 -1.40487970E-09 -4.49690106E-04 -2.27589590E-04
  4.12796832E-05  3.22608087E-04 -9.17838031E-09  9.16398399E-09 -1.32551511E-05
 -5.64000215E-05  4.52582824E-05  1.77830068E-05 -3.12427104E-10  3.47427866E-04
 -1.12323460E-04 -6.96984236E-05  7.85722073E-10 -3.86781667E-05 -4.08398396E-05
 -2.45345722E-05  1.06780583E-06  2.34745321E-11  3.13147425E-10  1.96556349E-05
  7.95944656E-05 -2.77884131E-06 -3.76526032E-05  7.79691942E-06 -5.01550794E-04
 -1.20238280E-04  1.25481362E-04  2.71740087E-05  5.40020715E-05  5.25780920E-05
  5.16082351E-05 -1.94905761E-06  9.87439598E-06 -4.73906513E-05  1.96609766E-05
  7.96161175E-05 -2.77058748E-06 -3.76524982E-05 -7.78930020E-06 -5.01631413E-04
 -1.20269108E-04  1.25472686E-04 -2.72071980E-05  5.40145912E-05  5.26008419E-05
  5.16220473E-05 -1.94900826E-06 -9.87987375E-06  4.73845670E-05  9.95821474E-01
  2.73113991E-02 -2.61875907E-04  3.31400368E-04 -1.03233375E-08 -1.23060990E-02
 -1.04580217E-04  5.25950879E-04 -2.99880195E-08 -1.57452158E-03 -1.63643784E-03
 -1.73490326E-03 -1.47113760E-04  5.33027080E-09 -3.17004846E-09  1.37927802E-04
  2.40841355E-03 -2.57754394E-05  2.27517684E-03  1.37932314E-04  2.40839570E-03
 -2.76188323E-01  1.03110709E+00  3.18815511E-03  1.79254203E-03 -6.36008682E-08
  1.51851516E-02  7.15433667E-04  3.85328831E-04 -1.04192705E-08 -2.61881273E-03
 -4.82563315E-04  2.92600746E-04 -2.71390493E-09 -2.93064755E-04 -6.16689045E-04
 -7.87011584E-04  2.56703896E-04 -9.22519971E-09 -6.31997387E-09 -1.01939696E-05
  4.54897515E-04 -2.15603794E-04 -2.03551023E-04  7.09568944E-09 -1.32077481E-03
  4.78439229E-04  6.65562694E-04 -2.33688055E-08  5.93868009E-05  1.35496564E-04
  2.75628676E-04 -3.44731932E-05  1.07124548E-09  5.27137358E-09 -2.18278328E-04
  5.68647244E-04  5.27688743E-04 -5.97344586E-04  5.79428677E-10 -1.16258679E-03
 -2.93831908E-04  3.38928960E-04  9.25667571E-10  3.56623115E-04  4.51344479E-04
  8.05857274E-05 -3.71335390E-04  8.22761688E-10 -9.48661954E-10 -2.45143636E-04
  4.00028985E-04 -7.01916507E-05  4.12643458E-04 -6.35933723E-04 -3.82299204E-04
  4.93325735E-05 -2.43770606E-04  2.40361432E-04 -3.03941321E-05  1.42667527E-04
  4.43685571E-04 -3.94204758E-05  6.88330013E-05 -3.18604080E-04 -2.45143463E-04
  4.00028591E-04 -7.01750735E-05  4.12659674E-04  6.35924758E-04 -3.82300125E-04
  4.93294563E-05 -2.43775468E-04 -2.40355086E-04 -3.03975351E-05  1.42681688E-04
  4.43674736E-04 -3.94127014E-05 -6.88167035E-05  3.18615004E-04  1.48320318E-05
 -2.88869789E-06 -7.01347924E-05  1.04901095E-05  4.95432474E-10  3.40726687E-05
 -4.82033331E-04  2.16657527E-05  1.00445618E-09  1.26427296E-04 -1.65233281E-05
  5.53359237E-05 -2.40286955E-05  1.59439194E-09  2.76912341E-09 -6.78135168E-05
  2.81107279E-04  5.26080057E-05  1.15295481E-04 -6.78117858E-05  2.81110985E-04
  1.10508986E-03 -4.24793337E-03  8.78441471E-01  4.66303159E-01 -1.88727066E-05
  2.47281532E-03  1.71591120E-02  9.14493462E-03 -3.66673562E-07 -3.79717696E-04