014_Cyclopentane Gaussian SP Calculation on node142.bme.utexas.edu      
Freq      RMP2-FC                                                     6-31G(d)            
Number of atoms                            I               15
Info1-9                                    I   N=           9
          26          25        1002           0           0         100
           6           2           1
Charge                                     I                0
Multiplicity                               I                1
Number of electrons                        I               40
Number of alpha electrons                  I               20
Number of beta electrons                   I               20
Number of basis functions                  I               95
Number of independent functions            I               95
Number of point charges in /Mol/           I                0
Number of translation vectors              I                0
Atomic numbers                             I   N=          15
           6           1           1           6           1           1
           6           1           1           6           1           1
           6           1           1
Nuclear charges                            R   N=          15
  6.00000000E+00  1.00000000E+00  1.00000000E+00  6.00000000E+00  1.00000000E+00
  1.00000000E+00  6.00000000E+00  1.00000000E+00  1.00000000E+00  6.00000000E+00
  1.00000000E+00  1.00000000E+00  6.00000000E+00  1.00000000E+00  1.00000000E+00
Current cartesian coordinates              R   N=          45
  1.93960522E+00  1.34851341E+00 -4.89085096E-01  2.12802995E+00  1.33950767E+00
 -2.55380486E+00  3.48259556E+00  2.49642085E+00  2.73797949E-01 -6.80587741E-01
  2.32285440E+00  2.73353064E-01 -1.29842360E+00  3.94154306E+00 -8.55814364E-01
 -6.26562476E-01  2.94762234E+00  2.24682639E+00 -2.45665684E+00  1.32128140E-02
  2.12431049E-04 -3.69174490E+00  2.05082246E-01 -1.64717592E+00 -3.69276107E+00
 -1.65462897E-01  1.64832479E+00 -7.05583359E-01 -2.31528560E+00 -2.73769600E-01
 -6.58055439E-01 -2.93970305E+00 -2.24752674E+00 -1.34093145E+00 -3.92772754E+00
  8.54620518E-01  1.92481363E+00 -1.36943306E+00  4.89286231E-01  3.45547135E+00
 -2.53394109E+00 -2.73283031E-01  2.11283659E+00 -1.36251336E+00  2.55405309E+00
Force Field                                I                0
Int Atom Types                             I   N=          15
           0           0           0           0           0           0
           0           0           0           0           0           0
           0           0           0
MM charges                                 R   N=          15
  0.00000000E+00  0.00000000E+00  0.00000000E+00  0.00000000E+00  0.00000000E+00
  0.00000000E+00  0.00000000E+00  0.00000000E+00  0.00000000E+00  0.00000000E+00
  0.00000000E+00  0.00000000E+00  0.00000000E+00  0.00000000E+00  0.00000000E+00
Integer atomic weights                     I   N=          15
          12           1           1          12           1           1
          12           1           1          12           1           1
          12           1           1
Real atomic weights                        R   N=          15
  1.20000000E+01  1.00782504E+00  1.00782504E+00  1.20000000E+01  1.00782504E+00
  1.00782504E+00  1.20000000E+01  1.00782504E+00  1.00782504E+00  1.20000000E+01
  1.00782504E+00  1.00782504E+00  1.20000000E+01  1.00782504E+00  1.00782504E+00
Atom fragment info                         I   N=          15
           0           0           0           0           0           0
           0           0           0           0           0           0
           0           0           0
Atom residue num                           I   N=          15
           0           0           0           0           0           0
           0           0           0           0           0           0
           0           0           0
Nuclear spins                              I   N=          15
           0           1           1           0           1           1
           0           1           1           0           1           1
           0           1           1
Nuclear ZEff                               R   N=          15
 -3.60000000E+00 -1.00000000E+00 -1.00000000E+00 -3.60000000E+00 -1.00000000E+00
 -1.00000000E+00 -3.60000000E+00 -1.00000000E+00 -1.00000000E+00 -3.60000000E+00
 -1.00000000E+00 -1.00000000E+00 -3.60000000E+00 -1.00000000E+00 -1.00000000E+00
Nuclear QMom                               R   N=          15
  0.00000000E+00  0.00000000E+00  0.00000000E+00  0.00000000E+00  0.00000000E+00
  0.00000000E+00  0.00000000E+00  0.00000000E+00  0.00000000E+00  0.00000000E+00
  0.00000000E+00  0.00000000E+00  0.00000000E+00  0.00000000E+00  0.00000000E+00
Nuclear GFac                               R   N=          15
  0.00000000E+00  2.79284600E+00  2.79284600E+00  0.00000000E+00  2.79284600E+00
  2.79284600E+00  0.00000000E+00  2.79284600E+00  2.79284600E+00  0.00000000E+00
  2.79284600E+00  2.79284600E+00  0.00000000E+00  2.79284600E+00  2.79284600E+00
MicOpt                                     I   N=          15
          -1          -1          -1          -1          -1          -1
          -1          -1          -1          -1          -1          -1
          -1          -1          -1
Number of contracted shells                I               40
Number of primitive shells                 I               95
Pure/Cartesian d shells                    I                1
Pure/Cartesian f shells                    I                0
Highest angular momentum                   I                2
Largest degree of contraction              I                6
Shell types                                I   N=          40
           0          -1          -1           2           0           0
           0           0           0          -1          -1           2
           0           0           0           0           0          -1
          -1           2           0           0           0           0
           0          -1          -1           2           0           0
           0           0           0          -1          -1           2
           0           0           0           0
Number of primitives per shell             I   N=          40
           6           3           1           1           3           1
           3           1           6           3           1           1
           3           1           3           1           6           3
           1           1           3           1           3           1
           6           3           1           1           3           1
           3           1           6           3           1           1
           3           1           3           1
Shell to atom map                          I   N=          40
           1           1           1           1           2           2
           3           3           4           4           4           4
           5           5           6           6           7           7
           7           7           8           8           9           9
          10          10          10          10          11          11
          12          12          13          13          13          13
          14          14          15          15
Primitive exponents                        R   N=          95
  3.04752488E+03  4.57369518E+02  1.03948685E+02  2.92101553E+01  9.28666296E+00
  3.16392696E+00  7.86827235E+00  1.88128854E+00  5.44249258E-01  1.68714478E-01
  8.00000000E-01  1.87311370E+01  2.82539436E+00  6.40121692E-01  1.61277759E-01
  1.87311370E+01  2.82539436E+00  6.40121692E-01  1.61277759E-01  3.04752488E+03
  4.57369518E+02  1.03948685E+02  2.92101553E+01  9.28666296E+00  3.16392696E+00
  7.86827235E+00  1.88128854E+00  5.44249258E-01  1.68714478E-01  8.00000000E-01
  1.87311370E+01  2.82539436E+00  6.40121692E-01  1.61277759E-01  1.87311370E+01
  2.82539436E+00  6.40121692E-01  1.61277759E-01  3.04752488E+03  4.57369518E+02
  1.03948685E+02  2.92101553E+01  9.28666296E+00  3.16392696E+00  7.86827235E+00
  1.88128854E+00  5.44249258E-01  1.68714478E-01  8.00000000E-01  1.87311370E+01
  2.82539436E+00  6.40121692E-01  1.61277759E-01  1.87311370E+01  2.82539436E+00
  6.40121692E-01  1.61277759E-01  3.04752488E+03  4.57369518E+02  1.03948685E+02
  2.92101553E+01  9.28666296E+00  3.16392696E+00  7.86827235E+00  1.88128854E+00
  5.44249258E-01  1.68714478E-01  8.00000000E-01  1.87311370E+01  2.82539436E+00
  6.40121692E-01  1.61277759E-01  1.87311370E+01  2.82539436E+00  6.40121692E-01
  1.61277759E-01  3.04752488E+03  4.57369518E+02  1.03948685E+02  2.92101553E+01
  9.28666296E+00  3.16392696E+00  7.86827235E+00  1.88128854E+00  5.44249258E-01
  1.68714478E-01  8.00000000E-01  1.87311370E+01  2.82539436E+00  6.40121692E-01
  1.61277759E-01  1.87311370E+01  2.82539436E+00  6.40121692E-01  1.61277759E-01
Contraction coefficients                   R   N=          95
  1.83473713E-03  1.40373228E-02  6.88426223E-02  2.32184443E-01  4.67941348E-01
  3.62311985E-01 -1.19332420E-01 -1.60854152E-01  1.14345644E+00  1.00000000E+00
  1.00000000E+00  3.34946043E-02  2.34726953E-01  8.13757326E-01  1.00000000E+00
  3.34946043E-02  2.34726953E-01  8.13757326E-01  1.00000000E+00  1.83473713E-03
  1.40373228E-02  6.88426223E-02  2.32184443E-01  4.67941348E-01  3.62311985E-01
 -1.19332420E-01 -1.60854152E-01  1.14345644E+00  1.00000000E+00  1.00000000E+00
  3.34946043E-02  2.34726953E-01  8.13757326E-01  1.00000000E+00  3.34946043E-02
  2.34726953E-01  8.13757326E-01  1.00000000E+00  1.83473713E-03  1.40373228E-02
  6.88426223E-02  2.32184443E-01  4.67941348E-01  3.62311985E-01 -1.19332420E-01
 -1.60854152E-01  1.14345644E+00  1.00000000E+00  1.00000000E+00  3.34946043E-02
  2.34726953E-01  8.13757326E-01  1.00000000E+00  3.34946043E-02  2.34726953E-01
  8.13757326E-01  1.00000000E+00  1.83473713E-03  1.40373228E-02  6.88426223E-02
  2.32184443E-01  4.67941348E-01  3.62311985E-01 -1.19332420E-01 -1.60854152E-01
  1.14345644E+00  1.00000000E+00  1.00000000E+00  3.34946043E-02  2.34726953E-01
  8.13757326E-01  1.00000000E+00  3.34946043E-02  2.34726953E-01  8.13757326E-01
  1.00000000E+00  1.83473713E-03  1.40373228E-02  6.88426223E-02  2.32184443E-01
  4.67941348E-01  3.62311985E-01 -1.19332420E-01 -1.60854152E-01  1.14345644E+00
  1.00000000E+00  1.00000000E+00  3.34946043E-02  2.34726953E-01  8.13757326E-01
  1.00000000E+00  3.34946043E-02  2.34726953E-01  8.13757326E-01  1.00000000E+00
P(S=P) Contraction coefficients            R   N=          95
  0.00000000E+00  0.00000000E+00  0.00000000E+00  0.00000000E+00  0.00000000E+00
  0.00000000E+00  6.89990666E-02  3.16423961E-01  7.44308291E-01  1.00000000E+00
  0.00000000E+00  0.00000000E+00  0.00000000E+00  0.00000000E+00  0.00000000E+00
  0.00000000E+00  0.00000000E+00  0.00000000E+00  0.00000000E+00  0.00000000E+00
  0.00000000E+00  0.00000000E+00  0.00000000E+00  0.00000000E+00  0.00000000E+00
  6.89990666E-02  3.16423961E-01  7.44308291E-01  1.00000000E+00  0.00000000E+00
  0.00000000E+00  0.00000000E+00  0.00000000E+00  0.00000000E+00  0.00000000E+00
  0.00000000E+00  0.00000000E+00  0.00000000E+00  0.00000000E+00  0.00000000E+00
  0.00000000E+00  0.00000000E+00  0.00000000E+00  0.00000000E+00  6.89990666E-02
  3.16423961E-01  7.44308291E-01  1.00000000E+00  0.00000000E+00  0.00000000E+00
  0.00000000E+00  0.00000000E+00  0.00000000E+00  0.00000000E+00  0.00000000E+00
  0.00000000E+00  0.00000000E+00  0.00000000E+00  0.00000000E+00  0.00000000E+00
  0.00000000E+00  0.00000000E+00  0.00000000E+00  6.89990666E-02  3.16423961E-01
  7.44308291E-01  1.00000000E+00  0.00000000E+00  0.00000000E+00  0.00000000E+00
  0.00000000E+00  0.00000000E+00  0.00000000E+00  0.00000000E+00  0.00000000E+00
  0.00000000E+00  0.00000000E+00  0.00000000E+00  0.00000000E+00  0.00000000E+00
  0.00000000E+00  0.00000000E+00  6.89990666E-02  3.16423961E-01  7.44308291E-01
  1.00000000E+00  0.00000000E+00  0.00000000E+00  0.00000000E+00  0.00000000E+00
  0.00000000E+00  0.00000000E+00  0.00000000E+00  0.00000000E+00  0.00000000E+00
Coordinates of each shell                  R   N=         120
  1.93960522E+00  1.34851341E+00 -4.89085096E-01  1.93960522E+00  1.34851341E+00
 -4.89085096E-01  1.93960522E+00  1.34851341E+00 -4.89085096E-01  1.93960522E+00
  1.34851341E+00 -4.89085096E-01  2.12802995E+00  1.33950767E+00 -2.55380486E+00
  2.12802995E+00  1.33950767E+00 -2.55380486E+00  3.48259556E+00  2.49642085E+00
  2.73797949E-01  3.48259556E+00  2.49642085E+00  2.73797949E-01 -6.80587741E-01
  2.32285440E+00  2.73353064E-01 -6.80587741E-01  2.32285440E+00  2.73353064E-01
 -6.80587741E-01  2.32285440E+00  2.73353064E-01 -6.80587741E-01  2.32285440E+00
  2.73353064E-01 -1.29842360E+00  3.94154306E+00 -8.55814364E-01 -1.29842360E+00
  3.94154306E+00 -8.55814364E-01 -6.26562476E-01  2.94762234E+00  2.24682639E+00
 -6.26562476E-01  2.94762234E+00  2.24682639E+00 -2.45665684E+00  1.32128140E-02
  2.12431049E-04 -2.45665684E+00  1.32128140E-02  2.12431049E-04 -2.45665684E+00
  1.32128140E-02  2.12431049E-04 -2.45665684E+00  1.32128140E-02  2.12431049E-04
 -3.69174490E+00  2.05082246E-01 -1.64717592E+00 -3.69174490E+00  2.05082246E-01
 -1.64717592E+00 -3.69276107E+00 -1.65462897E-01  1.64832479E+00 -3.69276107E+00
 -1.65462897E-01  1.64832479E+00 -7.05583359E-01 -2.31528560E+00 -2.73769600E-01
 -7.05583359E-01 -2.31528560E+00 -2.73769600E-01 -7.05583359E-01 -2.31528560E+00
 -2.73769600E-01 -7.05583359E-01 -2.31528560E+00 -2.73769600E-01 -6.58055439E-01
 -2.93970305E+00 -2.24752674E+00 -6.58055439E-01 -2.93970305E+00 -2.24752674E+00
 -1.34093145E+00 -3.92772754E+00  8.54620518E-01 -1.34093145E+00 -3.92772754E+00
  8.54620518E-01  1.92481363E+00 -1.36943306E+00  4.89286231E-01  1.92481363E+00
 -1.36943306E+00  4.89286231E-01  1.92481363E+00 -1.36943306E+00  4.89286231E-01
  1.92481363E+00 -1.36943306E+00  4.89286231E-01  3.45547135E+00 -2.53394109E+00
 -2.73283031E-01  3.45547135E+00 -2.53394109E+00 -2.73283031E-01  2.11283659E+00
 -1.36251336E+00  2.55405309E+00  2.11283659E+00 -1.36251336E+00  2.55405309E+00
Constraint Structure                       R   N=          45
  1.93960522E+00  1.34851341E+00 -4.89085096E-01  2.12802995E+00  1.33950767E+00
 -2.55380486E+00  3.48259556E+00  2.49642085E+00  2.73797949E-01 -6.80587741E-01
  2.32285440E+00  2.73353064E-01 -1.29842360E+00  3.94154306E+00 -8.55814364E-01
 -6.26562476E-01  2.94762234E+00  2.24682639E+00 -2.45665684E+00  1.32128140E-02
  2.12431049E-04 -3.69174490E+00  2.05082246E-01 -1.64717592E+00 -3.69276107E+00
 -1.65462897E-01  1.64832479E+00 -7.05583359E-01 -2.31528560E+00 -2.73769600E-01
 -6.58055439E-01 -2.93970305E+00 -2.24752674E+00 -1.34093145E+00 -3.92772754E+00
  8.54620518E-01  1.92481363E+00 -1.36943306E+00  4.89286231E-01  3.45547135E+00
 -2.53394109E+00 -2.73283031E-01  2.11283659E+00 -1.36251336E+00  2.55405309E+00
Num ILSW                                   I              100
ILSW                                       I   N=         100
           0           1           0           0           2           0
           0           0           0           0           0          -1
           0           0           0           0           0           0
           0           0           0           0           1           0
           1           0           0           0           0           0
           0           0      100000           0          -1           0
           0           0           0           0           0           0
           0           0           0           1           1           0
           0           0           1           0           0           0
           0           0           4          40           0           0
           0           0           0           0           0           0
           0           0           0           0           0           0
           0           0           0           0           0           0
           0           0           0           0           0           0
           0           0           0           0           0           0
           0           0           0           0           0           0
           0           0           0           0
Num RLSW                                   I               40
RLSW                                       R   N=          40
  1.00000000E+00  1.00000000E+00  1.00000000E+00  1.00000000E+00  1.00000000E+00
  0.00000000E+00  0.00000000E+00  1.00000000E+00  0.00000000E+00  0.00000000E+00
  0.00000000E+00  0.00000000E+00  1.00000000E+00  0.00000000E+00  0.00000000E+00
  0.00000000E+00  0.00000000E+00  1.00000000E+00  0.00000000E+00  0.00000000E+00
  0.00000000E+00  0.00000000E+00  1.00000000E+00  0.00000000E+00  0.00000000E+00
  0.00000000E+00  0.00000000E+00  1.00000000E+00  0.00000000E+00  0.00000000E+00
  0.00000000E+00  0.00000000E+00  0.00000000E+00  0.00000000E+00  0.00000000E+00
  0.00000000E+00  0.00000000E+00  0.00000000E+00  1.00000000E+00  1.00000000E+00
MxBond                                     I                4
NBond                                      I   N=          15
           4           1           1           4           1           1
           4           1           1           4           1           1
           4           1           1
IBond                                      I   N=          60
           2           3           4          13           1           0
           0           0           1           0           0           0
           1           5           6           7           4           0
           0           0           4           0           0           0
           4           8           9          10           7           0
           0           0           7           0           0           0
           7          11          12          13          10           0
           0           0          10           0           0           0
           1          10          14          15          13           0
           0           0          13           0           0           0
RBond                                      R   N=          60
  1.00000000E+00  1.00000000E+00  1.00000000E+00  1.00000000E+00  1.00000000E+00
  0.00000000E+00  0.00000000E+00  0.00000000E+00  1.00000000E+00  0.00000000E+00
  0.00000000E+00  0.00000000E+00  1.00000000E+00  1.00000000E+00  1.00000000E+00
  1.00000000E+00  1.00000000E+00  0.00000000E+00  0.00000000E+00  0.00000000E+00
  1.00000000E+00  0.00000000E+00  0.00000000E+00  0.00000000E+00  1.00000000E+00
  1.00000000E+00  1.00000000E+00  1.00000000E+00  1.00000000E+00  0.00000000E+00
  0.00000000E+00  0.00000000E+00  1.00000000E+00  0.00000000E+00  0.00000000E+00
  0.00000000E+00  1.00000000E+00  1.00000000E+00  1.00000000E+00  1.00000000E+00
  1.00000000E+00  0.00000000E+00  0.00000000E+00  0.00000000E+00  1.00000000E+00
  0.00000000E+00  0.00000000E+00  0.00000000E+00  1.00000000E+00  1.00000000E+00
  1.00000000E+00  1.00000000E+00  1.00000000E+00  0.00000000E+00  0.00000000E+00
  0.00000000E+00  1.00000000E+00  0.00000000E+00  0.00000000E+00  0.00000000E+00
Virial Ratio                               R      2.000932070944251E+00
SCF Energy                                 R     -1.951629101422302E+02
MP2 Energy                                 R     -1.958159902454092E+02
Total Energy                               R     -1.958159902454092E+02
Post-SCF wavefunction norm                 R      1.561516369576935E+00
RMS Force                                  R      5.010180274316370E-08
RMS Density                                R      6.203695056285611E-10
External E-field                           R   N=          35
  0.00000000E+00  0.00000000E+00  0.00000000E+00  0.00000000E+00  0.00000000E+00
  0.00000000E+00  0.00000000E+00  0.00000000E+00  0.00000000E+00  0.00000000E+00
  0.00000000E+00  0.00000000E+00  0.00000000E+00  0.00000000E+00  0.00000000E+00
  0.00000000E+00  0.00000000E+00  0.00000000E+00  0.00000000E+00  0.00000000E+00
  0.00000000E+00  0.00000000E+00  0.00000000E+00  0.00000000E+00  0.00000000E+00
  0.00000000E+00  0.00000000E+00  0.00000000E+00  0.00000000E+00  0.00000000E+00
  0.00000000E+00  0.00000000E+00  0.00000000E+00  0.00000000E+00  0.00000000E+00
IOpCl                                      I                0
IROHF                                      I                0
Alpha Orbital Energies                     R   N=          95
 -1.12131417E+01 -1.12127614E+01 -1.12126615E+01 -1.12121681E+01 -1.12118890E+01
 -1.11461392E+00 -9.55240768E-01 -9.54670915E-01 -7.74691046E-01 -7.65643834E-01
 -6.47383593E-01 -6.42786930E-01 -5.67832661E-01 -5.66120005E-01 -4.75063471E-01
 -4.73914078E-01 -4.62671117E-01 -4.58941794E-01 -4.58137452E-01 -4.47748132E-01
  2.22846573E-01  2.43720342E-01  2.93148283E-01  2.93515090E-01  3.18324911E-01
  3.32228607E-01  3.33000505E-01  3.43856112E-01  3.50130277E-01  3.65183971E-01
  3.75116247E-01  4.11258122E-01  4.20753696E-01  4.76200267E-01  5.06465143E-01
  7.17894556E-01  7.46063146E-01  7.49763031E-01  7.84213090E-01  7.91642165E-01
  7.98891428E-01  9.26551055E-01  9.41994423E-01  9.42744783E-01  9.47360197E-01
  9.50106713E-01  9.96597209E-01  1.06004454E+00  1.07944294E+00  1.13181729E+00
  1.14006880E+00  1.15495208E+00  1.16584670E+00  1.16882341E+00  1.20103186E+00
  1.21362783E+00  1.21522063E+00  1.23406149E+00  1.25126122E+00  1.25621594E+00
  1.43226829E+00  1.55834392E+00  1.59710120E+00  1.60619811E+00  1.82440538E+00
  1.91529828E+00  1.93870654E+00  2.09052166E+00  2.10305351E+00  2.13823512E+00
  2.16633158E+00  2.21402191E+00  2.29749444E+00  2.31966319E+00  2.34375348E+00
  2.37997238E+00  2.39484504E+00  2.41638242E+00  2.49759979E+00  2.57409328E+00
  2.58788557E+00  2.71973328E+00  2.73439423E+00  2.78502588E+00  2.88132909E+00
  2.89821828E+00  2.97546167E+00  2.97694968E+00  2.99630697E+00  3.20088321E+00
  4.58531969E+00  4.70595938E+00  4.70820008E+00  4.97936657E+00  5.05112615E+00
Alpha MO coefficients                      R   N=        9025
  2.55607602E-01  7.14696354E-03 -2.21197119E-05  7.16168895E-06  2.62815451E-05
 -1.19293177E-03 -7.72089712E-04 -1.37788615E-04 -7.53087807E-05 -6.13337463E-04
 -6.18647038E-04 -5.58323817E-04  1.39382486E-04  8.65071607E-05  6.04201618E-05
 -1.51020424E-04  5.52595379E-04 -6.86017872E-05  8.78876028E-04  4.81822157E-01
  1.37357604E-02  1.53040645E-05 -1.08159934E-04  1.55854026E-05 -4.77761771E-03
 -4.39299687E-04 -2.33411613E-04 -6.61798089E-05 -1.09869402E-03 -1.01746202E-03
 -8.70219358E-04 -1.40506279E-04  4.98247925E-05 -6.83557578E-05 -7.41908440E-05
  1.11856131E-03 -4.88309256E-05  1.21648434E-03  6.29902511E-01  1.78784813E-02
  1.37991325E-04 -7.14615565E-07  5.06229698E-08 -6.07985150E-03  4.33936522E-04
 -1.60641029E-06 -2.44496251E-07 -1.25598258E-03 -1.46806246E-03 -1.08996647E-03
 -1.45152297E-06 -2.35284873E-07 -5.62206856E-05 -7.78531238E-05  1.56517889E-03
 -7.78066321E-05  1.56545453E-03  4.81278328E-01  1.37202441E-02  1.64153089E-05
  1.07848306E-04 -1.55085391E-05 -4.77009954E-03 -4.36917111E-04  2.38501824E-04
  6.57792761E-05 -1.09503232E-03 -1.01908353E-03 -8.69437209E-04  1.41500937E-04
 -5.05215464E-05 -6.79109368E-05 -4.89315229E-05  1.21488788E-03 -7.41978312E-05
  1.11751019E-03  2.55428415E-01  7.14157070E-03 -2.20856832E-05 -6.95100651E-06
 -2.63066464E-05 -1.19040017E-03 -7.70585024E-04  1.47399284E-04  7.53902494E-05
 -6.15395720E-04 -6.15725686E-04 -5.58069930E-04 -1.39391896E-04 -8.58461953E-05
  6.13470717E-05 -6.85685791E-05  8.78886478E-04 -1.51122450E-04  5.52068137E-04
 -2.63040140E-01 -7.81264494E-03  1.29472456E-04  1.19510411E-05  2.20352431E-05
  3.80023957E-03  2.94068889E-04 -1.52104239E-03 -2.06811637E-04  6.53742638E-04
  4.47043834E-04  4.03333154E-04 -3.29229539E-05 -6.75756714E-05  2.49061741E-05
 -7.02288898E-05 -9.02671051E-04  1.05479485E-05 -2.83144205E-04 -6.53223836E-01
 -1.88220046E-02 -6.13997465E-05  1.60192746E-04 -4.39441049E-05  9.78640170E-03
 -2.91121493E-04 -6.67017764E-04  4.62629208E-04  1.18473277E-03  1.14136990E-03
  9.82339308E-04 -1.43166103E-05 -3.39120782E-05  3.56345487E-05 -3.80620984E-05
 -1.39545869E-03 -1.20078519E-04 -2.03160828E-03  7.28227905E-04  2.07440213E-05
 -3.47127187E-07 -8.21100296E-05 -4.86605879E-05 -1.16142182E-05 -1.09203719E-05
 -1.96550737E-03 -1.80706693E-04  1.01281260E-06 -3.40957741E-06 -1.08958824E-06
  2.32497947E-04  3.63818993E-05 -2.60920827E-07  9.85229911E-06  5.63817382E-05
 -9.63673502E-06 -5.22716628E-05  6.53245850E-01  1.88229867E-02  6.30391828E-05
  1.59751985E-04 -4.39901941E-05 -9.78301567E-03  2.81503669E-04 -6.69518244E-04
  4.62898591E-04 -1.18528390E-03 -1.14162561E-03 -9.82526218E-04 -1.34868903E-05
 -3.42751101E-05 -3.53360476E-05  1.20004058E-04  2.03180687E-03  3.78643411E-05
  1.39469104E-03  2.62777598E-01  7.80477451E-03 -1.29201703E-04  1.33133328E-05
  2.19637400E-05 -3.79611242E-03 -3.11442087E-04 -1.51777745E-03 -2.06334345E-04
 -6.53757058E-04 -4.45935931E-04 -4.03001875E-04 -3.03890296E-05 -6.78821384E-05
 -2.41948477E-05 -1.05521855E-05  2.83050356E-04  7.01159519E-05  9.01577007E-04
 -5.65089395E-01 -1.63547246E-02  1.51761067E-04  1.23415579E-04  3.79118050E-06
  7.20757566E-03 -8.29010183E-04  4.11491257E-04 -2.98583766E-04  1.05203941E-03
  1.16686985E-03  9.34837524E-04 -3.76335893E-05 -5.65592505E-05 -8.98319250E-05
 -5.47551614E-05 -1.65673382E-03  2.25424147E-05 -1.10583342E-03 -8.06668783E-02
 -2.12665334E-03 -7.87106572E-05 -2.67478725E-05  3.92094195E-05  9.54689706E-04
 -1.76058087E-03 -3.14253737E-04 -2.27485897E-05  2.28860643E-04 -2.55173720E-05
  1.61871013E-04 -1.18386123E-04 -6.52697845E-05  1.79167422E-05 -8.34145612E-06
 -4.25304724E-04  2.23348953E-05 -9.02656440E-05  5.82749074E-01  1.67959934E-02
  7.92359359E-05 -3.86006196E-07  9.95303913E-08 -1.04423989E-02 -6.54199956E-04
  4.71216612E-06 -3.14526037E-07 -9.64005296E-04 -8.92423073E-04 -8.00509889E-04
  2.94758944E-07 -2.27371977E-09  1.65505364E-06  1.36656335E-04  1.62568698E-03
  1.36744755E-04  1.62642340E-03 -8.14583752E-02 -2.14932007E-03 -7.85088244E-05
  2.74153082E-05 -3.91313237E-05  9.66143793E-04 -1.75748795E-03  3.33632597E-04
  2.24222130E-05  2.32415387E-04 -2.63288743E-05  1.63086158E-04  1.15140032E-04
  6.55488924E-05  1.72188242E-05  2.22201287E-05 -9.25934456E-05 -8.37329060E-06
 -4.27174121E-04 -5.65294302E-01 -1.63612000E-02  1.50562169E-04 -1.25072990E-04
 -3.79885940E-06  7.21142037E-03 -8.33592444E-04 -4.00290085E-04  2.98499465E-04
  1.05335540E-03  1.16652654E-03  9.35157651E-04  3.90670188E-05  5.56942248E-05
 -9.04169766E-05  2.25532648E-05 -1.10570081E-03 -5.48820303E-05 -1.65749374E-03
 -3.33572362E-01 -9.72180723E-03 -4.30703524E-05  2.15347952E-04  2.27586908E-05
  7.54561127E-03 -1.92772504E-03  4.61640296E-04  9.09745170E-05  3.49053872E-04
  5.50521721E-04  4.62135207E-04  5.12677092E-05  3.30345206E-05 -6.58615587E-05
 -1.93719698E-04 -1.01622762E-03 -7.92556245E-05 -6.27170231E-04  5.07351434E-01
  1.47182301E-02  1.00461551E-04 -9.03188315E-06  6.42207100E-05 -1.44060150E-02
 -5.30873605E-04  2.59917428E-03  2.43996457E-04 -4.81575011E-04 -5.27485890E-04
 -6.21226628E-04  5.01036556E-05 -5.28333578E-06  1.06453299E-05  2.59815523E-04
  1.12484550E-03  3.89893238E-04  1.53224234E-03 -5.05386521E-01 -1.44788789E-02
  4.96095250E-05 -2.11246390E-07 -5.61299042E-08  1.50251207E-02  2.63487979E-03
 -1.44797144E-05 -5.56117883E-07  4.73554959E-04  4.37414026E-04  6.33933733E-04
 -1.93265660E-07 -6.45674650E-08 -1.41912650E-05 -3.48848518E-04 -1.37880033E-03
 -3.48905718E-04 -1.37885538E-03  5.07470089E-01  1.47219286E-02  1.00768802E-04
  8.14063069E-06 -6.42577940E-05 -1.44045218E-02 -5.57409983E-04 -2.59345587E-03
 -2.43696617E-04 -4.82989565E-04 -5.26890841E-04 -6.21455669E-04 -5.07558755E-05
  5.32326092E-06  1.06014561E-05  3.89905304E-04  1.53285163E-03  2.59580425E-04
  1.12453442E-03 -3.32843324E-01 -9.70046567E-03 -4.56225403E-05 -2.14870223E-04
 -2.26672490E-05  7.52742759E-03 -1.93058066E-03 -4.43892902E-04 -9.09330760E-05
  3.47099289E-04  5.50670661E-04  4.61192331E-04 -4.87168513E-05 -3.38030223E-05
 -6.55685675E-05 -7.90321620E-05 -6.25899906E-04 -1.93200057E-04 -1.01389005E-03
 -6.53197708E-01 -1.85510639E-02  9.28902584E-05  2.23432083E-06  2.72873373E-05
  1.48829807E-02 -1.07998223E-03 -1.46907784E-03  7.12606260E-04  8.16969251E-04
  7.16176388E-04  9.13141199E-04 -4.79182157E-05  2.43601593E-05  6.10617315E-05
 -3.06378552E-04 -1.77273275E-03 -2.25293256E-04 -1.72128657E-03  2.62766134E-01
  7.28081129E-03 -1.07864799E-04  9.78764770E-07 -2.07366818E-05 -6.77601024E-03
 -1.06808914E-03  3.86927766E-04  6.64985993E-04 -1.80143019E-04 -2.71983733E-04
 -3.64792168E-04 -1.33060794E-04 -4.59931559E-05 -5.37841217E-06  1.43509662E-04
  9.92567710E-04  1.15238437E-04  4.92031413E-04  1.66562990E-04  4.49348443E-06
  5.86419383E-07  1.16743057E-04 -6.20873866E-05 -4.02927022E-06  2.71513277E-06
  5.48861141E-04  4.07226377E-04 -1.28643073E-06  1.01996675E-06 -2.50788879E-07
 -1.27856623E-04  3.07619139E-05 -1.31923116E-07  1.10837789E-05  2.68514725E-04
 -1.09510192E-05 -2.67536197E-04 -2.63234359E-01 -7.29409273E-03  1.07816588E-04
 -2.28424488E-07 -2.06353098E-05  6.78660518E-03  1.07288716E-03  3.76274174E-04
  6.65241661E-04  1.78227232E-04  2.74985766E-04  3.65436757E-04 -1.31864099E-04
 -4.60076124E-05  5.80193789E-06 -1.15462276E-04 -4.93529897E-04 -1.43665869E-04
 -9.93624574E-04  6.53567920E-01  1.85618018E-02 -9.29115618E-05  3.40367062E-06
  2.72939750E-05 -1.48900520E-02  1.06546746E-03 -1.48021789E-03  7.12723394E-04
 -8.18272042E-04 -7.15988584E-04 -9.13680532E-04 -4.65942726E-05  2.37723652E-05
 -6.12836406E-05  2.25345081E-04  1.72194759E-03  3.06537610E-04  1.77390863E-03
 -9.73806316E-02  1.78359360E-01 -4.36534923E-02 -3.23555535E-02  1.96826423E-02
  1.38164266E-01 -8.17055498E-03 -5.42842697E-03  2.03318089E-03  6.00457721E-03