
    -----------------------------------------------------------------------
          Psi4: An Open-Source Ab Initio Electronic Structure Package
                               Psi4 1.4a3.dev225 

                         Git: Rev {master} 7105e37 


    D. G. A. Smith, L. A. Burns, A. C. Simmonett, R. M. Parrish,
    M. C. Schieber, R. Galvelis, P. Kraus, H. Kruse, R. Di Remigio,
    A. Alenaizan, A. M. James, S. Lehtola, J. P. Misiewicz, M. Scheurer,
    R. A. Shaw, J. B. Schriber, Y. Xie, Z. L. Glick, D. A. Sirianni,
    J. S. O'Brien, J. M. Waldrop, A. Kumar, E. G. Hohenstein,
    B. P. Pritchard, B. R. Brooks, H. F. Schaefer III, A. Yu. Sokolov,
    K. Patkowski, A. E. DePrince III, U. Bozkaya, R. A. King,
    F. A. Evangelista, J. M. Turney, T. D. Crawford, C. D. Sherrill,
    J. Chem. Phys. 152(18) 184108 (2020). https://doi.org/10.1063/5.0006002

                            Additional Code Authors
    E. T. Seidl, C. L. Janssen, E. F. Valeev, M. L. Leininger,
    J. F. Gonthier, R. M. Richard, H. R. McAlexander, M. Saitow, X. Wang,
    P. Verma, and M. H. Lechner

             Previous Authors, Complete List of Code Contributors,
                       and Citations for Specific Modules
    https://github.com/psi4/psi4/blob/master/codemeta.json
    https://github.com/psi4/psi4/graphs/contributors
    http://psicode.org/psi4manual/master/introduction.html#citing-psifour

    -----------------------------------------------------------------------


    Psi4 started on: Sunday, 28 February 2021 06:29AM

    Process ID: 25937
    Host:       c403-114.stampede2.tacc.utexas.edu
    PSIDATADIR: /home1/07844/xy3866/miniconda3/envs/p4env/share/psi4
    Memory:     500.0 MiB
    Threads:    32
    
  ==> Input File <==

--------------------------------------------------------------------------
#psi4
#
memory 32 gb

molecule  {
0 1
  O       -2.0737200     1.2628680    -0.4915300
  O        2.0737210    -1.2628680    -0.4915300
  N       -2.9762380    -0.6534170     0.3462040
  N        2.9762380     0.6534180     0.3462030
  C       -0.5555480    -0.5175680     0.1381390
  C        0.5555480     0.5175670     0.1381410
  C       -1.9182850     0.1263550    -0.0446340
  C        1.9182850    -0.1263550    -0.0446340
  H       -0.3806750    -1.2252780    -0.6804370
  H       -0.5383610    -1.1077740     1.0609210
  H        0.3806750     1.2252800    -0.6804340
  H        0.5383600     1.1077700     1.0609240
  H       -2.8543230    -1.6451260     0.4957240
  H       -3.8970040    -0.3356840     0.0715640
  H        2.8543220     1.6451260     0.4957230
  H        3.8970030     0.3356850     0.0715640
units angstrom
no_reorient  #important for SAPT in psi4, default
symmetry c1  #important for SAPT in psi4, default
}

set PROPERTIES_ORIGIN ["COM"]
properties('MP2/aug-cc-pvtz', properties = ['dipole'])
--------------------------------------------------------------------------

  Memory set to  29.802 GiB by Python driver.
    SCF Algorithm Type (re)set to DF.

*** tstart() called on c403-114.stampede2.tacc.utexas.edu
*** at Sun Feb 28 06:29:38 2021

   => Loading Basis Set <=

    Name: AUG-CC-PVTZ
    Role: ORBITAL
    Keyword: BASIS
    atoms 1-2  entry O          line   331 file /home1/07844/xy3866/miniconda3/envs/p4env/share/psi4/basis/aug-cc-pvtz.gbs 
    atoms 3-4  entry N          line   285 file /home1/07844/xy3866/miniconda3/envs/p4env/share/psi4/basis/aug-cc-pvtz.gbs 
    atoms 5-8  entry C          line   239 file /home1/07844/xy3866/miniconda3/envs/p4env/share/psi4/basis/aug-cc-pvtz.gbs 
    atoms 9-16 entry H          line    40 file /home1/07844/xy3866/miniconda3/envs/p4env/share/psi4/basis/aug-cc-pvtz.gbs 


         ---------------------------------------------------------
                                   SCF
               by Justin Turney, Rob Parrish, Andy Simmonett
                          and Daniel G. A. Smith
                              RHF Reference
                       32 Threads,  30517 MiB Core
         ---------------------------------------------------------

  ==> Geometry <==

    Molecular point group: c1
    Full point group: C1

    Geometry (in Angstrom), charge = 0, multiplicity = 1:

       Center              X                  Y                   Z               Mass       
    ------------   -----------------  -----------------  -----------------  -----------------
         O           -2.073720111766     1.262867991425    -0.475386354162    15.994914619570
         O            2.073720888234    -1.262868008575    -0.475386354162    15.994914619570
         N           -2.976238111766    -0.653417008575     0.362347645838    14.003074004430
         N            2.976237888234     0.653417991425     0.362346645838    14.003074004430
         C           -0.555548111766    -0.517568008575     0.154282645838    12.000000000000
         C            0.555547888234     0.517566991425     0.154284645838    12.000000000000
         C           -1.918285111766     0.126354991425    -0.028490354162    12.000000000000
         C            1.918284888234    -0.126355008575    -0.028490354162    12.000000000000
         H           -0.380675111766    -1.225278008575    -0.664293354162     1.007825032230
         H           -0.538361111766    -1.107774008575     1.077064645838     1.007825032230
         H            0.380674888234     1.225279991425    -0.664290354162     1.007825032230
         H            0.538359888234     1.107769991425     1.077067645838     1.007825032230
         H           -2.854323111766    -1.645126008575     0.511867645838     1.007825032230
         H           -3.897004111766    -0.335684008575     0.087707645838     1.007825032230
         H            2.854321888234     1.645125991425     0.511866645838     1.007825032230
         H            3.897002888234     0.335684991425     0.087707645838     1.007825032230

  Running in c1 symmetry.

  Rotational constants: A =      0.17596  B =      0.03093  C =      0.02762 [cm^-1]
  Rotational constants: A =   5275.19176  B =    927.33324  C =    828.15539 [MHz]
  Nuclear repulsion =  365.802878322226832

  Charge       = 0
  Multiplicity = 1
  Electrons    = 62
  Nalpha       = 31
  Nbeta        = 31

  ==> Algorithm <==

  SCF Algorithm Type is DF.
  DIIS enabled.
  MOM disabled.
  Fractional occupation disabled.
  Guess Type is SAD.
  Energy threshold   = 1.00e-10
  Density threshold  = 1.00e-10
  Integral threshold = 1.00e-12

  ==> Primary Basis <==

  Basis Set: AUG-CC-PVTZ
    Blend: AUG-CC-PVTZ
    Number of shells: 184
    Number of basis functions: 552
    Number of Cartesian functions: 640
    Spherical Harmonics?: true
    Max angular momentum: 3

   => Loading Basis Set <=

    Name: (AUG-CC-PVTZ AUX)
    Role: JKFIT
    Keyword: DF_BASIS_SCF
    atoms 1-2  entry O          line   286 file /home1/07844/xy3866/miniconda3/envs/p4env/share/psi4/basis/aug-cc-pvtz-jkfit.gbs 
    atoms 3-4  entry N          line   224 file /home1/07844/xy3866/miniconda3/envs/p4env/share/psi4/basis/aug-cc-pvtz-jkfit.gbs 
    atoms 5-8  entry C          line   162 file /home1/07844/xy3866/miniconda3/envs/p4env/share/psi4/basis/aug-cc-pvtz-jkfit.gbs 
    atoms 9-16 entry H          line    70 file /home1/07844/xy3866/miniconda3/envs/p4env/share/psi4/basis/aug-cc-pvtz-jkfit.gbs 

  ==> Integral Setup <==

  DFHelper Memory: AOs need 2.580 GiB; user supplied 22.352 GiB. Using in-core AOs.

  ==> MemDFJK: Density-Fitted J/K Matrices <==

    J tasked:                   Yes
    K tasked:                   Yes
    wK tasked:                   No
    OpenMP threads:              32
    Memory [MiB]:             22888
    Algorithm:                 Core
    Schwarz Cutoff:           1E-12
    Mask sparsity (%):      10.5893
    Fitting Condition:        1E-10

   => Auxiliary Basis Set <=

  Basis Set: (AUG-CC-PVTZ AUX)
    Blend: AUG-CC-PVTZ-JKFIT
    Number of shells: 352
    Number of basis functions: 1200
    Number of Cartesian functions: 1488
    Spherical Harmonics?: true
    Max angular momentum: 4

  Minimum eigenvalue in the overlap matrix is 4.6022394831E-06.
  Reciprocal condition number of the overlap matrix is 2.5937023225E-07.
    Using symmetric orthogonalization.

  ==> Pre-Iterations <==

  SCF Guess: Superposition of Atomic Densities via on-the-fly atomic UHF (no occupation information).

   -------------------------
    Irrep   Nso     Nmo    
   -------------------------
     A        552     552 
   -------------------------
    Total     552     552
   -------------------------

  ==> Iterations <==

                           Total Energy        Delta E     RMS |[F,P]|

   @DF-RHF iter SAD:  -413.86355981503999   -4.13864e+02   0.00000e+00 
   @DF-RHF iter   1:  -414.64258708720206   -7.79027e-01   1.47662e-03 DIIS
   @DF-RHF iter   2:  -414.87765229168485   -2.35065e-01   8.69807e-04 DIIS
   @DF-RHF iter   3:  -414.95405155991801   -7.63993e-02   1.61523e-04 DIIS
   @DF-RHF iter   4:  -414.95861237910924   -4.56082e-03   7.00844e-05 DIIS
   @DF-RHF iter   5:  -414.95956700398244   -9.54625e-04   1.29562e-05 DIIS
   @DF-RHF iter   6:  -414.95963936566721   -7.23617e-05   6.15011e-06 DIIS
   @DF-RHF iter   7:  -414.95965107437036   -1.17087e-05   2.51415e-06 DIIS
   @DF-RHF iter   8:  -414.95965387349156   -2.79912e-06   8.59973e-07 DIIS
   @DF-RHF iter   9:  -414.95965422894415   -3.55453e-07   2.19197e-07 DIIS
   @DF-RHF iter  10:  -414.95965424993994   -2.09958e-08   7.34155e-08 DIIS
   @DF-RHF iter  11:  -414.95965425154287   -1.60293e-09   1.83108e-08 DIIS
   @DF-RHF iter  12:  -414.95965425166548   -1.22611e-10   4.55848e-09 DIIS
   @DF-RHF iter  13:  -414.95965425167418   -8.69704e-12   1.31766e-09 DIIS
   @DF-RHF iter  14:  -414.95965425167623   -2.04636e-12   5.52544e-10 DIIS
   @DF-RHF iter  15:  -414.95965425167606    1.70530e-13   2.50737e-10 DIIS
   @DF-RHF iter  16:  -414.95965425167606    0.00000e+00   9.13514e-11 DIIS
  Energy and wave function converged.


  ==> Post-Iterations <==

    Orbital Energies [Eh]
    ---------------------

    Doubly Occupied:                                                      

       1A    -20.526861     2A    -20.526861     3A    -15.590313  
       4A    -15.590313     5A    -11.359923     6A    -11.359921  
       7A    -11.247564     8A    -11.246924     9A     -1.381121  
      10A     -1.379024    11A     -1.214056    12A     -1.214013  
      13A     -1.075619    14A     -0.937778    15A     -0.806768  
      16A     -0.775881    17A     -0.723925    18A     -0.723839  
      19A     -0.681052    20A     -0.670518    21A     -0.637770  
      22A     -0.609523    23A     -0.582109    24A     -0.563670  
      25A     -0.551221    26A     -0.520266    27A     -0.499167  
      28A     -0.433575    29A     -0.433395    30A     -0.422561  
      31A     -0.419512  

    Virtual:                                                              

      32A      0.023477    33A      0.025498    34A      0.042310  
      35A      0.043033    36A      0.050262    37A      0.055170  
      38A      0.059997    39A      0.073329    40A      0.090775  
      41A      0.098723    42A      0.101108    43A      0.110019  
      44A      0.111921    45A      0.122113    46A      0.122325  
      47A      0.125084    48A      0.136844    49A      0.145366  
      50A      0.147445    51A      0.151342    52A      0.151840  
      53A      0.159568    54A      0.167379    55A      0.172756  
      56A      0.177847    57A      0.180533    58A      0.180645  
      59A      0.190817    60A      0.198609    61A      0.214107  
      62A      0.215146    63A      0.215449    64A      0.230495  
      65A      0.240809    66A      0.244211    67A      0.260770  
      68A      0.261130    69A      0.263547    70A      0.267015  
      71A      0.269777    72A      0.282611    73A      0.290715  
      74A      0.291080    75A      0.304801    76A      0.306693  
      77A      0.309800    78A      0.317152    79A      0.330314  
      80A      0.333072    81A      0.341949    82A      0.349915  
      83A      0.360611    84A      0.362082    85A      0.368220  
      86A      0.372408    87A      0.379533    88A      0.383593  
      89A      0.390709    90A      0.396338    91A      0.398916  
      92A      0.401368    93A      0.405686    94A      0.407283  
      95A      0.412051    96A      0.415067    97A      0.424930  
      98A      0.430587    99A      0.437565   100A      0.450238  
     101A      0.453925   102A      0.463494   103A      0.466419  
     104A      0.475692   105A      0.477031   106A      0.487860  
     107A      0.494484   108A      0.507653   109A      0.511379  
     110A      0.517221   111A      0.517844   112A      0.526627  
     113A      0.538341   114A      0.545064   115A      0.546651  
     116A      0.560444   117A      0.564956   118A      0.572192  
     119A      0.575740   120A      0.589763   121A      0.592376  
     122A      0.609307   123A      0.613660   124A      0.623235  
     125A      0.629217   126A      0.643044   127A      0.646990  
     128A      0.650104   129A      0.662323   130A      0.667119  
     131A      0.683931   132A      0.695899   133A      0.702972  
     134A      0.713368   135A      0.717793   136A      0.725580  
     137A      0.732252   138A      0.747116   139A      0.753814  
     140A      0.773985   141A      0.776111   142A      0.789595  
     143A      0.802005   144A      0.809157   145A      0.813883  
     146A      0.819632   147A      0.823161   148A      0.841175  
     149A      0.843244   150A      0.851492   151A      0.854233  
     152A      0.865904   153A      0.871326   154A      0.883438  
     155A      0.885398   156A      0.900626   157A      0.905190  
     158A      0.907277   159A      0.911424   160A      0.917339  
     161A      0.932754   162A      0.942625   163A      0.944888  
     164A      0.951438   165A      0.957818   166A      0.970852  
     167A      0.975285   168A      0.988783   169A      0.989466  
     170A      0.995765   171A      1.010355   172A      1.024492  
     173A      1.026785   174A      1.027614   175A      1.029440  
     176A      1.034652   177A      1.046682   178A      1.058895  
     179A      1.063435   180A      1.068195   181A      1.073089  
     182A      1.077119   183A      1.090330   184A      1.090968  
     185A      1.093075   186A      1.110545   187A      1.120333  
     188A      1.124362   189A      1.125452   190A      1.134737  
     191A      1.142926   192A      1.146216   193A      1.157883  
     194A      1.159175   195A      1.170577   196A      1.175852  
     197A      1.183167   198A      1.191069   199A      1.209318  
     200A      1.215596   201A      1.219437   202A      1.245769  
     203A      1.246030   204A      1.252410   205A      1.254687  
     206A      1.271677   207A      1.276506   208A      1.285783  
     209A      1.291556   210A      1.303006   211A      1.312830  
     212A      1.315939   213A      1.318537   214A      1.334501  
     215A      1.356404   216A      1.363723   217A      1.365182  
     218A      1.382154   219A      1.386220   220A      1.406619  
     221A      1.418185   222A      1.427060   223A      1.430160  
     224A      1.444700   225A      1.451723   226A      1.455229  
     227A      1.477429   228A      1.478559   229A      1.484963  
     230A      1.488224   231A      1.504971   232A      1.519298  
     233A      1.523542   234A      1.554424   235A      1.567693  
     236A      1.568167   237A      1.580630   238A      1.598256  
     239A      1.598482   240A      1.601738   241A      1.628284  
     242A      1.630542   243A      1.630953   244A      1.649366  
     245A      1.656764   246A      1.659620   247A      1.665510  
     248A      1.687907   249A      1.691779   250A      1.702052  
     251A      1.708150   252A      1.730517   253A      1.750209  
     254A      1.764374   255A      1.770586   256A      1.783929  
     257A      1.786400   258A      1.790338   259A      1.803820  
     260A      1.819234   261A      1.847883   262A      1.849977  
     263A      1.861783   264A      1.874637   265A      1.883401  
     266A      1.903144   267A      1.906613   268A      1.924495  
     269A      1.939895   270A      1.943942   271A      1.954202  
     272A      1.959340   273A      1.976703   274A      2.004936  
     275A      2.007814   276A      2.008909   277A      2.036773  
     278A      2.062073   279A      2.082103   280A      2.086308  
     281A      2.087152   282A      2.110517   283A      2.115326  
     284A      2.124249   285A      2.165635   286A      2.169758  
     287A      2.176953   288A      2.186869   289A      2.198292  
     290A      2.203746   291A      2.219450   292A      2.230614  
     293A      2.260480   294A      2.281187   295A      2.283909  
     296A      2.290063   297A      2.321750   298A      2.330274  
     299A      2.335886   300A      2.346653   301A      2.351948  
     302A      2.396629   303A      2.397978   304A      2.404875  
     305A      2.411743   306A      2.431298   307A      2.448507  
     308A      2.465886   309A      2.470518   310A      2.484330  
     311A      2.511902   312A      2.513217   313A      2.528549  
     314A      2.530392   315A      2.550818   316A      2.555470  
     317A      2.557341   318A      2.590096   319A      2.599501  
     320A      2.634818   321A      2.640075   322A      2.662645  
     323A      2.668966   324A      2.692696   325A      2.717153  
     326A      2.719245   327A      2.745492   328A      2.767870  
     329A      2.771238   330A      2.776451   331A      2.792492  
     332A      2.822696   333A      2.835285   334A      2.848676  
     335A      2.875678   336A      2.891770   337A      2.938707  
     338A      2.962757   339A      2.980139   340A      3.009604  
     341A      3.032907   342A      3.042355   343A      3.051917  
     344A      3.131079   345A      3.149350   346A      3.161810  
     347A      3.218920   348A      3.229876   349A      3.232236  
     350A      3.319427   351A      3.326424   352A      3.364263  
     353A      3.384798   354A      3.417521   355A      3.429120  
     356A      3.453307   357A      3.466509   358A      3.498301  
     359A      3.502774   360A      3.540223   361A      3.541064  
     362A      3.566861   363A      3.576934   364A      3.620963  
     365A      3.638183   366A      3.677790   367A      3.693669  
     368A      3.695342   369A      3.724205   370A      3.736806  
     371A      3.741936   372A      3.770210   373A      3.782222  
     374A      3.820109   375A      3.827097   376A      3.843754  
     377A      3.849235   378A      3.858451   379A      3.863751  
     380A      3.873586   381A      3.880512   382A      3.896031  
     383A      3.923060   384A      3.928925   385A      3.954072  
     386A      3.962342   387A      3.962908   388A      3.991803  
     389A      4.009426   390A      4.053812   391A      4.057347  
     392A      4.061160   393A      4.091125   394A      4.116251  
     395A      4.154740   396A      4.184339   397A      4.192142  
     398A      4.213507   399A      4.216740   400A      4.245026  
     401A      4.246248   402A      4.261411   403A      4.275094  
     404A      4.282192   405A      4.285838   406A      4.295644  
     407A      4.307374   408A      4.322795   409A      4.346365  
     410A      4.350696   411A      4.370602   412A      4.378797  
     413A      4.395393   414A      4.419570   415A      4.426506  
     416A      4.438373   417A      4.440374   418A      4.469499  
     419A      4.480498   420A      4.481541   421A      4.485779  
     422A      4.503454   423A      4.510410   424A      4.554869  
     425A      4.595078   426A      4.595673   427A      4.633701  
     428A      4.667194   429A      4.681703   430A      4.703119  
     431A      4.721902   432A      4.740123   433A      4.768886  
     434A      4.776658   435A      4.784605   436A      4.789493  
     437A      4.817390   438A      4.840927   439A      4.842881  
     440A      4.867725   441A      4.868127   442A      4.886191  
     443A      4.895748   444A      4.926264   445A      4.934815  
     446A      4.950487   447A      4.976814   448A      4.977054  
     449A      4.982798   450A      4.986735   451A      5.037860  
     452A      5.081506   453A      5.104526   454A      5.124557  
     455A      5.142422   456A      5.163580   457A      5.191228  
     458A      5.198693   459A      5.214201   460A      5.234291  
     461A      5.268515   462A      5.275010   463A      5.310411  
     464A      5.316613   465A      5.345871   466A      5.363293  
     467A      5.372202   468A      5.418557   469A      5.419404  
     470A      5.430614   471A      5.440287   472A      5.493678  
     473A      5.495763   474A      5.497357   475A      5.502557  
     476A      5.536409   477A      5.579391   478A      5.616267  
     479A      5.617350   480A      5.639621   481A      5.660173  
     482A      5.687330   483A      5.701177   484A      5.741200  
     485A      5.768493   486A      5.776834   487A      5.780272  
     488A      5.921692   489A      5.939218   490A      5.959169  
     491A      5.973133   492A      5.988694   493A      6.070166  
     494A      6.076610   495A      6.089279   496A      6.132020  
     497A      6.148705   498A      6.184552   499A      6.192441  
     500A      6.198356   501A      6.208842   502A      6.228745  
     503A      6.256044   504A      6.383361   505A      6.395105  
     506A      6.434020   507A      6.520128   508A      6.545796  
     509A      6.664065   510A      6.680471   511A      6.718007  
     512A      6.760393   513A      6.774846   514A      6.827614  
     515A      6.834870   516A      6.861870   517A      6.864565  
     518A      6.866131   519A      6.882801   520A      6.911742  
     521A      7.050666   522A      7.057725   523A      7.110650  
     524A      7.141848   525A      7.248962   526A      7.254334  
     527A      7.356414   528A      7.395412   529A      7.405106  
     530A      7.419064   531A      7.442740   532A      7.465582  
     533A      7.627474   534A      7.634041   535A      7.704925  
     536A      7.711802   537A      7.714116   538A      7.748359  
     539A      7.793324   540A      7.810101   541A      7.928275  
     542A      7.940532   543A      8.027156   544A      8.051845  
     545A     15.322315   546A     15.882019   547A     16.797018  
     548A     16.959318   549A     17.721949   550A     17.855234  
     551A     19.999408   552A     20.502992  

    Final Occupation by Irrep:
              A 
    DOCC [    31 ]

  @DF-RHF Final Energy:  -414.95965425167606

   => Energetics <=

    Nuclear Repulsion Energy =            365.8028783222268316
    One-Electron Energy =               -1292.1149818807120937
    Two-Electron Energy =                 511.3524493068091488
    Total Energy =                       -414.9596542516760564

Computation Completed

*** tstop() called on c403-114.stampede2.tacc.utexas.edu at Sun Feb 28 06:30:02 2021
Module time:
	user time   =     388.62 seconds =       6.48 minutes
	system time =      26.83 seconds =       0.45 minutes
	total time  =         24 seconds =       0.40 minutes
Total time:
	user time   =     388.62 seconds =       6.48 minutes
	system time =      26.83 seconds =       0.45 minutes
	total time  =         24 seconds =       0.40 minutes
   => Loading Basis Set <=

    Name: (AUG-CC-PVTZ AUX)
    Role: RIFIT
    Keyword: DF_BASIS_MP2
    atoms 1-2  entry O          line   264 file /home1/07844/xy3866/miniconda3/envs/p4env/share/psi4/basis/aug-cc-pvtz-ri.gbs 
    atoms 3-4  entry N          line   206 file /home1/07844/xy3866/miniconda3/envs/p4env/share/psi4/basis/aug-cc-pvtz-ri.gbs 
    atoms 5-8  entry C          line   148 file /home1/07844/xy3866/miniconda3/envs/p4env/share/psi4/basis/aug-cc-pvtz-ri.gbs 
    atoms 9-16 entry H          line    30 file /home1/07844/xy3866/miniconda3/envs/p4env/share/psi4/basis/aug-cc-pvtz-ri.gbs 


*** tstart() called on c403-114.stampede2.tacc.utexas.edu
*** at Sun Feb 28 06:30:03 2021


  //>>>>>>>>>>>>>>>>>>>>>>>>>>>>>>>>>>>//
  //               DFMP2               //
  //<<<<<<<<<<<<<<<<<<<<<<<<<<<<<<<<<<<//

	 --------------------------------------------------------
	                          DF-MP2                         
	      2nd-Order Density-Fitted Moller-Plesset Theory     
	              RMP2 Wavefunction,  32 Threads             
	                                                         
	        Rob Parrish, Justin Turney, Andy Simmonett,      
	           Ed Hohenstein, and C. David Sherrill          
	 --------------------------------------------------------

   => Auxiliary Basis Set <=

  Basis Set: (AUG-CC-PVTZ AUX)
    Blend: AUG-CC-PVTZ-RI
    Number of shells: 336
    Number of basis functions: 1216
    Number of Cartesian functions: 1528
    Spherical Harmonics?: true
    Max angular momentum: 4

	 --------------------------------------------------------
	                 NBF =   552, NAUX =  1216
	 --------------------------------------------------------
	   CLASS    FOCC     OCC    AOCC    AVIR     VIR    FVIR
	   PAIRS       0      31      31     521     521       0
	 --------------------------------------------------------

  DFHelper Memory: AOs need 2.680 GiB; user supplied 22.352 GiB. Using in-core AOs.


         ------------------------------------------------------------
                                     CPHF                           
                                  Rob Parrish                       
         ------------------------------------------------------------

  ==> Geometry <==

    Molecular point group: c1
    Full point group: C1

    Geometry (in Angstrom), charge = 0, multiplicity = 1:

       Center              X                  Y                   Z               Mass       
    ------------   -----------------  -----------------  -----------------  -----------------
         O           -2.073720111766     1.262867991425    -0.475386354162    15.994914619570
         O            2.073720888234    -1.262868008575    -0.475386354162    15.994914619570
         N           -2.976238111766    -0.653417008575     0.362347645838    14.003074004430
         N            2.976237888234     0.653417991425     0.362346645838    14.003074004430
         C           -0.555548111766    -0.517568008575     0.154282645838    12.000000000000
         C            0.555547888234     0.517566991425     0.154284645838    12.000000000000
         C           -1.918285111766     0.126354991425    -0.028490354162    12.000000000000
         C            1.918284888234    -0.126355008575    -0.028490354162    12.000000000000
         H           -0.380675111766    -1.225278008575    -0.664293354162     1.007825032230
         H           -0.538361111766    -1.107774008575     1.077064645838     1.007825032230
         H            0.380674888234     1.225279991425    -0.664290354162     1.007825032230
         H            0.538359888234     1.107769991425     1.077067645838     1.007825032230
         H           -2.854323111766    -1.645126008575     0.511867645838     1.007825032230
         H           -3.897004111766    -0.335684008575     0.087707645838     1.007825032230
         H            2.854321888234     1.645125991425     0.511866645838     1.007825032230
         H            3.897002888234     0.335684991425     0.087707645838     1.007825032230

  Nuclear repulsion =  365.802878322226888
  Reference energy  = -414.959654251676056

  ==> Basis Set <==

  Basis Set: AUG-CC-PVTZ
    Blend: AUG-CC-PVTZ
    Number of shells: 184
    Number of basis functions: 552
    Number of Cartesian functions: 640
    Spherical Harmonics?: true
    Max angular momentum: 3

  ==> CGRSolver (by Rob Parrish) <==

   Number of roots    =         1
   Preconditioning    =    JACOBI
   Convergence cutoff =     1E-06
   Maximum iterations =       100

  ==> CPHFRHamiltonian (by Rob Parrish) <== 

  ==> MemDFJK: Density-Fitted J/K Matrices <==

    J tasked:                   Yes
    K tasked:                   Yes
    wK tasked:                   No
    OpenMP threads:              32
    Memory [MiB]:             22888
    Algorithm:                 Core
    Schwarz Cutoff:           1E-12
    Mask sparsity (%):       6.9280
    Fitting Condition:        1E-10

   => Auxiliary Basis Set <=

  Basis Set: (AUG-CC-PVTZ AUX)
    Blend: AUG-CC-PVTZ-JKFIT
    Number of shells: 352
    Number of basis functions: 1200
    Number of Cartesian functions: 1488
    Spherical Harmonics?: true
    Max angular momentum: 4

  ==> CPHF Iterations <==

  => Iterations <=

             Iter  Converged  Remaining    Residual
  CGR           1          0          1   1.215E-01
  CGR           2          0          1   3.525E-02
  CGR           3          0          1   1.288E-02
  CGR           4          0          1   3.044E-03
  CGR           5          0          1   1.070E-03
  CGR           6          0          1   4.663E-04
  CGR           7          0          1   1.328E-04
  CGR           8          0          1   4.202E-05
  CGR           9          0          1   1.111E-05
  CGR          10          0          1   3.242E-06
  CGR          11          0          1   1.351E-06
  CGR          12          1          0   6.191E-07

    CGRSolver converged.

	-----------------------------------------------------------
	 ==================> DF-MP2 Energies <==================== 
	-----------------------------------------------------------
	 Reference Energy          =    -414.9596542516760564 [Eh]
	 Singles Energy            =      -0.0000000000000000 [Eh]
	 Same-Spin Energy          =      -0.4145896062387568 [Eh]
	 Opposite-Spin Energy      =      -1.2904041707106326 [Eh]
	 Correlation Energy        =      -1.7049937769493895 [Eh]
	 Total Energy              =    -416.6646480286254359 [Eh]
	-----------------------------------------------------------
	 ================> DF-SCS-MP2 Energies <================== 
	-----------------------------------------------------------
	 SCS Same-Spin Scale       =       0.3333333333333333 [-]
	 SCS Opposite-Spin Scale   =       1.2000000000000000 [-]
	 SCS Same-Spin Energy      =      -0.1381965354129189 [Eh]
	 SCS Opposite-Spin Energy  =      -1.5484850048527592 [Eh]
	 SCS Correlation Energy    =      -1.6866815402656781 [Eh]
	 SCS Total Energy          =    -416.6463357919417376 [Eh]
	-----------------------------------------------------------



Properties will be evaluated at  -0.000000,  -0.000000,   0.000000 [a0]

Properties computed using the MP2 density matrix

  Nuclear Dipole Moment: [e a0]
     X:    -0.0000      Y:    -0.0000      Z:     1.8914

  Electronic Dipole Moment: [e a0]
     X:     0.0000      Y:     0.0000      Z:    -1.2769

  Dipole Moment: [e a0]
     X:    -0.0000      Y:    -0.0000      Z:     0.6145     Total:     0.6145

  Dipole Moment: [D]
     X:    -0.0000      Y:    -0.0000      Z:     1.5619     Total:     1.5619


*** tstop() called on c403-114.stampede2.tacc.utexas.edu at Sun Feb 28 06:32:17 2021
Module time:
	user time   =    1063.17 seconds =      17.72 minutes
	system time =      27.82 seconds =       0.46 minutes
	total time  =        134 seconds =       2.23 minutes
Total time:
	user time   =    1452.60 seconds =      24.21 minutes
	system time =      54.66 seconds =       0.91 minutes
	total time  =        159 seconds =       2.65 minutes

    Psi4 stopped on: Sunday, 28 February 2021 06:32AM
    Psi4 wall time for execution: 0:02:39.70

*** Psi4 exiting successfully. Buy a developer a beer!
