31242                                                                   
Freq      RMP2-FC                                                     6-31G(d)            
Number of atoms                            I               19
Info1-9                                    I   N=           9
          31          29        1002           0           0         100
           6           2           1
Charge                                     I                0
Multiplicity                               I                1
Number of electrons                        I               66
Number of alpha electrons                  I               33
Number of beta electrons                   I               33
Number of basis functions                  I              155
Number of independent functions            I              155
Number of point charges in /Mol/           I                0
Number of translation vectors              I                0
Atomic numbers                             I   N=          19
           8           6           6           6           6           6
           6           6           6           1           1           1
           1           1           1           1           1           1
           1
Nuclear charges                            R   N=          19
  8.00000000E+00  6.00000000E+00  6.00000000E+00  6.00000000E+00  6.00000000E+00
  6.00000000E+00  6.00000000E+00  6.00000000E+00  6.00000000E+00  1.00000000E+00
  1.00000000E+00  1.00000000E+00  1.00000000E+00  1.00000000E+00  1.00000000E+00
  1.00000000E+00  1.00000000E+00  1.00000000E+00  1.00000000E+00
Current cartesian coordinates              R   N=          57
  6.08800821E+00 -2.01267596E-01  5.48963529E-01 -1.72842340E+00  3.20477139E-02
 -6.87787116E-01 -4.55839046E+00  6.01824501E-02 -1.00606341E+00 -3.60484555E-01
  2.28210534E+00 -4.48768318E-01 -4.04026089E-01 -2.25443261E+00 -4.79961319E-01
 -5.93626064E+00 -3.63073998E-02  1.53767167E+00  2.24661246E+00  2.26611845E+00
 -4.47500856E-02  2.19573776E+00 -2.30573289E+00 -7.69239226E-02  3.52413117E+00
 -3.50788654E-02  1.52505450E-01 -5.11956404E+00  1.76759808E+00 -2.03711341E+00
 -5.13751494E+00 -1.55188126E+00 -2.17197971E+00 -1.33788914E+00  4.08664706E+00
 -6.07539815E-01 -1.42329987E+00 -4.03325344E+00 -6.65451661E-01 -5.42853102E+00
 -1.75256711E+00  2.57147075E+00 -7.98871165E+00 -1.52679312E-02  1.28093876E+00
 -5.41028614E+00  1.58553248E+00  2.70610339E+00  3.27742089E+00  4.04108871E+00
  1.20929947E-01  3.22578632E+00 -4.07596992E+00  6.94054384E-02  6.76514645E+00
  1.50480092E+00  6.65990386E-01
Force Field                                I                0
Int Atom Types                             I   N=          19
           0           0           0           0           0           0
           0           0           0           0           0           0
           0           0           0           0           0           0
           0
MM charges                                 R   N=          19
  0.00000000E+00  0.00000000E+00  0.00000000E+00  0.00000000E+00  0.00000000E+00
  0.00000000E+00  0.00000000E+00  0.00000000E+00  0.00000000E+00  0.00000000E+00
  0.00000000E+00  0.00000000E+00  0.00000000E+00  0.00000000E+00  0.00000000E+00
  0.00000000E+00  0.00000000E+00  0.00000000E+00  0.00000000E+00
Integer atomic weights                     I   N=          19
          16          12          12          12          12          12
          12          12          12           1           1           1
           1           1           1           1           1           1
           1
Real atomic weights                        R   N=          19
  1.59949146E+01  1.20000000E+01  1.20000000E+01  1.20000000E+01  1.20000000E+01
  1.20000000E+01  1.20000000E+01  1.20000000E+01  1.20000000E+01  1.00782504E+00
  1.00782504E+00  1.00782504E+00  1.00782504E+00  1.00782504E+00  1.00782504E+00
  1.00782504E+00  1.00782504E+00  1.00782504E+00  1.00782504E+00
Atom fragment info                         I   N=          19
           0           0           0           0           0           0
           0           0           0           0           0           0
           0           0           0           0           0           0
           0
Atom residue num                           I   N=          19
           0           0           0           0           0           0
           0           0           0           0           0           0
           0           0           0           0           0           0
           0
Nuclear spins                              I   N=          19
           0           0           0           0           0           0
           0           0           0           1           1           1
           1           1           1           1           1           1
           1
Nuclear ZEff                               R   N=          19
 -5.60000000E+00 -3.60000000E+00 -3.60000000E+00 -3.60000000E+00 -3.60000000E+00
 -3.60000000E+00 -3.60000000E+00 -3.60000000E+00 -3.60000000E+00 -1.00000000E+00
 -1.00000000E+00 -1.00000000E+00 -1.00000000E+00 -1.00000000E+00 -1.00000000E+00
 -1.00000000E+00 -1.00000000E+00 -1.00000000E+00 -1.00000000E+00
Nuclear QMom                               R   N=          19
  0.00000000E+00  0.00000000E+00  0.00000000E+00  0.00000000E+00  0.00000000E+00
  0.00000000E+00  0.00000000E+00  0.00000000E+00  0.00000000E+00  0.00000000E+00
  0.00000000E+00  0.00000000E+00  0.00000000E+00  0.00000000E+00  0.00000000E+00
  0.00000000E+00  0.00000000E+00  0.00000000E+00  0.00000000E+00
Nuclear GFac                               R   N=          19
  0.00000000E+00  0.00000000E+00  0.00000000E+00  0.00000000E+00  0.00000000E+00
  0.00000000E+00  0.00000000E+00  0.00000000E+00  0.00000000E+00  2.79284600E+00
  2.79284600E+00  2.79284600E+00  2.79284600E+00  2.79284600E+00  2.79284600E+00
  2.79284600E+00  2.79284600E+00  2.79284600E+00  2.79284600E+00
MicOpt                                     I   N=          19
          -1          -1          -1          -1          -1          -1
          -1          -1          -1          -1          -1          -1
          -1          -1          -1          -1          -1          -1
          -1
Number of contracted shells                I               56
Number of primitive shells                 I              139
Pure/Cartesian d shells                    I                1
Pure/Cartesian f shells                    I                0
Highest angular momentum                   I                2
Largest degree of contraction              I                6
Shell types                                I   N=          56
           0          -1          -1           2           0          -1
          -1           2           0          -1          -1           2
           0          -1          -1           2           0          -1
          -1           2           0          -1          -1           2
           0          -1          -1           2           0          -1
          -1           2           0          -1          -1           2
           0           0           0           0           0           0
           0           0           0           0           0           0
           0           0           0           0           0           0
           0           0
Number of primitives per shell             I   N=          56
           6           3           1           1           6           3
           1           1           6           3           1           1
           6           3           1           1           6           3
           1           1           6           3           1           1
           6           3           1           1           6           3
           1           1           6           3           1           1
           3           1           3           1           3           1
           3           1           3           1           3           1
           3           1           3           1           3           1
           3           1
Shell to atom map                          I   N=          56
           1           1           1           1           2           2
           2           2           3           3           3           3
           4           4           4           4           5           5
           5           5           6           6           6           6
           7           7           7           7           8           8
           8           8           9           9           9           9
          10          10          11          11          12          12
          13          13          14          14          15          15
          16          16          17          17          18          18
          19          19
Primitive exponents                        R   N=         139
  5.48467166E+03  8.25234946E+02  1.88046958E+02  5.29645000E+01  1.68975704E+01
  5.79963534E+00  1.55396162E+01  3.59993359E+00  1.01376175E+00  2.70005823E-01
  8.00000000E-01  3.04752488E+03  4.57369518E+02  1.03948685E+02  2.92101553E+01
  9.28666296E+00  3.16392696E+00  7.86827235E+00  1.88128854E+00  5.44249258E-01
  1.68714478E-01  8.00000000E-01  3.04752488E+03  4.57369518E+02  1.03948685E+02
  2.92101553E+01  9.28666296E+00  3.16392696E+00  7.86827235E+00  1.88128854E+00
  5.44249258E-01  1.68714478E-01  8.00000000E-01  3.04752488E+03  4.57369518E+02
  1.03948685E+02  2.92101553E+01  9.28666296E+00  3.16392696E+00  7.86827235E+00
  1.88128854E+00  5.44249258E-01  1.68714478E-01  8.00000000E-01  3.04752488E+03
  4.57369518E+02  1.03948685E+02  2.92101553E+01  9.28666296E+00  3.16392696E+00
  7.86827235E+00  1.88128854E+00  5.44249258E-01  1.68714478E-01  8.00000000E-01
  3.04752488E+03  4.57369518E+02  1.03948685E+02  2.92101553E+01  9.28666296E+00
  3.16392696E+00  7.86827235E+00  1.88128854E+00  5.44249258E-01  1.68714478E-01
  8.00000000E-01  3.04752488E+03  4.57369518E+02  1.03948685E+02  2.92101553E+01
  9.28666296E+00  3.16392696E+00  7.86827235E+00  1.88128854E+00  5.44249258E-01
  1.68714478E-01  8.00000000E-01  3.04752488E+03  4.57369518E+02  1.03948685E+02
  2.92101553E+01  9.28666296E+00  3.16392696E+00  7.86827235E+00  1.88128854E+00
  5.44249258E-01  1.68714478E-01  8.00000000E-01  3.04752488E+03  4.57369518E+02
  1.03948685E+02  2.92101553E+01  9.28666296E+00  3.16392696E+00  7.86827235E+00
  1.88128854E+00  5.44249258E-01  1.68714478E-01  8.00000000E-01  1.87311370E+01
  2.82539436E+00  6.40121692E-01  1.61277759E-01  1.87311370E+01  2.82539436E+00
  6.40121692E-01  1.61277759E-01  1.87311370E+01  2.82539436E+00  6.40121692E-01
  1.61277759E-01  1.87311370E+01  2.82539436E+00  6.40121692E-01  1.61277759E-01
  1.87311370E+01  2.82539436E+00  6.40121692E-01  1.61277759E-01  1.87311370E+01
  2.82539436E+00  6.40121692E-01  1.61277759E-01  1.87311370E+01  2.82539436E+00
  6.40121692E-01  1.61277759E-01  1.87311370E+01  2.82539436E+00  6.40121692E-01
  1.61277759E-01  1.87311370E+01  2.82539436E+00  6.40121692E-01  1.61277759E-01
  1.87311370E+01  2.82539436E+00  6.40121692E-01  1.61277759E-01
Contraction coefficients                   R   N=         139
  1.83107443E-03  1.39501722E-02  6.84450781E-02  2.32714336E-01  4.70192898E-01
  3.58520853E-01 -1.10777550E-01 -1.48026263E-01  1.13076702E+00  1.00000000E+00
  1.00000000E+00  1.83473713E-03  1.40373228E-02  6.88426223E-02  2.32184443E-01
  4.67941348E-01  3.62311985E-01 -1.19332420E-01 -1.60854152E-01  1.14345644E+00
  1.00000000E+00  1.00000000E+00  1.83473713E-03  1.40373228E-02  6.88426223E-02
  2.32184443E-01  4.67941348E-01  3.62311985E-01 -1.19332420E-01 -1.60854152E-01
  1.14345644E+00  1.00000000E+00  1.00000000E+00  1.83473713E-03  1.40373228E-02
  6.88426223E-02  2.32184443E-01  4.67941348E-01  3.62311985E-01 -1.19332420E-01
 -1.60854152E-01  1.14345644E+00  1.00000000E+00  1.00000000E+00  1.83473713E-03
  1.40373228E-02  6.88426223E-02  2.32184443E-01  4.67941348E-01  3.62311985E-01
 -1.19332420E-01 -1.60854152E-01  1.14345644E+00  1.00000000E+00  1.00000000E+00
  1.83473713E-03  1.40373228E-02  6.88426223E-02  2.32184443E-01  4.67941348E-01
  3.62311985E-01 -1.19332420E-01 -1.60854152E-01  1.14345644E+00  1.00000000E+00
  1.00000000E+00  1.83473713E-03  1.40373228E-02  6.88426223E-02  2.32184443E-01
  4.67941348E-01  3.62311985E-01 -1.19332420E-01 -1.60854152E-01  1.14345644E+00
  1.00000000E+00  1.00000000E+00  1.83473713E-03  1.40373228E-02  6.88426223E-02
  2.32184443E-01  4.67941348E-01  3.62311985E-01 -1.19332420E-01 -1.60854152E-01
  1.14345644E+00  1.00000000E+00  1.00000000E+00  1.83473713E-03  1.40373228E-02
  6.88426223E-02  2.32184443E-01  4.67941348E-01  3.62311985E-01 -1.19332420E-01
 -1.60854152E-01  1.14345644E+00  1.00000000E+00  1.00000000E+00  3.34946043E-02
  2.34726953E-01  8.13757326E-01  1.00000000E+00  3.34946043E-02  2.34726953E-01
  8.13757326E-01  1.00000000E+00  3.34946043E-02  2.34726953E-01  8.13757326E-01
  1.00000000E+00  3.34946043E-02  2.34726953E-01  8.13757326E-01  1.00000000E+00
  3.34946043E-02  2.34726953E-01  8.13757326E-01  1.00000000E+00  3.34946043E-02
  2.34726953E-01  8.13757326E-01  1.00000000E+00  3.34946043E-02  2.34726953E-01
  8.13757326E-01  1.00000000E+00  3.34946043E-02  2.34726953E-01  8.13757326E-01
  1.00000000E+00  3.34946043E-02  2.34726953E-01  8.13757326E-01  1.00000000E+00
  3.34946043E-02  2.34726953E-01  8.13757326E-01  1.00000000E+00
P(S=P) Contraction coefficients            R   N=         139
  0.00000000E+00  0.00000000E+00  0.00000000E+00  0.00000000E+00  0.00000000E+00
  0.00000000E+00  7.08742682E-02  3.39752839E-01  7.27158577E-01  1.00000000E+00
  0.00000000E+00  0.00000000E+00  0.00000000E+00  0.00000000E+00  0.00000000E+00
  0.00000000E+00  0.00000000E+00  6.89990666E-02  3.16423961E-01  7.44308291E-01
  1.00000000E+00  0.00000000E+00  0.00000000E+00  0.00000000E+00  0.00000000E+00
  0.00000000E+00  0.00000000E+00  0.00000000E+00  6.89990666E-02  3.16423961E-01
  7.44308291E-01  1.00000000E+00  0.00000000E+00  0.00000000E+00  0.00000000E+00
  0.00000000E+00  0.00000000E+00  0.00000000E+00  0.00000000E+00  6.89990666E-02
  3.16423961E-01  7.44308291E-01  1.00000000E+00  0.00000000E+00  0.00000000E+00
  0.00000000E+00  0.00000000E+00  0.00000000E+00  0.00000000E+00  0.00000000E+00
  6.89990666E-02  3.16423961E-01  7.44308291E-01  1.00000000E+00  0.00000000E+00
  0.00000000E+00  0.00000000E+00  0.00000000E+00  0.00000000E+00  0.00000000E+00
  0.00000000E+00  6.89990666E-02  3.16423961E-01  7.44308291E-01  1.00000000E+00
  0.00000000E+00  0.00000000E+00  0.00000000E+00  0.00000000E+00  0.00000000E+00
  0.00000000E+00  0.00000000E+00  6.89990666E-02  3.16423961E-01  7.44308291E-01
  1.00000000E+00  0.00000000E+00  0.00000000E+00  0.00000000E+00  0.00000000E+00
  0.00000000E+00  0.00000000E+00  0.00000000E+00  6.89990666E-02  3.16423961E-01
  7.44308291E-01  1.00000000E+00  0.00000000E+00  0.00000000E+00  0.00000000E+00
  0.00000000E+00  0.00000000E+00  0.00000000E+00  0.00000000E+00  6.89990666E-02
  3.16423961E-01  7.44308291E-01  1.00000000E+00  0.00000000E+00  0.00000000E+00
  0.00000000E+00  0.00000000E+00  0.00000000E+00  0.00000000E+00  0.00000000E+00
  0.00000000E+00  0.00000000E+00  0.00000000E+00  0.00000000E+00  0.00000000E+00
  0.00000000E+00  0.00000000E+00  0.00000000E+00  0.00000000E+00  0.00000000E+00
  0.00000000E+00  0.00000000E+00  0.00000000E+00  0.00000000E+00  0.00000000E+00
  0.00000000E+00  0.00000000E+00  0.00000000E+00  0.00000000E+00  0.00000000E+00
  0.00000000E+00  0.00000000E+00  0.00000000E+00  0.00000000E+00  0.00000000E+00
  0.00000000E+00  0.00000000E+00  0.00000000E+00  0.00000000E+00  0.00000000E+00
  0.00000000E+00  0.00000000E+00  0.00000000E+00  0.00000000E+00
Coordinates of each shell                  R   N=         168
  6.08800821E+00 -2.01267596E-01  5.48963529E-01  6.08800821E+00 -2.01267596E-01
  5.48963529E-01  6.08800821E+00 -2.01267596E-01  5.48963529E-01  6.08800821E+00
 -2.01267596E-01  5.48963529E-01 -1.72842340E+00  3.20477139E-02 -6.87787116E-01
 -1.72842340E+00  3.20477139E-02 -6.87787116E-01 -1.72842340E+00  3.20477139E-02
 -6.87787116E-01 -1.72842340E+00  3.20477139E-02 -6.87787116E-01 -4.55839046E+00
  6.01824501E-02 -1.00606341E+00 -4.55839046E+00  6.01824501E-02 -1.00606341E+00
 -4.55839046E+00  6.01824501E-02 -1.00606341E+00 -4.55839046E+00  6.01824501E-02
 -1.00606341E+00 -3.60484555E-01  2.28210534E+00 -4.48768318E-01 -3.60484555E-01
  2.28210534E+00 -4.48768318E-01 -3.60484555E-01  2.28210534E+00 -4.48768318E-01
 -3.60484555E-01  2.28210534E+00 -4.48768318E-01 -4.04026089E-01 -2.25443261E+00
 -4.79961319E-01 -4.04026089E-01 -2.25443261E+00 -4.79961319E-01 -4.04026089E-01
 -2.25443261E+00 -4.79961319E-01 -4.04026089E-01 -2.25443261E+00 -4.79961319E-01
 -5.93626064E+00 -3.63073998E-02  1.53767167E+00 -5.93626064E+00 -3.63073998E-02
  1.53767167E+00 -5.93626064E+00 -3.63073998E-02  1.53767167E+00 -5.93626064E+00
 -3.63073998E-02  1.53767167E+00  2.24661246E+00  2.26611845E+00 -4.47500856E-02
  2.24661246E+00  2.26611845E+00 -4.47500856E-02  2.24661246E+00  2.26611845E+00
 -4.47500856E-02  2.24661246E+00  2.26611845E+00 -4.47500856E-02  2.19573776E+00
 -2.30573289E+00 -7.69239226E-02  2.19573776E+00 -2.30573289E+00 -7.69239226E-02
  2.19573776E+00 -2.30573289E+00 -7.69239226E-02  2.19573776E+00 -2.30573289E+00
 -7.69239226E-02  3.52413117E+00 -3.50788654E-02  1.52505450E-01  3.52413117E+00
 -3.50788654E-02  1.52505450E-01  3.52413117E+00 -3.50788654E-02  1.52505450E-01
  3.52413117E+00 -3.50788654E-02  1.52505450E-01 -5.11956404E+00  1.76759808E+00
 -2.03711341E+00 -5.11956404E+00  1.76759808E+00 -2.03711341E+00 -5.13751494E+00
 -1.55188126E+00 -2.17197971E+00 -5.13751494E+00 -1.55188126E+00 -2.17197971E+00
 -1.33788914E+00  4.08664706E+00 -6.07539815E-01 -1.33788914E+00  4.08664706E+00
 -6.07539815E-01 -1.42329987E+00 -4.03325344E+00 -6.65451661E-01 -1.42329987E+00
 -4.03325344E+00 -6.65451661E-01 -5.42853102E+00 -1.75256711E+00  2.57147075E+00
 -5.42853102E+00 -1.75256711E+00  2.57147075E+00 -7.98871165E+00 -1.52679312E-02
  1.28093876E+00 -7.98871165E+00 -1.52679312E-02  1.28093876E+00 -5.41028614E+00
  1.58553248E+00  2.70610339E+00 -5.41028614E+00  1.58553248E+00  2.70610339E+00
  3.27742089E+00  4.04108871E+00  1.20929947E-01  3.27742089E+00  4.04108871E+00
  1.20929947E-01  3.22578632E+00 -4.07596992E+00  6.94054384E-02  3.22578632E+00
 -4.07596992E+00  6.94054384E-02  6.76514645E+00  1.50480092E+00  6.65990386E-01
  6.76514645E+00  1.50480092E+00  6.65990386E-01
Constraint Structure                       R   N=          57
  6.08800821E+00 -2.01267596E-01  5.48963529E-01 -1.72842340E+00  3.20477139E-02
 -6.87787116E-01 -4.55839046E+00  6.01824501E-02 -1.00606341E+00 -3.60484555E-01
  2.28210534E+00 -4.48768318E-01 -4.04026089E-01 -2.25443261E+00 -4.79961319E-01
 -5.93626064E+00 -3.63073998E-02  1.53767167E+00  2.24661246E+00  2.26611845E+00
 -4.47500856E-02  2.19573776E+00 -2.30573289E+00 -7.69239226E-02  3.52413117E+00
 -3.50788654E-02  1.52505450E-01 -5.11956404E+00  1.76759808E+00 -2.03711341E+00
 -5.13751494E+00 -1.55188126E+00 -2.17197971E+00 -1.33788914E+00  4.08664706E+00
 -6.07539815E-01 -1.42329987E+00 -4.03325344E+00 -6.65451661E-01 -5.42853102E+00
 -1.75256711E+00  2.57147075E+00 -7.98871165E+00 -1.52679312E-02  1.28093876E+00
 -5.41028614E+00  1.58553248E+00  2.70610339E+00  3.27742089E+00  4.04108871E+00
  1.20929947E-01  3.22578632E+00 -4.07596992E+00  6.94054384E-02  6.76514645E+00
  1.50480092E+00  6.65990386E-01
Num ILSW                                   I              100
ILSW                                       I   N=         100
           0           1           0           0           2           0
           0           0           0           0           0          -1
           0           0           0           0           0           0
           0           0           0           0           1           0
           1           0           0           0           0           0
           0           0      100000           0          -1           0
           0           0           0           0           0           0
           0           0           0           1           1           0
           0           0           1           0           0           0
           0           0           4          40           0           0
           0           0           0           0           0           0
           0           0           0           0           0           0
           0           0           0           0           0           0
           0           0           0           0           0           0
           0           0           0           0           0           0
           0           0           0           0           0           0
           0           0           0           0
Num RLSW                                   I               40
RLSW                                       R   N=          40
  1.00000000E+00  1.00000000E+00  1.00000000E+00  1.00000000E+00  1.00000000E+00
  0.00000000E+00  0.00000000E+00  1.00000000E+00  0.00000000E+00  0.00000000E+00
  0.00000000E+00  0.00000000E+00  1.00000000E+00  0.00000000E+00  0.00000000E+00
  0.00000000E+00  0.00000000E+00  1.00000000E+00  0.00000000E+00  0.00000000E+00
  0.00000000E+00  0.00000000E+00  1.00000000E+00  0.00000000E+00  0.00000000E+00
  0.00000000E+00  0.00000000E+00  1.00000000E+00  0.00000000E+00  0.00000000E+00
  0.00000000E+00  0.00000000E+00  0.00000000E+00  0.00000000E+00  0.00000000E+00
  0.00000000E+00  0.00000000E+00  0.00000000E+00  1.00000000E+00  1.00000000E+00
MxBond                                     I                4
NBond                                      I   N=          19
           2           3           4           3           3           4
           3           3           3           1           1           1
           1           1           1           1           1           1
           1
IBond                                      I   N=          76
           9          19           0           0           3           4
           5           0           2           6          10          11
           2           7          12           0           2           8
          13           0           3          14          15          16
           4           9          17           0           5           9
          18           0           1           7           8           0
           3           0           0           0           3           0
           0           0           4           0           0           0
           5           0           0           0           6           0
           0           0           6           0           0           0
           6           0           0           0           7           0
           0           0           8           0           0           0
           1           0           0           0
RBond                                      R   N=          76
  1.50000000E+00  1.00000000E+00  0.00000000E+00  0.00000000E+00  1.00000000E+00
  1.50000000E+00  1.50000000E+00  0.00000000E+00  1.00000000E+00  1.00000000E+00
  1.00000000E+00  1.00000000E+00  1.50000000E+00  1.50000000E+00  1.00000000E+00
  0.00000000E+00  1.50000000E+00  1.50000000E+00  1.00000000E+00  0.00000000E+00
  1.00000000E+00  1.00000000E+00  1.00000000E+00  1.00000000E+00  1.50000000E+00
  1.50000000E+00  1.00000000E+00  0.00000000E+00  1.50000000E+00  1.50000000E+00
  1.00000000E+00  0.00000000E+00  1.50000000E+00  1.50000000E+00  1.50000000E+00
  0.00000000E+00  1.00000000E+00  0.00000000E+00  0.00000000E+00  0.00000000E+00
  1.00000000E+00  0.00000000E+00  0.00000000E+00  0.00000000E+00  1.00000000E+00
  0.00000000E+00  0.00000000E+00  0.00000000E+00  1.00000000E+00  0.00000000E+00
  0.00000000E+00  0.00000000E+00  1.00000000E+00  0.00000000E+00  0.00000000E+00
  0.00000000E+00  1.00000000E+00  0.00000000E+00  0.00000000E+00  0.00000000E+00
  1.00000000E+00  0.00000000E+00  0.00000000E+00  0.00000000E+00  1.00000000E+00
  0.00000000E+00  0.00000000E+00  0.00000000E+00  1.00000000E+00  0.00000000E+00
  0.00000000E+00  0.00000000E+00  1.00000000E+00  0.00000000E+00  0.00000000E+00
  0.00000000E+00
Virial Ratio                               R      2.002066205655314E+00
SCF Energy                                 R     -3.836261441810152E+02
MP2 Energy                                 R     -3.848281242381301E+02
Total Energy                               R     -3.848281242381301E+02
Post-SCF wavefunction norm                 R      1.683183957803715E+00
RMS Force                                  R      6.482514008497947E-07
RMS Density                                R      1.256973323128183E-09
External E-field                           R   N=          35
  0.00000000E+00  0.00000000E+00  0.00000000E+00  0.00000000E+00  0.00000000E+00
  0.00000000E+00  0.00000000E+00  0.00000000E+00  0.00000000E+00  0.00000000E+00
  0.00000000E+00  0.00000000E+00  0.00000000E+00  0.00000000E+00  0.00000000E+00
  0.00000000E+00  0.00000000E+00  0.00000000E+00  0.00000000E+00  0.00000000E+00
  0.00000000E+00  0.00000000E+00  0.00000000E+00  0.00000000E+00  0.00000000E+00
  0.00000000E+00  0.00000000E+00  0.00000000E+00  0.00000000E+00  0.00000000E+00
  0.00000000E+00  0.00000000E+00  0.00000000E+00  0.00000000E+00  0.00000000E+00
IOpCl                                      I                0
IROHF                                      I                0
Alpha Orbital Energies                     R   N=         155
 -2.05910549E+01 -1.12982490E+01 -1.12378619E+01 -1.12357590E+01 -1.12337319E+01
 -1.12302983E+01 -1.12269085E+01 -1.12266657E+01 -1.12152764E+01 -1.39244058E+00
 -1.14638701E+00 -1.05518567E+00 -1.01296346E+00 -9.71937142E-01 -8.58802946E-01
 -8.38415408E-01 -7.87493934E-01 -7.22790655E-01 -6.66917380E-01 -6.43745608E-01
 -6.09977206E-01 -5.92892454E-01 -5.83485093E-01 -5.79443474E-01 -5.65529849E-01
 -5.50505535E-01 -5.20652356E-01 -4.95280334E-01 -4.77628629E-01 -4.75554566E-01
 -4.62126392E-01 -3.35885396E-01 -2.99445622E-01  1.39625383E-01  1.60450768E-01
  2.19749546E-01  2.34162421E-01  2.63173130E-01  2.78000881E-01  2.98029774E-01
  3.16342883E-01  3.17982140E-01  3.35934292E-01  3.40209195E-01  3.55167664E-01
  3.63964681E-01  4.08935453E-01  4.39956013E-01  4.53379075E-01  4.97874812E-01
  5.18994763E-01  5.33879086E-01  5.54399910E-01  7.00774287E-01  7.07284413E-01
  7.23985577E-01  7.32434272E-01  7.39739462E-01  7.44422528E-01  7.68513938E-01
  8.04373921E-01  8.23969736E-01  8.35151291E-01  8.39612332E-01  8.47539369E-01
  8.69618449E-01  8.99816855E-01  9.07629280E-01  9.28688261E-01  9.35170504E-01
  9.95130270E-01  1.00392352E+00  1.04363937E+00  1.08418379E+00  1.09108173E+00
  1.10318294E+00  1.10946604E+00  1.12270714E+00  1.15688450E+00  1.15837292E+00
  1.17058871E+00  1.17841296E+00  1.18919581E+00  1.21992046E+00  1.22352619E+00
  1.24434090E+00  1.24732008E+00  1.25957106E+00  1.28845295E+00  1.31253307E+00
  1.33780955E+00  1.40925798E+00  1.44150208E+00  1.45436952E+00  1.50808183E+00
  1.52608134E+00  1.58033039E+00  1.62736630E+00  1.67049021E+00  1.71168675E+00
  1.72448961E+00  1.73509837E+00  1.74585142E+00  1.79596516E+00  1.81354545E+00
  1.97427854E+00  2.01195184E+00  2.02661486E+00  2.03275064E+00  2.08677254E+00
  2.10132189E+00  2.13665336E+00  2.16882117E+00  2.22799369E+00  2.25488740E+00
  2.27136494E+00  2.27324134E+00  2.30544403E+00  2.33874749E+00  2.36681867E+00
  2.39515120E+00  2.44973283E+00  2.45415025E+00  2.48309321E+00  2.58224351E+00
  2.58760659E+00  2.59306078E+00  2.63779067E+00  2.66619494E+00  2.67009388E+00
  2.72409960E+00  2.73569914E+00  2.77841036E+00  2.83235984E+00  2.92236443E+00
  2.93513764E+00  2.97332156E+00  3.00930259E+00  3.01875495E+00  3.10821914E+00
  3.14401211E+00  3.23121317E+00  3.25191643E+00  3.31212981E+00  3.49639314E+00
  3.79776793E+00  4.36046062E+00  4.52868234E+00  4.54287260E+00  4.59607711E+00
  4.65712490E+00  4.75740678E+00  4.85584520E+00  4.91803445E+00  5.18189087E+00
Alpha MO coefficients                      R   N=       24025
  9.94644235E-01  2.11721772E-02 -7.03882898E-04  1.13288311E-03 -1.01055044E-04
  4.03491326E-03  2.47069833E-04 -7.01044003E-04  3.39659091E-05 -4.15385055E-03
 -4.11172768E-03 -3.89994042E-03 -3.05814921E-05 -4.69528722E-05 -6.60374706E-06
  1.57482785E-06  1.23765217E-05 -1.92979351E-07 -9.30165915E-06  2.71552987E-07
 -1.30378115E-04 -8.25256220E-05 -1.23576331E-04 -1.35232068E-05  8.40821918E-07
 -1.07858884E-05  4.36134863E-06 -6.95085473E-06 -1.09800283E-06 -1.34558035E-06
  7.77781105E-07  3.92652793E-06 -9.40463531E-08 -7.18983791E-06  5.19389885E-07
 -3.99503236E-05 -1.60586041E-05  7.87038848E-05 -8.08809994E-06  1.63348606E-07
  1.30910637E-06  7.14311166E-07  4.31257344E-06  8.87628593E-08 -2.48335948E-06
 -6.46364010E-06 -3.66390589E-05  1.80819955E-05  1.26835160E-05  3.25424346E-06
  3.72911901E-04  1.04951462E-04 -2.57568965E-04  1.35386542E-05  2.79804222E-05
 -6.16956645E-06 -1.32696917E-05  1.18820864E-05  7.70884930E-06  2.24886017E-06
  6.84206417E-06  3.63074864E-05 -1.28988594E-06  2.71818037E-06 -6.11704946E-07
 -3.86743035E-04 -1.69523700E-04 -8.61023991E-05 -2.56218669E-05  2.37236870E-06
  8.04023019E-06  1.34155687E-05 -1.30366676E-05 -2.46525732E-06 -1.96061090E-06
 -3.03918252E-07 -1.48750575E-06 -1.18527111E-08  1.84774953E-06 -5.58873762E-07
  1.36609290E-05  5.36912009E-06 -3.01228392E-05 -3.07856283E-06 -4.64448011E-07
 -2.71134330E-07 -2.43775049E-07 -2.12464245E-06 -6.98772378E-07  2.19132905E-06
  9.37014610E-06  9.55264481E-05 -4.41363886E-05  2.24680904E-05 -6.96754488E-06
 -1.00278223E-03 -8.49607870E-05  4.18490634E-04 -1.28248822E-05 -7.88029629E-05
 -6.12933602E-06  2.25699340E-06  4.80066514E-05 -1.50731454E-05  7.61853178E-06