160_Fluoroethane Gaussian SP Calculation on node35.bme.utexas.edu       
Freq      RMP2-FC                                                     6-31G(d)            
Number of atoms                            I                8
Info1-9                                    I   N=           9
          19          18        1002           0           0         100
           6           2           1
Charge                                     I                0
Multiplicity                               I                1
Number of electrons                        I               26
Number of alpha electrons                  I               13
Number of beta electrons                   I               13
Number of basis functions                  I               55
Number of independent functions            I               55
Number of point charges in /Mol/           I                0
Number of translation vectors              I                0
Atomic numbers                             I   N=           8
           9           6           6           1           1           1
           1           1
Nuclear charges                            R   N=           8
  9.00000000E+00  6.00000000E+00  6.00000000E+00  1.00000000E+00  1.00000000E+00
  1.00000000E+00  1.00000000E+00  1.00000000E+00
Current cartesian coordinates              R   N=          24
  2.23341171E+00 -6.46307303E-01 -8.89339605E-05  1.99310090E-01  1.04746059E+00
  3.18043491E-05 -2.24530415E+00 -4.25922188E-01  5.06836712E-05  3.73263950E-01
  2.23913469E+00  1.68073458E+00  3.73165125E-01  2.23925555E+00 -1.68059547E+00
 -3.86387878E+00  8.59442631E-01  1.46232616E-04 -2.35369586E+00 -1.62508749E+00
 -1.67562990E+00 -2.35359544E+00 -1.62521005E+00  1.67565003E+00
Force Field                                I                0
Int Atom Types                             I   N=           8
           0           0           0           0           0           0
           0           0
MM charges                                 R   N=           8
  0.00000000E+00  0.00000000E+00  0.00000000E+00  0.00000000E+00  0.00000000E+00
  0.00000000E+00  0.00000000E+00  0.00000000E+00
Integer atomic weights                     I   N=           8
          19          12          12           1           1           1
           1           1
Real atomic weights                        R   N=           8
  1.89984032E+01  1.20000000E+01  1.20000000E+01  1.00782504E+00  1.00782504E+00
  1.00782504E+00  1.00782504E+00  1.00782504E+00
Atom fragment info                         I   N=           8
           0           0           0           0           0           0
           0           0
Atom residue num                           I   N=           8
           0           0           0           0           0           0
           0           0
Nuclear spins                              I   N=           8
           1           0           0           1           1           1
           1           1
Nuclear ZEff                               R   N=           8
 -6.75000000E+00 -3.60000000E+00 -3.60000000E+00 -1.00000000E+00 -1.00000000E+00
 -1.00000000E+00 -1.00000000E+00 -1.00000000E+00
Nuclear QMom                               R   N=           8
  0.00000000E+00  0.00000000E+00  0.00000000E+00  0.00000000E+00  0.00000000E+00
  0.00000000E+00  0.00000000E+00  0.00000000E+00
Nuclear GFac                               R   N=           8
  2.62886700E+00  0.00000000E+00  0.00000000E+00  2.79284600E+00  2.79284600E+00
  2.79284600E+00  2.79284600E+00  2.79284600E+00
MicOpt                                     I   N=           8
          -1          -1          -1          -1          -1          -1
          -1          -1
Number of contracted shells                I               22
Number of primitive shells                 I               53
Pure/Cartesian d shells                    I                1
Pure/Cartesian f shells                    I                0
Highest angular momentum                   I                2
Largest degree of contraction              I                6
Shell types                                I   N=          22
           0          -1          -1           2           0          -1
          -1           2           0          -1          -1           2
           0           0           0           0           0           0
           0           0           0           0
Number of primitives per shell             I   N=          22
           6           3           1           1           6           3
           1           1           6           3           1           1
           3           1           3           1           3           1
           3           1           3           1
Shell to atom map                          I   N=          22
           1           1           1           1           2           2
           2           2           3           3           3           3
           4           4           5           5           6           6
           7           7           8           8
Primitive exponents                        R   N=          53
  7.00171309E+03  1.05136609E+03  2.39285690E+02  6.73974453E+01  2.15199573E+01
  7.40310130E+00  2.08479528E+01  4.80830834E+00  1.34406986E+00  3.58151393E-01
  8.00000000E-01  3.04752488E+03  4.57369518E+02  1.03948685E+02  2.92101553E+01
  9.28666296E+00  3.16392696E+00  7.86827235E+00  1.88128854E+00  5.44249258E-01
  1.68714478E-01  8.00000000E-01  3.04752488E+03  4.57369518E+02  1.03948685E+02
  2.92101553E+01  9.28666296E+00  3.16392696E+00  7.86827235E+00  1.88128854E+00
  5.44249258E-01  1.68714478E-01  8.00000000E-01  1.87311370E+01  2.82539436E+00
  6.40121692E-01  1.61277759E-01  1.87311370E+01  2.82539436E+00  6.40121692E-01
  1.61277759E-01  1.87311370E+01  2.82539436E+00  6.40121692E-01  1.61277759E-01
  1.87311370E+01  2.82539436E+00  6.40121692E-01  1.61277759E-01  1.87311370E+01
  2.82539436E+00  6.40121692E-01  1.61277759E-01
Contraction coefficients                   R   N=          53
  1.81961690E-03  1.39160796E-02  6.84053245E-02  2.33185760E-01  4.71267439E-01
  3.56618546E-01 -1.08506975E-01 -1.46451658E-01  1.12868858E+00  1.00000000E+00
  1.00000000E+00  1.83473713E-03  1.40373228E-02  6.88426223E-02  2.32184443E-01
  4.67941348E-01  3.62311985E-01 -1.19332420E-01 -1.60854152E-01  1.14345644E+00
  1.00000000E+00  1.00000000E+00  1.83473713E-03  1.40373228E-02  6.88426223E-02
  2.32184443E-01  4.67941348E-01  3.62311985E-01 -1.19332420E-01 -1.60854152E-01
  1.14345644E+00  1.00000000E+00  1.00000000E+00  3.34946043E-02  2.34726953E-01
  8.13757326E-01  1.00000000E+00  3.34946043E-02  2.34726953E-01  8.13757326E-01
  1.00000000E+00  3.34946043E-02  2.34726953E-01  8.13757326E-01  1.00000000E+00
  3.34946043E-02  2.34726953E-01  8.13757326E-01  1.00000000E+00  3.34946043E-02
  2.34726953E-01  8.13757326E-01  1.00000000E+00
P(S=P) Contraction coefficients            R   N=          53
  0.00000000E+00  0.00000000E+00  0.00000000E+00  0.00000000E+00  0.00000000E+00
  0.00000000E+00  7.16287242E-02  3.45912103E-01  7.22469956E-01  1.00000000E+00
  0.00000000E+00  0.00000000E+00  0.00000000E+00  0.00000000E+00  0.00000000E+00
  0.00000000E+00  0.00000000E+00  6.89990666E-02  3.16423961E-01  7.44308291E-01
  1.00000000E+00  0.00000000E+00  0.00000000E+00  0.00000000E+00  0.00000000E+00
  0.00000000E+00  0.00000000E+00  0.00000000E+00  6.89990666E-02  3.16423961E-01
  7.44308291E-01  1.00000000E+00  0.00000000E+00  0.00000000E+00  0.00000000E+00
  0.00000000E+00  0.00000000E+00  0.00000000E+00  0.00000000E+00  0.00000000E+00
  0.00000000E+00  0.00000000E+00  0.00000000E+00  0.00000000E+00  0.00000000E+00
  0.00000000E+00  0.00000000E+00  0.00000000E+00  0.00000000E+00  0.00000000E+00
  0.00000000E+00  0.00000000E+00  0.00000000E+00
Coordinates of each shell                  R   N=          66
  2.23341171E+00 -6.46307303E-01 -8.89339605E-05  2.23341171E+00 -6.46307303E-01
 -8.89339605E-05  2.23341171E+00 -6.46307303E-01 -8.89339605E-05  2.23341171E+00
 -6.46307303E-01 -8.89339605E-05  1.99310090E-01  1.04746059E+00  3.18043491E-05
  1.99310090E-01  1.04746059E+00  3.18043491E-05  1.99310090E-01  1.04746059E+00
  3.18043491E-05  1.99310090E-01  1.04746059E+00  3.18043491E-05 -2.24530415E+00
 -4.25922188E-01  5.06836712E-05 -2.24530415E+00 -4.25922188E-01  5.06836712E-05
 -2.24530415E+00 -4.25922188E-01  5.06836712E-05 -2.24530415E+00 -4.25922188E-01
  5.06836712E-05  3.73263950E-01  2.23913469E+00  1.68073458E+00  3.73263950E-01
  2.23913469E+00  1.68073458E+00  3.73165125E-01  2.23925555E+00 -1.68059547E+00
  3.73165125E-01  2.23925555E+00 -1.68059547E+00 -3.86387878E+00  8.59442631E-01
  1.46232616E-04 -3.86387878E+00  8.59442631E-01  1.46232616E-04 -2.35369586E+00
 -1.62508749E+00 -1.67562990E+00 -2.35369586E+00 -1.62508749E+00 -1.67562990E+00
 -2.35359544E+00 -1.62521005E+00  1.67565003E+00 -2.35359544E+00 -1.62521005E+00
  1.67565003E+00
Constraint Structure                       R   N=          24
  2.23341171E+00 -6.46307303E-01 -8.89339605E-05  1.99310090E-01  1.04746059E+00
  3.18043491E-05 -2.24530415E+00 -4.25922188E-01  5.06836712E-05  3.73263950E-01
  2.23913469E+00  1.68073458E+00  3.73165125E-01  2.23925555E+00 -1.68059547E+00
 -3.86387878E+00  8.59442631E-01  1.46232616E-04 -2.35369586E+00 -1.62508749E+00
 -1.67562990E+00 -2.35359544E+00 -1.62521005E+00  1.67565003E+00
Num ILSW                                   I              100
ILSW                                       I   N=         100
           0           1           0           0           2           0
           0           0           0           0           0          -1
           0           0           0           0           0           0
           0           0           0           0           1           0
           1           0           0           0           0           0
           0           0      100000           0          -1           0
           0           0           0           0           0           0
           0           0           0           1           1           0
           0           0           1           0           0           0
           0           0           4          40           0           0
           0           0           0           0           0           0
           0           0           0           0           0           0
           0           0           0           0           0           0
           0           0           0           0           0           0
           0           0           0           0           0           0
           0           0           0           0           0           0
           0           0           0           0
Num RLSW                                   I               40
RLSW                                       R   N=          40
  1.00000000E+00  1.00000000E+00  1.00000000E+00  1.00000000E+00  1.00000000E+00
  0.00000000E+00  0.00000000E+00  1.00000000E+00  0.00000000E+00  0.00000000E+00
  0.00000000E+00  0.00000000E+00  1.00000000E+00  0.00000000E+00  0.00000000E+00
  0.00000000E+00  0.00000000E+00  1.00000000E+00  0.00000000E+00  0.00000000E+00
  0.00000000E+00  0.00000000E+00  1.00000000E+00  0.00000000E+00  0.00000000E+00
  0.00000000E+00  0.00000000E+00  1.00000000E+00  0.00000000E+00  0.00000000E+00
  0.00000000E+00  0.00000000E+00  0.00000000E+00  0.00000000E+00  0.00000000E+00
  0.00000000E+00  0.00000000E+00  0.00000000E+00  1.00000000E+00  1.00000000E+00
MxBond                                     I                4
NBond                                      I   N=           8
           1           4           4           1           1           1
           1           1
IBond                                      I   N=          32
           2           0           0           0           1           3
           4           5           2           6           7           8
           2           0           0           0           2           0
           0           0           3           0           0           0
           3           0           0           0           3           0
           0           0
RBond                                      R   N=          32
  1.00000000E+00  0.00000000E+00  0.00000000E+00  0.00000000E+00  1.00000000E+00
  1.00000000E+00  1.00000000E+00  1.00000000E+00  1.00000000E+00  1.00000000E+00
  1.00000000E+00  1.00000000E+00  1.00000000E+00  0.00000000E+00  0.00000000E+00
  0.00000000E+00  1.00000000E+00  0.00000000E+00  0.00000000E+00  0.00000000E+00
  1.00000000E+00  0.00000000E+00  0.00000000E+00  0.00000000E+00  1.00000000E+00
  0.00000000E+00  0.00000000E+00  0.00000000E+00  1.00000000E+00  0.00000000E+00
  0.00000000E+00  0.00000000E+00
Virial Ratio                               R      2.001770480215420E+00
SCF Energy                                 R     -1.780763124984859E+02
MP2 Energy                                 R     -1.785087290994321E+02
Total Energy                               R     -1.785087290994321E+02
Post-SCF wavefunction norm                 R      1.498645771615762E+00
RMS Force                                  R      2.933535543596746E-06
RMS Density                                R      1.612951457898080E-09
External E-field                           R   N=          35
  0.00000000E+00  0.00000000E+00  0.00000000E+00  0.00000000E+00  0.00000000E+00
  0.00000000E+00  0.00000000E+00  0.00000000E+00  0.00000000E+00  0.00000000E+00
  0.00000000E+00  0.00000000E+00  0.00000000E+00  0.00000000E+00  0.00000000E+00
  0.00000000E+00  0.00000000E+00  0.00000000E+00  0.00000000E+00  0.00000000E+00
  0.00000000E+00  0.00000000E+00  0.00000000E+00  0.00000000E+00  0.00000000E+00
  0.00000000E+00  0.00000000E+00  0.00000000E+00  0.00000000E+00  0.00000000E+00
  0.00000000E+00  0.00000000E+00  0.00000000E+00  0.00000000E+00  0.00000000E+00
IOpCl                                      I                0
IROHF                                      I                0
Alpha Orbital Energies                     R   N=          55
 -2.62634639E+01 -1.13073335E+01 -1.12265963E+01 -1.56474317E+00 -1.03314267E+00
 -8.58269436E-01 -6.91538830E-01 -6.80215328E-01 -6.39224179E-01 -5.74164490E-01
 -5.48513213E-01 -5.04545217E-01 -4.93059460E-01  2.40709362E-01  2.83725080E-01
  2.96912423E-01  3.05620890E-01  3.37651405E-01  3.43820364E-01  4.07684636E-01
  7.08180905E-01  7.38553906E-01  7.89240810E-01  8.05193125E-01  8.88120344E-01
  9.00369419E-01  1.09787521E+00  1.10657624E+00  1.16621329E+00  1.17821359E+00
  1.17926275E+00  1.22518586E+00  1.41634814E+00  1.57700082E+00  1.59841485E+00
  1.67346419E+00  1.74666457E+00  1.76525584E+00  2.08594931E+00  2.11540710E+00
  2.13621260E+00  2.21633632E+00  2.23229777E+00  2.30003255E+00  2.44318006E+00
  2.51682341E+00  2.56158458E+00  2.68151989E+00  2.76465168E+00  2.81517956E+00
  2.99162501E+00  3.37561125E+00  4.48609276E+00  4.61181370E+00  4.81510155E+00
Alpha MO coefficients                      R   N=        3025
  9.94431094E-01  1.77655266E-02 -6.51404631E-04  5.51771222E-04  3.89983926E-08
  8.10775918E-03  4.56754727E-04 -3.81823152E-04 -2.71520252E-08 -4.82350590E-03
 -4.73338934E-03 -4.53329453E-03  2.88958912E-04  2.02427958E-08 -1.68052914E-08
 -2.59990686E-05  9.33890397E-05  4.04020422E-04 -3.46094284E-04 -2.43273637E-08
  2.50512004E-04 -1.71599739E-04 -4.17967939E-05  3.48999859E-09  2.22867038E-04
  1.46612168E-04 -6.11713770E-05 -2.30494785E-04 -1.79322292E-08  1.54074541E-08
  6.42023851E-06  9.40266717E-05 -1.24593905E-05 -3.96229601E-06  1.98764920E-10
 -2.36175389E-04 -2.02887898E-04 -3.28505974E-05  4.91758410E-09 -7.11524951E-05
 -5.24654976E-06 -2.49397242E-06 -3.57851226E-06  2.19411017E-09  1.11597378E-12
 -1.26903398E-05 -6.33353497E-05 -1.26903511E-05 -6.33353875E-05  9.65288362E-06
 -5.07047400E-05  2.92947024E-05 -2.51149952E-05  2.92947458E-05 -2.51152089E-05
 -1.63306694E-04 -1.03721768E-04 -2.30219568E-04  1.99324811E-04  1.39451404E-08
  1.71241821E-03  5.45406383E-04 -5.43833189E-04 -3.56303908E-08 -7.37568110E-04
 -5.48954172E-04 -8.20032848E-06  6.52991498E-04  4.82610403E-08 -4.16641235E-08
  9.95906100E-01  2.70807401E-02  8.80663478E-04 -8.20857842E-04 -5.54249366E-08
 -1.33837453E-02  1.14564788E-03  2.20195466E-04 -2.56013547E-08 -1.30824695E-03
 -1.37381270E-03 -1.47031015E-03 -2.18526298E-04 -1.33816116E-08  1.04204151E-08
  3.84744101E-03  9.78970390E-05 -2.14299052E-05  2.72156479E-05  1.63264633E-09
  3.80147303E-03  1.75849423E-03  9.59303245E-04 -1.75173303E-08 -3.79931396E-04
 -1.93042659E-04 -1.44548157E-04 -1.40500824E-04  2.94488540E-09  2.12809159E-09
  1.23771623E-04  2.44785170E-03  1.23771651E-04  2.44785185E-03 -1.26914196E-04
  1.57043734E-04 -1.64815075E-04  1.09383201E-04 -1.64815058E-04  1.09383640E-04
 -3.54813919E-05 -2.50793671E-04  8.03082692E-05  5.24792552E-06 -2.14684816E-09
  5.29439083E-04 -1.59866986E-04 -1.30985519E-06  4.57128218E-09 -3.60758723E-05
 -1.56507828E-04 -2.66862350E-04  2.94502972E-05 -6.74305596E-09  3.74451395E-09
 -4.16752920E-03 -3.74893002E-06 -5.44944138E-05  3.18271520E-05  2.77423154E-09
  3.71227737E-03 -1.50233725E-03 -8.09938556E-04  1.49159091E-08 -4.23914672E-04
 -2.80437886E-04 -9.81934325E-05 -1.57692879E-04  5.41150846E-09 -2.94021906E-09
  9.95701142E-01  2.86000271E-02  9.47728903E-05  1.11144063E-04  1.28386093E-09
 -1.50032601E-02 -6.55144178E-04 -3.44902821E-04  6.48526813E-09 -1.88084041E-03
 -1.88811512E-03 -1.88230805E-03 -1.47684552E-05 -5.63010115E-10  2.48803065E-10
 -1.42722706E-04  1.51298713E-05 -1.42722748E-04  1.51297880E-05  1.09342048E-04
  2.51450289E-03  1.42251970E-04  2.56832674E-03  1.42252135E-04  2.56832697E-03
 -2.22120352E-01  5.14859477E-01 -4.49219076E-02  3.62782821E-02  2.62617230E-06
  4.47203174E-01 -3.12743905E-02  2.46663629E-02  1.80686365E-06  3.08804034E-02
  2.72505099E-02  2.06197440E-02 -9.56975478E-03 -6.92618432E-07  5.56775777E-07
 -5.17834881E-02  9.30439675E-02  5.91079439E-02 -5.02181827E-02 -3.54464194E-06
  2.28498844E-02  6.65299313E-03  1.55701764E-03 -1.38180669E-07  8.43902276E-03
  4.46378274E-03 -5.77414874E-03 -1.54888359E-02 -1.03981141E-06  8.80699638E-07
 -7.52412850E-03  1.18083463E-02  1.31418416E-02  3.23911779E-03 -2.69220977E-07
  1.38877713E-02  8.20479882E-03  1.58574887E-03 -1.86809154E-07  4.12802611E-03
  2.88944929E-04 -2.32483534E-04  2.01948661E-03 -7.49933604E-08 -3.80751196E-08
  1.50243041E-02  1.96288593E-03  1.50243049E-02  1.96288698E-03  1.25492464E-03
  5.84163301E-04  2.02526945E-03  1.49184033E-03  2.02527298E-03  1.49184505E-03
  4.74725105E-02 -1.03588863E-01 -9.38514297E-02  5.18080128E-02  4.62423104E-06
 -1.50272782E-01 -5.37228709E-02  3.15276184E-02  2.71508833E-06  6.32711914E-03
  1.70499889E-03 -2.82708709E-03 -7.37189998E-03 -5.76198274E-07  4.05008854E-07
 -1.31614592E-01  2.60947711E-01 -9.66943316E-02 -1.46219524E-02  2.31859103E-06
  1.98654198E-01 -2.87092045E-02  1.14006760E-02  1.25332865E-06  5.12462071E-03
  3.35270986E-03  5.50489498E-03  1.31247319E-02  4.85108021E-07 -4.75249760E-07
 -1.52156186E-01  2.83360292E-01  5.15527725E-02  3.66363412E-02 -1.87429612E-07
  2.56357847E-01  3.04583573E-03  8.35764224E-03  2.25388454E-07  1.02688535E-02
  7.17940343E-03  5.00974605E-03  4.04068601E-03 -3.15137819E-08 -2.77195976E-08
  8.07826161E-02  1.44007372E-02  8.07826154E-02  1.44007354E-02  9.17300957E-02
  1.39914663E-02  8.79516062E-02  1.66310736E-02  8.79516141E-02  1.66310597E-02
 -4.19367710E-02  8.83821146E-02  1.14808423E-01 -1.82837761E-01 -9.94769219E-06
  1.54416666E-01  7.59683271E-02 -1.14377815E-01 -6.34481098E-06 -7.30927016E-03
 -9.65175815E-03  2.17079868E-03  1.32071168E-02  7.96605288E-07 -8.79316861E-07
  1.23827839E-01 -2.48262354E-01 -9.56917829E-02 -1.07361337E-01 -1.03991590E-06
 -2.48498643E-01 -6.98307818E-03 -5.02569381E-02 -1.59748178E-06  8.35046264E-03
 -3.10648066E-03 -1.56561018E-02  6.95560431E-03 -5.64857321E-07  3.16777598E-07
 -1.16215081E-01  2.14665291E-01 -9.36955664E-02 -6.69752290E-02  3.59018922E-07
  2.58337877E-01 -2.54537168E-02 -1.56834738E-02  1.79664488E-07 -4.77402483E-03
  5.53494658E-03  1.18858072E-02 -1.19516741E-02  1.38767659E-07  8.87475352E-08
 -1.27390952E-01 -4.61644103E-02 -1.27390958E-01 -4.61644109E-02  1.01416766E-01
  4.08275073E-02  1.07434520E-01  4.04782624E-02  1.07434520E-01  4.04782788E-02
  6.89928356E-09 -1.54203277E-08  1.26982117E-05 -1.56997123E-05  4.35915906E-01
 -2.61980762E-08  8.59542311E-06 -1.06303340E-05  2.95172419E-01 -7.11305844E-07
 -7.32425091E-07  1.44585411E-06  8.48384171E-07 -1.40782320E-02  1.17214883E-02
 -8.20296462E-10  1.69849268E-09  8.91323923E-06 -1.09591057E-05  3.02867327E-01
 -4.57183836E-09  4.59243841E-06 -5.64973726E-06  1.56356822E-01  4.92839414E-07
 -7.57675674E-07  2.64115267E-07  8.16588294E-09  9.66424974E-03  1.22247502E-02
  9.17334590E-09 -1.50722811E-08  4.12325125E-06 -5.00068883E-06  1.38517198E-01
 -3.47618414E-08  1.45451682E-06 -1.75897331E-06  4.88414827E-02  2.46821781E-07
  4.21129278E-07 -6.67907394E-07 -3.72955560E-07  4.74733279E-03 -6.61629419E-03
  1.32433700E-01  7.63682981E-02 -1.32433741E-01 -7.63683240E-02  2.91694764E-08
  1.76519068E-08 -6.37899181E-02 -4.72200687E-02  6.37898663E-02  4.72200484E-02
 -2.67795240E-02  5.35228516E-02  4.83443340E-01  4.89243061E-02 -1.23406979E-05
  1.09886655E-01  3.38268650E-01  2.90295866E-02 -8.82333266E-06 -2.58602112E-02
  3.44126956E-03  2.31087399E-03  1.20533578E-02  1.38621693E-06 -3.04162213E-07
 -2.83262465E-03 -1.24261273E-03 -4.89988254E-02  2.72617529E-01  1.13285464E-05
  4.96174815E-02  1.39401413E-02  1.01637681E-01  3.27940742E-06 -6.24704500E-03
 -1.26602853E-02  1.90787131E-02  1.54745642E-02  1.41880435E-06 -1.76878284E-06
 -9.63089264E-03  1.73494834E-02 -1.31857893E-01  8.93588924E-02  7.11593300E-06
  2.87869892E-02 -6.68449976E-02  5.60605802E-02  4.00011172E-06 -2.15539434E-03
  6.75520929E-03 -3.73571556E-03 -7.40685427E-03 -3.31911902E-07  6.72726903E-07
  8.85040207E-02  5.56195207E-02  8.85039466E-02  5.56194630E-02  9.96259766E-02
  5.84112855E-02 -1.59779069E-02 -1.00821803E-02 -1.59780062E-02 -1.00822431E-02
  1.94475131E-02 -3.09078184E-02  1.05602363E-02  5.19821032E-01  1.84400168E-05
 -1.00669311E-01  8.20717583E-03  3.69331612E-01  1.30822895E-05  1.80293064E-03
  2.33481816E-02  1.17648352E-03 -1.57618590E-02 -5.89861861E-07  1.38577466E-06
  3.06989786E-02 -6.04337520E-02  2.46249988E-01 -5.20428572E-02 -9.10432096E-06
 -1.10181280E-01  1.15938911E-01 -7.61864885E-04 -3.43690666E-06  1.75566775E-02
 -4.84869640E-03 -8.67368153E-03 -2.02472909E-02 -1.61673268E-06  7.53778678E-07
 -2.12162608E-02  3.69556115E-02 -1.45265227E-01 -1.41722204E-01 -8.70356611E-07
  9.84661936E-02 -7.28213557E-02 -4.06548730E-02  6.85237801E-07 -6.61933329E-03
  1.37060192E-03  1.22384109E-02 -9.99225459E-03  2.85486984E-07 -1.56563402E-07
 -4.11090882E-02 -2.45440843E-02 -4.11090935E-02 -2.45440909E-02  3.56585807E-02
  8.51028317E-03  7.35159032E-02  4.26697112E-02  7.35158641E-02  4.26696471E-02
 -1.39593546E-09  1.11921339E-08  1.18428021E-05 -1.45954591E-05  4.02458534E-01
 -1.13843689E-08  8.88075899E-06 -1.09386157E-05  3.01569673E-01 -4.47159422E-07
 -4.43800220E-07  9.00326531E-07  5.31593912E-07 -8.83427253E-03  7.13942017E-03
 -9.91138505E-09  1.90601776E-08 -3.47488239E-06  4.27816761E-06 -1.17512127E-01
  5.43355032E-08 -7.33105030E-08  6.82680617E-08 -1.98040201E-03  8.08522820E-07
  7.86245834E-07 -1.59277932E-06 -9.41341838E-07  1.60541367E-02 -1.25688436E-02
  1.11762597E-09  7.07873595E-09 -9.90478211E-06  1.20459443E-05 -3.37949921E-01
 -4.75140238E-08 -6.21862354E-06  7.56111238E-06 -2.11198656E-01 -2.61446395E-08
 -1.55854023E-06  1.58571139E-06  7.62399871E-07 -1.68421804E-04  2.45268006E-02
 -6.64141216E-02 -6.35522776E-02  6.64141833E-02  6.35523377E-02 -2.45417468E-07
 -2.03635072E-07  1.77040001E-01  1.14114292E-01 -1.77039768E-01 -1.14114071E-01
 -1.17511825E-03 -1.91802265E-03 -2.04628078E-01  3.28990416E-02  7.33183800E-06
  1.70961394E-02 -1.61438178E-01  2.83796615E-02  5.86702932E-06  6.43037306E-03
 -2.91360360E-03 -4.43186148E-03 -6.91037189E-03 -6.20050326E-07  2.69075744E-07
  1.22796967E-02 -2.20875588E-02  2.90491107E-02 -8.30350276E-02 -3.87661305E-06
 -5.75059523E-02 -1.61122191E-04 -3.40146607E-02 -1.22842419E-06  1.34094604E-02
 -4.08087172E-03 -1.12230268E-02 -1.66283265E-02 -1.43066924E-06  7.85295590E-07
  1.98152060E-03 -7.68851488E-03 -2.17956132E-01  3.47480733E-01  1.88098766E-05
 -2.17369581E-03 -1.03929460E-01  1.86905586E-01  9.69861945E-06  2.35538382E-02
  2.23295592E-03 -2.55083105E-02 -2.37073494E-02 -2.56008370E-06  1.91635247E-06
 -4.68938326E-02 -3.97794872E-02 -4.68937940E-02 -3.97794726E-02  2.63640725E-01
  2.30111628E-01 -1.31421266E-01 -1.05418848E-01 -1.31421726E-01 -1.05419188E-01
 -4.36528781E-05  4.70936789E-03  2.49687792E-01  2.66451390E-01  2.47928378E-06
 -1.40435058E-02  2.01985104E-01  2.11778799E-01  1.87215207E-06 -3.82514864E-03
  7.08937903E-03  1.03514013E-03 -1.27784928E-05  1.60379482E-07  2.54057197E-07
 -1.24305976E-02  3.48876761E-02 -2.55807036E-01 -2.63681317E-01 -2.19325270E-06
  1.64781115E-02 -7.15503731E-02 -1.15349132E-01 -2.14681697E-06  2.96140709E-02
 -1.45318099E-02 -1.95671236E-02  1.42410014E-02 -1.15454297E-06 -2.37683551E-07
 -2.15696059E-02  4.89652646E-02  2.99780114E-01  1.84110647E-01 -2.09228511E-06
  9.61488358E-02  1.31404559E-01  1.36071958E-01  1.11227117E-06  1.23650473E-02
 -3.27838392E-03 -1.28743452E-02  1.79462939E-02 -2.19136830E-07 -1.44888951E-07
 -1.10612179E-01 -1.06304567E-01 -1.10611901E-01 -1.06304302E-01 -6.50289348E-02
 -9.19202112E-02 -6.49003884E-02 -6.85811185E-02 -6.49002226E-02 -6.85809905E-02
 -4.98890815E-10  8.67247148E-09 -8.34415700E-06  1.05315869E-05 -2.88689443E-01
 -1.40659916E-08 -6.83541790E-06  8.63116486E-06 -2.36630422E-01  2.35624933E-07
  9.50309637E-08 -3.21022686E-07 -2.08191906E-07  4.62103901E-03 -1.42926390E-03
 -1.31485289E-08  3.42727786E-08  9.47591443E-06 -1.20045855E-05  3.28603990E-01
  3.15921854E-08  3.86636811E-06 -4.89519144E-06  1.33685253E-01  7.64721827E-08
 -2.61924089E-06  2.54051222E-06  1.20046094E-06  1.12415691E-03  4.18766301E-02
 -1.56590183E-08  3.32177870E-08 -6.99472280E-06  8.91526141E-06 -2.44435972E-01
  7.32202211E-08 -3.62088352E-06  4.61598672E-06 -1.26773838E-01  4.00346404E-07
 -1.75400219E-06  1.34900883E-06  5.67375254E-07  7.87903532E-03  2.77205751E-02
  2.00834199E-01  2.01461190E-01 -2.00834345E-01 -2.01461325E-01 -1.88422288E-07
 -1.72619815E-07  1.46755029E-01  1.53422493E-01 -1.46754994E-01 -1.53422507E-01
 -4.46375147E-03  3.64425991E-02 -2.09275486E-02 -4.70887877E-02 -1.07833057E-06
 -1.08930590E-02 -4.22894537E-02 -7.39667289E-02 -1.42485006E-06  1.73326209E-02
  1.33314624E-02  8.18886121E-03 -4.40848117E-03 -4.68185930E-07  3.43598934E-07
 -7.72122782E-02  8.24997672E-02  9.90614573E-03  1.56273843E-01  5.33607085E-06
  1.36804325E+00  6.96169322E-02  6.53365170E-01  2.15910346E-05 -3.55280283E-03
 -2.32958355E-03 -9.90176063E-03  5.15423354E-03 -2.63726284E-08  1.64943011E-07
 -9.56718452E-02  6.87874510E-02 -1.20877167E-01 -3.77015439E-02  2.16079520E-06
  1.72866949E+00 -4.31820091E-01 -3.73861328E-01 -1.02909427E-06 -6.12545717E-03
 -3.05114651E-03 -1.23417937E-02  6.08670082E-03  1.22699937E-08  2.03634492E-07
  2.91211302E-03 -9.77093361E-01  2.91210232E-03 -9.77093243E-01  8.33613848E-04
 -8.91162474E-01 -1.22343154E-03 -8.41007757E-01 -1.22341234E-03 -8.41007022E-01
  3.20921016E-02 -3.24344365E-02  6.89241194E-02 -7.59459917E-02 -4.68320262E-06
 -3.39101602E-01  1.23263934E-01 -1.18793567E-01 -7.79230593E-06  1.45273604E-02
  9.23012940E-03  1.59762373E-02  6.11611256E-03  2.73357514E-07 -4.54241702E-07
  6.19149785E-02 -3.93588891E-03  1.33737570E-01 -1.92056167E-01 -1.09655744E-05
 -1.52514510E+00  6.92397259E-01 -4.50510076E-01 -3.71524136E-05  1.68921927E-03
  1.31626800E-02  1.26281670E-02  1.36987265E-02  8.61859295E-07 -3.74740252E-07
 -1.02210887E-01  5.10154851E-02  2.47849258E-02 -1.01383931E-01 -4.32379322E-06
  2.04719097E+00  3.00305967E-01 -2.17455432E-01 -1.60526030E-05  9.82178793E-03
 -1.87382488E-02 -9.18191662E-03 -1.08683265E-02 -1.05645277E-06 -6.00977338E-08
  2.55671756E-02  8.52234642E-01  2.55671668E-02  8.52233555E-01  6.34177369E-02
 -8.30093261E-02 -3.04110376E-02 -1.02478009E+00 -3.04111478E-02 -1.02478184E+00
 -3.03137570E-08  2.39606999E-07 -1.15895739E-06  1.08923847E-06 -2.95660596E-02
 -2.22687903E-07 -3.02884967E-06  3.53324597E-06 -9.58902899E-02 -1.01205639E-07
  6.38719722E-08  2.38498276E-07  9.89992759E-08 -2.94342634E-03  3.03955966E-05
  1.50489908E-07 -1.52636569E-07  7.78790321E-06 -9.77968444E-06  2.70993514E-01
 -2.60208122E-06  2.46657383E-05 -3.18521183E-05  8.36607741E-01 -8.44181743E-07
  7.02132107E-07  1.76179589E-07  2.34308870E-07 -1.74052802E-02 -1.18069628E-02
 -1.46352212E-07  5.68829116E-08  6.31677683E-06 -7.88522068E-06  2.36141762E-01
  2.72546081E-06  2.26926488E-05 -2.76363965E-05  8.63699509E-01  6.58809013E-07
 -1.00493470E-06  3.00692297E-07 -1.25898841E-08  1.38888665E-02  1.55844387E-02
 -4.21960879E-02 -1.11085874E+00  4.21961768E-02  1.11086247E+00 -2.34805596E-07
 -7.49840854E-06  5.15661936E-02  1.12023844E+00 -5.15659748E-02 -1.12023517E+00
  2.63752927E-02 -6.05384282E-02  1.23984393E-01 -6.00144347E-02 -5.76775636E-06
 -1.93642220E-01  1.56053485E-01 -1.15559284E-01 -8.87407964E-06  1.94041650E-03
 -2.26313549E-03 -5.71506300E-03  2.61077509E-03 -1.67090298E-07  7.48934552E-08
 -7.63409269E-02  8.17678390E-02  9.05397303E-02 -1.60212219E-02 -2.60628770E-06
  1.20480793E+00  1.16506689E-01  3.41612433E-01  1.03520677E-05 -1.35594788E-02
  8.34118087E-03 -6.79124742E-04  1.71119737E-02  9.82679645E-07 -1.56870906E-07
  5.20623330E-02 -1.86776747E-02  1.82076044E-01 -1.78524523E-01 -1.08941192E-05
 -9.45489176E-01  7.10061665E-01 -1.01038134E+00 -5.34892137E-05  1.92939419E-02