
    -----------------------------------------------------------------------
          Psi4: An Open-Source Ab Initio Electronic Structure Package
                               Psi4 1.4a3.dev225 

                         Git: Rev {master} 7105e37 


    D. G. A. Smith, L. A. Burns, A. C. Simmonett, R. M. Parrish,
    M. C. Schieber, R. Galvelis, P. Kraus, H. Kruse, R. Di Remigio,
    A. Alenaizan, A. M. James, S. Lehtola, J. P. Misiewicz, M. Scheurer,
    R. A. Shaw, J. B. Schriber, Y. Xie, Z. L. Glick, D. A. Sirianni,
    J. S. O'Brien, J. M. Waldrop, A. Kumar, E. G. Hohenstein,
    B. P. Pritchard, B. R. Brooks, H. F. Schaefer III, A. Yu. Sokolov,
    K. Patkowski, A. E. DePrince III, U. Bozkaya, R. A. King,
    F. A. Evangelista, J. M. Turney, T. D. Crawford, C. D. Sherrill,
    J. Chem. Phys. 152(18) 184108 (2020). https://doi.org/10.1063/5.0006002

                            Additional Code Authors
    E. T. Seidl, C. L. Janssen, E. F. Valeev, M. L. Leininger,
    J. F. Gonthier, R. M. Richard, H. R. McAlexander, M. Saitow, X. Wang,
    P. Verma, and M. H. Lechner

             Previous Authors, Complete List of Code Contributors,
                       and Citations for Specific Modules
    https://github.com/psi4/psi4/blob/master/codemeta.json
    https://github.com/psi4/psi4/graphs/contributors
    http://psicode.org/psi4manual/master/introduction.html#citing-psifour

    -----------------------------------------------------------------------


    Psi4 started on: Saturday, 06 March 2021 06:18PM

    Process ID: 125386
    Host:       c418-093.stampede2.tacc.utexas.edu
    PSIDATADIR: /home1/07844/xy3866/miniconda3/envs/p4env/share/psi4
    Memory:     500.0 MiB
    Threads:    32
    
  ==> Input File <==

--------------------------------------------------------------------------
#psi4
#
memory 32 gb

molecule  {
0 1
  I       -1.0623046     0.0057320    -0.0638604
  C        1.9876030    -0.5024530    -0.0000080
  C        0.9983820     0.6513080    -0.0000070
  C        3.4267560     0.0178820     0.0000080
  H        1.8145770    -1.1305720     0.8787430
  H        1.8145880    -1.1305600    -0.8787710
  H        1.1000060     1.2738310    -0.8896230
  H        1.1000140     1.2738370     0.8896040
  H        4.1383040    -0.8116210    -0.0000480
  H        3.6258980     0.6289730    -0.8845580
  H        3.6259130     0.6288710     0.8846400
units angstrom
no_reorient  #important for SAPT in psi4, default
symmetry c1  #important for SAPT in psi4, default
}

set PROPERTIES_ORIGIN ["COM"]
properties('MP2/aug-cc-pvtz', properties = ['dipole'])
--------------------------------------------------------------------------

  Memory set to  29.802 GiB by Python driver.
    SCF Algorithm Type (re)set to DF.

*** tstart() called on c418-093.stampede2.tacc.utexas.edu
*** at Sat Mar  6 18:18:30 2021

   => Loading Basis Set <=

    Name: AUG-CC-PVTZ
    Role: ORBITAL
    Keyword: BASIS
    atoms 1    entry I          line  4496 (ECP: line  4576) file /home1/07844/xy3866/miniconda3/envs/p4env/share/psi4/basis/aug-cc-pvtz.gbs 
    atoms 2-4  entry C          line   239 file /home1/07844/xy3866/miniconda3/envs/p4env/share/psi4/basis/aug-cc-pvtz.gbs 
    atoms 5-11 entry H          line    40 file /home1/07844/xy3866/miniconda3/envs/p4env/share/psi4/basis/aug-cc-pvtz.gbs 

    !!!  WARNING: ECP capability is in beta. Please check occupations closely.  !!!


         ---------------------------------------------------------
                                   SCF
               by Justin Turney, Rob Parrish, Andy Simmonett
                          and Daniel G. A. Smith
                              RHF Reference
                       32 Threads,  30517 MiB Core
         ---------------------------------------------------------

  ==> Geometry <==

    Molecular point group: c1
    Full point group: C1

    Geometry (in Angstrom), charge = 0, multiplicity = 1:

       Center              X                  Y                   Z               Mass       
    ------------   -----------------  -----------------  -----------------  -----------------
         I           -0.823987054074    -0.014665556205    -0.016176807750   126.904471900000
         C            2.225920545926    -0.522850556205     0.047675592250    12.000000000000
         C            1.236699545926     0.630910443795     0.047676592250    12.000000000000
         C            3.665073545926    -0.002515556205     0.047691592250    12.000000000000
         H            2.052894545926    -1.150969556205     0.926426592250     1.007825032230
         H            2.052905545926    -1.150957556205    -0.831087407750     1.007825032230
         H            1.338323545926     1.253433443795    -0.841939407750     1.007825032230
         H            1.338331545926     1.253439443795     0.937287592250     1.007825032230
         H            4.376621545926    -0.832018556205     0.047635592250     1.007825032230
         H            3.864215545926     0.608575443795    -0.836874407750     1.007825032230
         H            3.864230545926     0.608473443795     0.932323592250     1.007825032230

  Running in c1 symmetry.

  Rotational constants: A =      0.83969  B =      0.04305  C =      0.04192 [cm^-1]
  Rotational constants: A =  25173.26956  B =   1290.67101  C =   1256.66640 [MHz]
  Nuclear repulsion =  182.323596372515283

  Charge       = 0
  Multiplicity = 1
  Electrons    = 50
  Nalpha       = 25
  Nbeta        = 25

  ==> Algorithm <==

  SCF Algorithm Type is DF.
  DIIS enabled.
  MOM disabled.
  Fractional occupation disabled.
  Guess Type is SAD.
  Energy threshold   = 1.00e-10
  Density threshold  = 1.00e-10
  Integral threshold = 1.00e-12

  ==> Primary Basis <==

  Basis Set: AUG-CC-PVTZ
    Blend: AUG-CC-PVTZ
    Number of shells: 122
    Number of basis functions: 354
    Number of Cartesian functions: 405
    Spherical Harmonics?: true
    Max angular momentum: 3

  Core potential: AUG-CC-PVTZ
    Number of shells: 5
    Number of ECP primitives: 16
    Number of ECP core electrons: 28
    Max angular momentum: 4

   => Loading Basis Set <=

    Name: (AUG-CC-PVTZ AUX)
    Role: JKFIT
    Keyword: DF_BASIS_SCF
    atoms 1    entry I          line  4980 file /home1/07844/xy3866/miniconda3/envs/p4env/share/psi4/basis/def2-universal-jkfit.gbs 
    atoms 2-4  entry C          line   162 file /home1/07844/xy3866/miniconda3/envs/p4env/share/psi4/basis/aug-cc-pvtz-jkfit.gbs 
    atoms 5-11 entry H          line    70 file /home1/07844/xy3866/miniconda3/envs/p4env/share/psi4/basis/aug-cc-pvtz-jkfit.gbs 

  ==> Integral Setup <==

  DFHelper Memory: AOs need 0.854 GiB; user supplied 22.352 GiB. Using in-core AOs.

  ==> MemDFJK: Density-Fitted J/K Matrices <==

    J tasked:                   Yes
    K tasked:                   Yes
    wK tasked:                   No
    OpenMP threads:              32
    Memory [MiB]:             22888
    Algorithm:                 Core
    Schwarz Cutoff:           1E-12
    Mask sparsity (%):       0.9815
    Fitting Condition:        1E-10

   => Auxiliary Basis Set <=

  Basis Set: (AUG-CC-PVTZ AUX)
    Blend: AUG-CC-PVTZ-JKFIT + DEF2-UNIVERSAL-JKFIT
    Number of shells: 234
    Number of basis functions: 852
    Number of Cartesian functions: 1087
    Spherical Harmonics?: true
    Max angular momentum: 5

  Minimum eigenvalue in the overlap matrix is 1.7044182362E-05.
  Reciprocal condition number of the overlap matrix is 1.0232607741E-06.
    Using symmetric orthogonalization.

  ==> Pre-Iterations <==

  SCF Guess: Superposition of Atomic Densities via on-the-fly atomic UHF (no occupation information).

   -------------------------
    Irrep   Nso     Nmo    
   -------------------------
     A        354     354 
   -------------------------
    Total     354     354
   -------------------------

  ==> Iterations <==

                           Total Energy        Delta E     RMS |[F,P]|

   @DF-RHF iter SAD:  -409.36857486912368   -4.09369e+02   0.00000e+00 
   @DF-RHF iter   1:  -411.99030938244761   -2.62173e+00   2.40593e-03 DIIS
   @DF-RHF iter   2:  -412.33306271128617   -3.42753e-01   1.13532e-03 DIIS
   @DF-RHF iter   3:  -412.38572513538310   -5.26624e-02   1.35219e-04 DIIS
   @DF-RHF iter   4:  -412.38799279562443   -2.26766e-03   6.21447e-05 DIIS
   @DF-RHF iter   5:  -412.38829306906075   -3.00273e-04   1.71531e-05 DIIS
   @DF-RHF iter   6:  -412.38832784374910   -3.47747e-05   2.71796e-06 DIIS
   @DF-RHF iter   7:  -412.38832904492727   -1.20118e-06   8.67480e-07 DIIS
   @DF-RHF iter   8:  -412.38832918474031   -1.39813e-07   3.34547e-07 DIIS
   @DF-RHF iter   9:  -412.38832921280385   -2.80635e-08   1.18250e-07 DIIS
   @DF-RHF iter  10:  -412.38832921713669   -4.33283e-09   2.81211e-08 DIIS
   @DF-RHF iter  11:  -412.38832921734655   -2.09866e-10   6.76587e-09 DIIS
   @DF-RHF iter  12:  -412.38832921735752   -1.09708e-11   2.42336e-09 DIIS
   @DF-RHF iter  13:  -412.38832921735883   -1.30740e-12   9.82838e-10 DIIS
   @DF-RHF iter  14:  -412.38832921735894   -1.13687e-13   3.46437e-10 DIIS
   @DF-RHF iter  15:  -412.38832921735934   -3.97904e-13   7.67526e-11 DIIS
  Energy and wave function converged.


  ==> Post-Iterations <==

    Orbital Energies [Eh]
    ---------------------

    Doubly Occupied:                                                      

       1A    -11.284684     2A    -11.241724     3A    -11.228932  
       4A     -7.706584     5A     -5.537786     6A     -5.528969  
       7A     -5.528901     8A     -2.267062     9A     -2.262741  
      10A     -2.262675    11A     -2.252896    12A     -2.252895  
      13A     -1.083907    14A     -0.963402    15A     -0.856343  
      16A     -0.806841    17A     -0.658532    18A     -0.597235  
      19A     -0.568229    20A     -0.556340    21A     -0.507684  
      22A     -0.495320    23A     -0.432792    24A     -0.356875  
      25A     -0.356273  

    Virtual:                                                              

      26A      0.027338    27A      0.037641    28A      0.039531  
      29A      0.044657    30A      0.060193    31A      0.062880  
      32A      0.063731    33A      0.066655    34A      0.093767  
      35A      0.105554    36A      0.119231    37A      0.123980  
      38A      0.125654    39A      0.128814    40A      0.137360  
      41A      0.138306    42A      0.141685    43A      0.151958  
      44A      0.158772    45A      0.165418    46A      0.165625  
      47A      0.190435    48A      0.197873    49A      0.210353  
      50A      0.216515    51A      0.225872    52A      0.239551  
      53A      0.245837    54A      0.256083    55A      0.257389  
      56A      0.271895    57A      0.279110    58A      0.292169  
      59A      0.309986    60A      0.317858    61A      0.325639  
      62A      0.330350    63A      0.339293    64A      0.347482  
      65A      0.355418    66A      0.360613    67A      0.361617  
      68A      0.368340    69A      0.378542    70A      0.387455  
      71A      0.390308    72A      0.393336    73A      0.397582  
      74A      0.402227    75A      0.416024    76A      0.417350  
      77A      0.434896    78A      0.436324    79A      0.442143  
      80A      0.442752    81A      0.448453    82A      0.451843  
      83A      0.478417    84A      0.481859    85A      0.492929  
      86A      0.499886    87A      0.505169    88A      0.515744  
      89A      0.521689    90A      0.526472    91A      0.530529  
      92A      0.536496    93A      0.558738    94A      0.569501  
      95A      0.582039    96A      0.589345    97A      0.595057  
      98A      0.597732    99A      0.623327   100A      0.645825  
     101A      0.668070   102A      0.670933   103A      0.684623  
     104A      0.698474   105A      0.703918   106A      0.717326  
     107A      0.742215   108A      0.748974   109A      0.760884  
     110A      0.765680   111A      0.773549   112A      0.776554  
     113A      0.809616   114A      0.813672   115A      0.825126  
     116A      0.830492   117A      0.835137   118A      0.839232  
     119A      0.852820   120A      0.854227   121A      0.875702  
     122A      0.884841   123A      0.894097   124A      0.898214  
     125A      0.905894   126A      0.917220   127A      0.924278  
     128A      0.931361   129A      0.934833   130A      0.954066  
     131A      0.956228   132A      0.967788   133A      0.979873  
     134A      0.984953   135A      1.002771   136A      1.015619  
     137A      1.027524   138A      1.046778   139A      1.058391  
     140A      1.067980   141A      1.076340   142A      1.094649  
     143A      1.103999   144A      1.114190   145A      1.123513  
     146A      1.129379   147A      1.136482   148A      1.159879  
     149A      1.172101   150A      1.175509   151A      1.199750  
     152A      1.221234   153A      1.227581   154A      1.230962  
     155A      1.241144   156A      1.260050   157A      1.264752  
     158A      1.280408   159A      1.300974   160A      1.302367  
     161A      1.320533   162A      1.324293   163A      1.370124  
     164A      1.374996   165A      1.382420   166A      1.418995  
     167A      1.431788   168A      1.436056   169A      1.442576  
     170A      1.484238   171A      1.494977   172A      1.514805  
     173A      1.521753   174A      1.535250   175A      1.551420  
     176A      1.556555   177A      1.558948   178A      1.568067  
     179A      1.601657   180A      1.609456   181A      1.623761  
     182A      1.637478   183A      1.650200   184A      1.653327  
     185A      1.661524   186A      1.666235   187A      1.669330  
     188A      1.673329   189A      1.673797   190A      1.691358  
     191A      1.707396   192A      1.734977   193A      1.736670  
     194A      1.752612   195A      1.755340   196A      1.770898  
     197A      1.773574   198A      1.808917   199A      1.819413  
     200A      1.829479   201A      1.837492   202A      1.851250  
     203A      1.886712   204A      1.888873   205A      1.908791  
     206A      1.915288   207A      1.934743   208A      1.938128  
     209A      1.953855   210A      1.976752   211A      1.991846  
     212A      2.004261   213A      2.015951   214A      2.054262  
     215A      2.062786   216A      2.089890   217A      2.098318  
     218A      2.129913   219A      2.142318   220A      2.203372  
     221A      2.216110   222A      2.231428   223A      2.234073  
     224A      2.256241   225A      2.270396   226A      2.290111  
     227A      2.307879   228A      2.311385   229A      2.377431  
     230A      2.402332   231A      2.428822   232A      2.445951  
     233A      2.473568   234A      2.484130   235A      2.547925  
     236A      2.564517   237A      2.687801   238A      2.762565  
     239A      2.963995   240A      3.157095   241A      3.209009  
     242A      3.256328   243A      3.286455   244A      3.307234  
     245A      3.375332   246A      3.382171   247A      3.429570  
     248A      3.431371   249A      3.483077   250A      3.502735  
     251A      3.520805   252A      3.548619   253A      3.558228  
     254A      3.589653   255A      3.609283   256A      3.654864  
     257A      3.679809   258A      3.689657   259A      3.705557  
     260A      3.722989   261A      3.758952   262A      3.759755  
     263A      3.774005   264A      3.792310   265A      3.803070  
     266A      3.827060   267A      3.831261   268A      3.876716  
     269A      3.908839   270A      3.916643   271A      3.921570  
     272A      3.952180   273A      3.961071   274A      3.973042  
     275A      4.000201   276A      4.001494   277A      4.032443  
     278A      4.043994   279A      4.092783   280A      4.120957  
     281A      4.156518   282A      4.175641   283A      4.197620  
     284A      4.216697   285A      4.239317   286A      4.245416  
     287A      4.252257   288A      4.256656   289A      4.345825  
     290A      4.364973   291A      4.438741   292A      4.449155  
     293A      4.469415   294A      4.534785   295A      4.542945  
     296A      4.624492   297A      4.639490   298A      4.645314  
     299A      4.674982   300A      4.695289   301A      4.745970  
     302A      4.791464   303A      4.793550   304A      4.837396  
     305A      4.843292   306A      4.851748   307A      4.888398  
     308A      4.960205   309A      4.989723   310A      5.009139  
     311A      5.031693   312A      5.036200   313A      5.050752  
     314A      5.073354   315A      5.131870   316A      5.138007  
     317A      5.159534   318A      5.216467   319A      5.234862  
     320A      5.257380   321A      5.301500   322A      5.351986  
     323A      5.354106   324A      5.413167   325A      5.436907  
     326A      5.438963   327A      5.520029   328A      5.528527  
     329A      5.566377   330A      5.602422   331A      5.672826  
     332A      5.712873   333A      5.715405   334A      5.800519  
     335A      5.837332   336A      5.943194   337A      5.986186  
     338A      6.007394   339A      6.110667   340A      6.135398  
     341A      6.160714   342A      6.236966   343A      6.237615  
     344A      6.295788   345A      6.395548   346A      6.709557  
     347A      6.743874   348A      6.791181   349A      6.902168  
     350A      8.118321   351A     17.032600   352A     17.541370  
     353A     18.239350   354A     59.053617  

    Final Occupation by Irrep:
              A 
    DOCC [    25 ]

  @DF-RHF Final Energy:  -412.38832921735934

   => Energetics <=

    Nuclear Repulsion Energy =            182.3235963725152828
    One-Electron Energy =               -1034.2326056454719492
    Two-Electron Energy =                 439.5206800555972677
    Total Energy =                       -412.3883292173593418

Computation Completed

*** tstop() called on c418-093.stampede2.tacc.utexas.edu at Sat Mar  6 18:19:11 2021
Module time:
	user time   =     344.30 seconds =       5.74 minutes
	system time =      15.84 seconds =       0.26 minutes
	total time  =         41 seconds =       0.68 minutes
Total time:
	user time   =     344.30 seconds =       5.74 minutes
	system time =      15.84 seconds =       0.26 minutes
	total time  =         41 seconds =       0.68 minutes
   => Loading Basis Set <=

    Name: (AUG-CC-PVTZ AUX)
    Role: RIFIT
    Keyword: DF_BASIS_MP2
    atoms 1    entry I          line  4948 file /home1/07844/xy3866/miniconda3/envs/p4env/share/psi4/basis/def2-qzvpp-ri.gbs 
    atoms 2-4  entry C          line   148 file /home1/07844/xy3866/miniconda3/envs/p4env/share/psi4/basis/aug-cc-pvtz-ri.gbs 
    atoms 5-11 entry H          line    30 file /home1/07844/xy3866/miniconda3/envs/p4env/share/psi4/basis/aug-cc-pvtz-ri.gbs 


*** tstart() called on c418-093.stampede2.tacc.utexas.edu
*** at Sat Mar  6 18:19:11 2021


  //>>>>>>>>>>>>>>>>>>>>>>>>>>>>>>>>>>>//
  //               DFMP2               //
  //<<<<<<<<<<<<<<<<<<<<<<<<<<<<<<<<<<<//

	 --------------------------------------------------------
	                          DF-MP2                         
	      2nd-Order Density-Fitted Moller-Plesset Theory     
	              RMP2 Wavefunction,  32 Threads             
	                                                         
	        Rob Parrish, Justin Turney, Andy Simmonett,      
	           Ed Hohenstein, and C. David Sherrill          
	 --------------------------------------------------------

   => Auxiliary Basis Set <=

  Basis Set: (AUG-CC-PVTZ AUX)
    Blend: AUG-CC-PVTZ-RI + DEF2-QZVPP-RI
    Number of shells: 232
    Number of basis functions: 916
    Number of Cartesian functions: 1218
    Spherical Harmonics?: true
    Max angular momentum: 6

	 --------------------------------------------------------
	                 NBF =   354, NAUX =   916
	 --------------------------------------------------------
	   CLASS    FOCC     OCC    AOCC    AVIR     VIR    FVIR
	   PAIRS       0      25      25     329     329       0
	 --------------------------------------------------------

  DFHelper Memory: AOs need 0.860 GiB; user supplied 22.352 GiB. Using in-core AOs.


         ------------------------------------------------------------
                                     CPHF                           
                                  Rob Parrish                       
         ------------------------------------------------------------

  ==> Geometry <==

    Molecular point group: c1
    Full point group: C1

    Geometry (in Angstrom), charge = 0, multiplicity = 1:

       Center              X                  Y                   Z               Mass       
    ------------   -----------------  -----------------  -----------------  -----------------
         I           -0.823987054074    -0.014665556205    -0.016176807750   126.904471900000
         C            2.225920545926    -0.522850556205     0.047675592250    12.000000000000
         C            1.236699545926     0.630910443795     0.047676592250    12.000000000000
         C            3.665073545926    -0.002515556205     0.047691592250    12.000000000000
         H            2.052894545926    -1.150969556205     0.926426592250     1.007825032230
         H            2.052905545926    -1.150957556205    -0.831087407750     1.007825032230
         H            1.338323545926     1.253433443795    -0.841939407750     1.007825032230
         H            1.338331545926     1.253439443795     0.937287592250     1.007825032230
         H            4.376621545926    -0.832018556205     0.047635592250     1.007825032230
         H            3.864215545926     0.608575443795    -0.836874407750     1.007825032230
         H            3.864230545926     0.608473443795     0.932323592250     1.007825032230

  Nuclear repulsion =  182.323596372515311
  Reference energy  = -412.388329217359342

  ==> Basis Set <==

  Basis Set: AUG-CC-PVTZ
    Blend: AUG-CC-PVTZ
    Number of shells: 122
    Number of basis functions: 354
    Number of Cartesian functions: 405
    Spherical Harmonics?: true
    Max angular momentum: 3

  Core potential: AUG-CC-PVTZ
    Number of shells: 5
    Number of ECP primitives: 16
    Number of ECP core electrons: 28
    Max angular momentum: 4

  ==> CGRSolver (by Rob Parrish) <==

   Number of roots    =         1
   Preconditioning    =    JACOBI
   Convergence cutoff =     1E-06
   Maximum iterations =       100

  ==> CPHFRHamiltonian (by Rob Parrish) <== 

  ==> MemDFJK: Density-Fitted J/K Matrices <==

    J tasked:                   Yes
    K tasked:                   Yes
    wK tasked:                   No
    OpenMP threads:              32
    Memory [MiB]:             22888
    Algorithm:                 Core
    Schwarz Cutoff:           1E-12
    Mask sparsity (%):       0.2585
    Fitting Condition:        1E-10

   => Auxiliary Basis Set <=

  Basis Set: (AUG-CC-PVTZ AUX)
    Blend: AUG-CC-PVTZ-JKFIT + DEF2-UNIVERSAL-JKFIT
    Number of shells: 234
    Number of basis functions: 852
    Number of Cartesian functions: 1087
    Spherical Harmonics?: true
    Max angular momentum: 5

  ==> CPHF Iterations <==

  => Iterations <=

             Iter  Converged  Remaining    Residual
  CGR           1          0          1   1.020E-01
  CGR           2          0          1   2.206E-02
  CGR           3          0          1   5.885E-03
  CGR           4          0          1   1.578E-03
  CGR           5          0          1   5.509E-04
  CGR           6          0          1   2.158E-04
  CGR           7          0          1   5.772E-05
  CGR           8          0          1   1.403E-05
  CGR           9          0          1   4.500E-06
  CGR          10          0          1   1.209E-06
  CGR          11          1          0   2.997E-07

    CGRSolver converged.

	-----------------------------------------------------------
	 ==================> DF-MP2 Energies <==================== 
	-----------------------------------------------------------
	 Reference Energy          =    -412.3883292173593418 [Eh]
	 Singles Energy            =      -0.0000000000000000 [Eh]
	 Same-Spin Energy          =      -0.2012272282667188 [Eh]
	 Opposite-Spin Energy      =      -0.6475834131638860 [Eh]
	 Correlation Energy        =      -0.8488106414306049 [Eh]
	 Total Energy              =    -413.2371398587899307 [Eh]
	-----------------------------------------------------------
	 ================> DF-SCS-MP2 Energies <================== 
	-----------------------------------------------------------
	 SCS Same-Spin Scale       =       0.3333333333333333 [-]
	 SCS Opposite-Spin Scale   =       1.2000000000000000 [-]
	 SCS Same-Spin Energy      =      -0.0670757427555729 [Eh]
	 SCS Opposite-Spin Energy  =      -0.7771000957966632 [Eh]
	 SCS Correlation Energy    =      -0.8441758385522361 [Eh]
	 SCS Total Energy          =    -413.2325050559115880 [Eh]
	-----------------------------------------------------------



Properties will be evaluated at   0.000000,  -0.000000,  -0.000000 [a0]

Properties computed using the MP2 density matrix

  Nuclear Dipole Moment: [e a0]
     X:    77.5808      Y:     1.6187      Z:     1.4884

  Electronic Dipole Moment: [e a0]
     X:   -76.7723      Y:    -1.4872      Z:    -1.4734

  Dipole Moment: [e a0]
     X:     0.8085      Y:     0.1315      Z:     0.0149     Total:     0.8193

  Dipole Moment: [D]
     X:     2.0551      Y:     0.3343      Z:     0.0380     Total:     2.0824


*** tstop() called on c418-093.stampede2.tacc.utexas.edu at Sat Mar  6 18:21:12 2021
Module time:
	user time   =     468.45 seconds =       7.81 minutes
	system time =      16.09 seconds =       0.27 minutes
	total time  =        121 seconds =       2.02 minutes
Total time:
	user time   =     814.61 seconds =      13.58 minutes
	system time =      32.09 seconds =       0.53 minutes
	total time  =        162 seconds =       2.70 minutes

    Psi4 stopped on: Saturday, 06 March 2021 06:21PM
    Psi4 wall time for execution: 0:02:43.05

*** Psi4 exiting successfully. Buy a developer a beer!
