
    -----------------------------------------------------------------------
          Psi4: An Open-Source Ab Initio Electronic Structure Package
                               Psi4 1.4a3.dev225 

                         Git: Rev {master} 7105e37 


    D. G. A. Smith, L. A. Burns, A. C. Simmonett, R. M. Parrish,
    M. C. Schieber, R. Galvelis, P. Kraus, H. Kruse, R. Di Remigio,
    A. Alenaizan, A. M. James, S. Lehtola, J. P. Misiewicz, M. Scheurer,
    R. A. Shaw, J. B. Schriber, Y. Xie, Z. L. Glick, D. A. Sirianni,
    J. S. O'Brien, J. M. Waldrop, A. Kumar, E. G. Hohenstein,
    B. P. Pritchard, B. R. Brooks, H. F. Schaefer III, A. Yu. Sokolov,
    K. Patkowski, A. E. DePrince III, U. Bozkaya, R. A. King,
    F. A. Evangelista, J. M. Turney, T. D. Crawford, C. D. Sherrill,
    J. Chem. Phys. 152(18) 184108 (2020). https://doi.org/10.1063/5.0006002

                            Additional Code Authors
    E. T. Seidl, C. L. Janssen, E. F. Valeev, M. L. Leininger,
    J. F. Gonthier, R. M. Richard, H. R. McAlexander, M. Saitow, X. Wang,
    P. Verma, and M. H. Lechner

             Previous Authors, Complete List of Code Contributors,
                       and Citations for Specific Modules
    https://github.com/psi4/psi4/blob/master/codemeta.json
    https://github.com/psi4/psi4/graphs/contributors
    http://psicode.org/psi4manual/master/introduction.html#citing-psifour

    -----------------------------------------------------------------------


    Psi4 started on: Thursday, 01 April 2021 12:07AM

    Process ID: 99648
    Host:       c429-042.stampede2.tacc.utexas.edu
    PSIDATADIR: /home1/07844/xy3866/miniconda3/envs/p4env/share/psi4
    Memory:     500.0 MiB
    Threads:    8
    
  ==> Input File <==

--------------------------------------------------------------------------
#psi4
#
memory 32 gb

molecule  {
0 1
  I       -1.0508630    -0.0327020     0.0000010
  C        1.9876030    -0.5024530    -0.0000080
  C        0.9983820     0.6513080    -0.0000070
  C        3.4267560     0.0178820     0.0000080
  H        1.8145770    -1.1305720     0.8787430
  H        1.8145880    -1.1305600    -0.8787710
  H        1.1018697     1.2852478    -0.9059381
  H        1.1000140     1.2738370     0.8896040
  H        4.1383040    -0.8116210    -0.0000480
  H        3.6258980     0.6289730    -0.8845580
  H        3.6259130     0.6288710     0.8846400
units angstrom
no_reorient  #important for SAPT in psi4, default
symmetry c1  #important for SAPT in psi4, default
}

set PROPERTIES_ORIGIN ["COM"]
properties('MP2/aug-cc-pvtz', properties = ['dipole'])
--------------------------------------------------------------------------

  Memory set to  29.802 GiB by Python driver.
    SCF Algorithm Type (re)set to DF.

*** tstart() called on c429-042.stampede2.tacc.utexas.edu
*** at Thu Apr  1 00:07:26 2021

   => Loading Basis Set <=

    Name: AUG-CC-PVTZ
    Role: ORBITAL
    Keyword: BASIS
    atoms 1    entry I          line  4496 (ECP: line  4576) file /home1/07844/xy3866/miniconda3/envs/p4env/share/psi4/basis/aug-cc-pvtz.gbs 
    atoms 2-4  entry C          line   239 file /home1/07844/xy3866/miniconda3/envs/p4env/share/psi4/basis/aug-cc-pvtz.gbs 
    atoms 5-11 entry H          line    40 file /home1/07844/xy3866/miniconda3/envs/p4env/share/psi4/basis/aug-cc-pvtz.gbs 

    !!!  WARNING: ECP capability is in beta. Please check occupations closely.  !!!


         ---------------------------------------------------------
                                   SCF
               by Justin Turney, Rob Parrish, Andy Simmonett
                          and Daniel G. A. Smith
                              RHF Reference
                        8 Threads,  30517 MiB Core
         ---------------------------------------------------------

  ==> Geometry <==

    Molecular point group: c1
    Full point group: C1

    Geometry (in Angstrom), charge = 0, multiplicity = 1:

       Center              X                  Y                   Z               Mass       
    ------------   -----------------  -----------------  -----------------  -----------------
         I           -0.821099672298    -0.024469514483     0.000097569994   126.904471900000
         C            2.217366327702    -0.494220514483     0.000088569994    12.000000000000
         C            1.228145327702     0.659540485517     0.000089569994    12.000000000000
         C            3.656519327702     0.026114485517     0.000104569994    12.000000000000
         H            2.044340327702    -1.122339514483     0.878839569994     1.007825032230
         H            2.044351327702    -1.122327514483    -0.878674430006     1.007825032230
         H            1.331633027702     1.293480285517    -0.905841530006     1.007825032230
         H            1.329777327702     1.282069485517     0.889700569994     1.007825032230
         H            4.368067327702    -0.803388514483     0.000048569994     1.007825032230
         H            3.855661327702     0.637205485517    -0.884461430006     1.007825032230
         H            3.855676327702     0.637103485517     0.884736569994     1.007825032230

  Running in c1 symmetry.

  Rotational constants: A =      0.82865  B =      0.04333  C =      0.04216 [cm^-1]
  Rotational constants: A =  24842.34491  B =   1299.01224  C =   1263.84159 [MHz]
  Nuclear repulsion =  182.470384689460474

  Charge       = 0
  Multiplicity = 1
  Electrons    = 50
  Nalpha       = 25
  Nbeta        = 25

  ==> Algorithm <==

  SCF Algorithm Type is DF.
  DIIS enabled.
  MOM disabled.
  Fractional occupation disabled.
  Guess Type is SAD.
  Energy threshold   = 1.00e-10
  Density threshold  = 1.00e-10
  Integral threshold = 1.00e-12

  ==> Primary Basis <==

  Basis Set: AUG-CC-PVTZ
    Blend: AUG-CC-PVTZ
    Number of shells: 122
    Number of basis functions: 354
    Number of Cartesian functions: 405
    Spherical Harmonics?: true
    Max angular momentum: 3

  Core potential: AUG-CC-PVTZ
    Number of shells: 5
    Number of ECP primitives: 16
    Number of ECP core electrons: 28
    Max angular momentum: 4

   => Loading Basis Set <=

    Name: (AUG-CC-PVTZ AUX)
    Role: JKFIT
    Keyword: DF_BASIS_SCF
    atoms 1    entry I          line  4980 file /home1/07844/xy3866/miniconda3/envs/p4env/share/psi4/basis/def2-universal-jkfit.gbs 
    atoms 2-4  entry C          line   162 file /home1/07844/xy3866/miniconda3/envs/p4env/share/psi4/basis/aug-cc-pvtz-jkfit.gbs 
    atoms 5-11 entry H          line    70 file /home1/07844/xy3866/miniconda3/envs/p4env/share/psi4/basis/aug-cc-pvtz-jkfit.gbs 

  ==> Integral Setup <==

  DFHelper Memory: AOs need 0.831 GiB; user supplied 22.352 GiB. Using in-core AOs.

  ==> MemDFJK: Density-Fitted J/K Matrices <==

    J tasked:                   Yes
    K tasked:                   Yes
    wK tasked:                   No
    OpenMP threads:               8
    Memory [MiB]:             22888
    Algorithm:                 Core
    Schwarz Cutoff:           1E-12
    Mask sparsity (%):       0.9815
    Fitting Condition:        1E-10

   => Auxiliary Basis Set <=

  Basis Set: (AUG-CC-PVTZ AUX)
    Blend: AUG-CC-PVTZ-JKFIT + DEF2-UNIVERSAL-JKFIT
    Number of shells: 234
    Number of basis functions: 852
    Number of Cartesian functions: 1087
    Spherical Harmonics?: true
    Max angular momentum: 5

  Minimum eigenvalue in the overlap matrix is 1.7365538118E-05.
  Reciprocal condition number of the overlap matrix is 1.0428545051E-06.
    Using symmetric orthogonalization.

  ==> Pre-Iterations <==

  SCF Guess: Superposition of Atomic Densities via on-the-fly atomic UHF (no occupation information).

   -------------------------
    Irrep   Nso     Nmo    
   -------------------------
     A        354     354 
   -------------------------
    Total     354     354
   -------------------------

  ==> Iterations <==

                           Total Energy        Delta E     RMS |[F,P]|

   @DF-RHF iter SAD:  -409.65949080414600   -4.09659e+02   0.00000e+00 
   @DF-RHF iter   1:  -412.00402371336003   -2.34453e+00   2.36502e-03 DIIS
   @DF-RHF iter   2:  -412.33649701553560   -3.32473e-01   1.11710e-03 DIIS
   @DF-RHF iter   3:  -412.38546266493495   -4.89656e-02   1.26243e-04 DIIS
   @DF-RHF iter   4:  -412.38758658092837   -2.12392e-03   4.79020e-05 DIIS
   @DF-RHF iter   5:  -412.38778365110687   -1.97070e-04   1.84531e-05 DIIS
   @DF-RHF iter   6:  -412.38781499712894   -3.13460e-05   2.51812e-06 DIIS
   @DF-RHF iter   7:  -412.38781588776703   -8.90638e-07   7.07021e-07 DIIS
   @DF-RHF iter   8:  -412.38781595866459   -7.08976e-08   2.45330e-07 DIIS
   @DF-RHF iter   9:  -412.38781596995068   -1.12861e-08   8.48512e-08 DIIS
   @DF-RHF iter  10:  -412.38781597191684   -1.96616e-09   2.27648e-08 DIIS
   @DF-RHF iter  11:  -412.38781597206116   -1.44325e-10   4.90382e-09 DIIS
   @DF-RHF iter  12:  -412.38781597206633   -5.17275e-12   1.11016e-09 DIIS
   @DF-RHF iter  13:  -412.38781597206741   -1.08002e-12   3.55827e-10 DIIS
   @DF-RHF iter  14:  -412.38781597206668    7.38964e-13   1.40434e-10 DIIS
   @DF-RHF iter  15:  -412.38781597206719   -5.11591e-13   5.44920e-11 DIIS
  Energy and wave function converged.


  ==> Post-Iterations <==

    Orbital Energies [Eh]
    ---------------------

    Doubly Occupied:                                                      

       1A    -11.286963     2A    -11.241577     3A    -11.228608  
       4A     -7.706653     5A     -5.537863     6A     -5.529027  
       7A     -5.528972     8A     -2.267143     9A     -2.262810  
      10A     -2.262755    11A     -2.252956    12A     -2.252955  
      13A     -1.083436    14A     -0.962329    15A     -0.855747  
      16A     -0.805868    17A     -0.657205    18A     -0.596675  
      19A     -0.566542    20A     -0.556419    21A     -0.507412  
      22A     -0.494824    23A     -0.432748    24A     -0.356747  
      25A     -0.356411  

    Virtual:                                                              

      26A      0.027376    27A      0.037642    28A      0.039542  
      29A      0.044687    30A      0.060186    31A      0.063002  
      32A      0.063588    33A      0.066616    34A      0.093761  
      35A      0.105675    36A      0.119059    37A      0.124024  
      38A      0.125662    39A      0.128741    40A      0.137447  
      41A      0.138174    42A      0.141629    43A      0.152166  
      44A      0.159104    45A      0.165370    46A      0.165458  
      47A      0.190452    48A      0.197779    49A      0.209945  
      50A      0.216071    51A      0.226038    52A      0.239347  
      53A      0.245561    54A      0.255990    55A      0.257317  
      56A      0.271730    57A      0.278891    58A      0.293059  
      59A      0.310015    60A      0.318505    61A      0.325648  
      62A      0.330682    63A      0.339414    64A      0.347651  
      65A      0.355195    66A      0.360848    67A      0.361503  
      68A      0.368775    69A      0.378568    70A      0.387001  
      71A      0.389956    72A      0.392476    73A      0.397972  
      74A      0.401856    75A      0.415498    76A      0.416157  
      77A      0.434909    78A      0.436086    79A      0.441771  
      80A      0.442875    81A      0.448458    82A      0.451592  
      83A      0.477668    84A      0.482728    85A      0.493068  
      86A      0.499940    87A      0.505276    88A      0.515663  
      89A      0.522526    90A      0.524855    91A      0.530820  
      92A      0.537012    93A      0.558958    94A      0.569288  
      95A      0.581652    96A      0.589871    97A      0.595834  
      98A      0.597517    99A      0.622748   100A      0.646304  
     101A      0.667456   102A      0.672545   103A      0.683809  
     104A      0.697399   105A      0.704141   106A      0.718020  
     107A      0.741894   108A      0.749021   109A      0.759091  
     110A      0.765975   111A      0.772168   112A      0.777628  
     113A      0.810219   114A      0.814218   115A      0.824200  
     116A      0.829788   117A      0.835093   118A      0.839615  
     119A      0.853397   120A      0.854125   121A      0.873820  
     122A      0.884445   123A      0.893690   124A      0.898221  
     125A      0.905738   126A      0.916989   127A      0.923963  
     128A      0.930177   129A      0.934321   130A      0.953156  
     131A      0.956586   132A      0.967903   133A      0.979867  
     134A      0.983947   135A      1.003632   136A      1.017166  
     137A      1.027805   138A      1.045725   139A      1.056593  
     140A      1.067450   141A      1.076621   142A      1.094415  
     143A      1.103696   144A      1.114261   145A      1.123365  
     146A      1.129014   147A      1.136628   148A      1.159845  
     149A      1.171579   150A      1.176662   151A      1.198356  
     152A      1.220649   153A      1.227311   154A      1.232657  
     155A      1.241666   156A      1.259447   157A      1.266316  
     158A      1.281078   159A      1.300194   160A      1.302883  
     161A      1.320128   162A      1.324522   163A      1.370816  
     164A      1.372450   165A      1.381944   166A      1.417386  
     167A      1.432488   168A      1.434386   169A      1.440973  
     170A      1.484669   171A      1.495156   172A      1.515860  
     173A      1.521143   174A      1.536247   175A      1.550015  
     176A      1.556313   177A      1.557893   178A      1.568058  
     179A      1.600340   180A      1.610729   181A      1.622981  
     182A      1.638609   183A      1.650217   184A      1.655146  
     185A      1.659820   186A      1.665155   187A      1.670321  
     188A      1.673016   189A      1.674778   190A      1.690293  
     191A      1.708110   192A      1.734577   193A      1.735582  
     194A      1.751464   195A      1.756088   196A      1.771533  
     197A      1.772432   198A      1.806020   199A      1.819902  
     200A      1.828560   201A      1.836404   202A      1.852204  
     203A      1.886948   204A      1.888085   205A      1.909450  
     206A      1.913168   207A      1.930521   208A      1.938358  
     209A      1.956106   210A      1.978461   211A      1.991703  
     212A      2.003035   213A      2.010898   214A      2.054310  
     215A      2.062653   216A      2.089510   217A      2.093870  
     218A      2.128418   219A      2.140224   220A      2.202760  
     221A      2.208988   222A      2.230416   223A      2.233613  
     224A      2.255989   225A      2.268524   226A      2.289141  
     227A      2.307208   228A      2.310137   229A      2.382973  
     230A      2.399502   231A      2.428472   232A      2.441094  
     233A      2.472298   234A      2.481584   235A      2.548721  
     236A      2.560392   237A      2.687886   238A      2.763306  
     239A      2.965804   240A      3.157671   241A      3.209445  
     242A      3.257208   243A      3.287752   244A      3.309747  
     245A      3.377885   246A      3.383028   247A      3.427934  
     248A      3.433505   249A      3.487205   250A      3.499241  
     251A      3.518897   252A      3.543423   253A      3.556819  
     254A      3.592675   255A      3.609235   256A      3.653422  
     257A      3.679896   258A      3.687900   259A      3.705700  
     260A      3.721278   261A      3.759368   262A      3.761107  
     263A      3.773404   264A      3.792120   265A      3.803966  
     266A      3.828210   267A      3.830395   268A      3.875126  
     269A      3.909576   270A      3.911904   271A      3.920292  
     272A      3.951611   273A      3.959204   274A      3.969248  
     275A      3.999175   276A      4.001836   277A      4.031643  
     278A      4.039003   279A      4.094289   280A      4.116647  
     281A      4.152891   282A      4.173090   283A      4.189168  
     284A      4.213015   285A      4.238560   286A      4.242524  
     287A      4.249574   288A      4.253353   289A      4.343860  
     290A      4.359449   291A      4.432761   292A      4.447223  
     293A      4.464747   294A      4.528096   295A      4.540855  
     296A      4.617119   297A      4.637828   298A      4.639800  
     299A      4.671059   300A      4.691041   301A      4.742752  
     302A      4.786009   303A      4.789603   304A      4.836784  
     305A      4.841627   306A      4.847428   307A      4.881272  
     308A      4.957928   309A      4.983394   310A      5.008587  
     311A      5.026506   312A      5.031126   313A      5.051787  
     314A      5.069101   315A      5.127477   316A      5.135285  
     317A      5.154101   318A      5.209588   319A      5.226177  
     320A      5.246037   321A      5.293772   322A      5.337658  
     323A      5.348742   324A      5.410261   325A      5.429381  
     326A      5.435498   327A      5.512243   328A      5.518632  
     329A      5.560817   330A      5.600444   331A      5.665887  
     332A      5.707890   333A      5.711335   334A      5.798642  
     335A      5.827719   336A      5.917873   337A      5.981676  
     338A      5.991586   339A      6.106141   340A      6.128335  
     341A      6.161407   342A      6.232870   343A      6.236875  
     344A      6.292227   345A      6.396873   346A      6.703640  
     347A      6.742574   348A      6.791676   349A      6.900654  
     350A      8.080016   351A     16.938602   352A     17.523236  
     353A     18.221385   354A     59.053431  

    Final Occupation by Irrep:
              A 
    DOCC [    25 ]

  @DF-RHF Final Energy:  -412.38781597206719

   => Energetics <=

    Nuclear Repulsion Energy =            182.4703846894604737
    One-Electron Energy =               -1034.5351086957764437
    Two-Electron Energy =                 439.6769080342487541
    Total Energy =                       -412.3878159720671874

Computation Completed

*** tstop() called on c429-042.stampede2.tacc.utexas.edu at Thu Apr  1 00:08:23 2021
Module time:
	user time   =     254.84 seconds =       4.25 minutes
	system time =       4.65 seconds =       0.08 minutes
	total time  =         57 seconds =       0.95 minutes
Total time:
	user time   =     254.84 seconds =       4.25 minutes
	system time =       4.65 seconds =       0.08 minutes
	total time  =         57 seconds =       0.95 minutes
   => Loading Basis Set <=

    Name: (AUG-CC-PVTZ AUX)
    Role: RIFIT
    Keyword: DF_BASIS_MP2
    atoms 1    entry I          line  4948 file /home1/07844/xy3866/miniconda3/envs/p4env/share/psi4/basis/def2-qzvpp-ri.gbs 
    atoms 2-4  entry C          line   148 file /home1/07844/xy3866/miniconda3/envs/p4env/share/psi4/basis/aug-cc-pvtz-ri.gbs 
    atoms 5-11 entry H          line    30 file /home1/07844/xy3866/miniconda3/envs/p4env/share/psi4/basis/aug-cc-pvtz-ri.gbs 


*** tstart() called on c429-042.stampede2.tacc.utexas.edu
*** at Thu Apr  1 00:08:24 2021


  //>>>>>>>>>>>>>>>>>>>>>>>>>>>>>>>>>>>//
  //               DFMP2               //
  //<<<<<<<<<<<<<<<<<<<<<<<<<<<<<<<<<<<//

	 --------------------------------------------------------
	                          DF-MP2                         
	      2nd-Order Density-Fitted Moller-Plesset Theory     
	              RMP2 Wavefunction,   8 Threads             
	                                                         
	        Rob Parrish, Justin Turney, Andy Simmonett,      
	           Ed Hohenstein, and C. David Sherrill          
	 --------------------------------------------------------

   => Auxiliary Basis Set <=

  Basis Set: (AUG-CC-PVTZ AUX)
    Blend: AUG-CC-PVTZ-RI + DEF2-QZVPP-RI
    Number of shells: 232
    Number of basis functions: 916
    Number of Cartesian functions: 1218
    Spherical Harmonics?: true
    Max angular momentum: 6

	 --------------------------------------------------------
	                 NBF =   354, NAUX =   916
	 --------------------------------------------------------
	   CLASS    FOCC     OCC    AOCC    AVIR     VIR    FVIR
	   PAIRS       0      25      25     329     329       0
	 --------------------------------------------------------

  DFHelper Memory: AOs need 0.837 GiB; user supplied 22.352 GiB. Using in-core AOs.


         ------------------------------------------------------------
                                     CPHF                           
                                  Rob Parrish                       
         ------------------------------------------------------------

  ==> Geometry <==

    Molecular point group: c1
    Full point group: C1

    Geometry (in Angstrom), charge = 0, multiplicity = 1:

       Center              X                  Y                   Z               Mass       
    ------------   -----------------  -----------------  -----------------  -----------------
         I           -0.821099672298    -0.024469514483     0.000097569994   126.904471900000
         C            2.217366327702    -0.494220514483     0.000088569994    12.000000000000
         C            1.228145327702     0.659540485517     0.000089569994    12.000000000000
         C            3.656519327702     0.026114485517     0.000104569994    12.000000000000
         H            2.044340327702    -1.122339514483     0.878839569994     1.007825032230
         H            2.044351327702    -1.122327514483    -0.878674430006     1.007825032230
         H            1.331633027702     1.293480285517    -0.905841530006     1.007825032230
         H            1.329777327702     1.282069485517     0.889700569994     1.007825032230
         H            4.368067327702    -0.803388514483     0.000048569994     1.007825032230
         H            3.855661327702     0.637205485517    -0.884461430006     1.007825032230
         H            3.855676327702     0.637103485517     0.884736569994     1.007825032230

  Nuclear repulsion =  182.470384689460474
  Reference energy  = -412.387815972067187

  ==> Basis Set <==

  Basis Set: AUG-CC-PVTZ
    Blend: AUG-CC-PVTZ
    Number of shells: 122
    Number of basis functions: 354
    Number of Cartesian functions: 405
    Spherical Harmonics?: true
    Max angular momentum: 3

  Core potential: AUG-CC-PVTZ
    Number of shells: 5
    Number of ECP primitives: 16
    Number of ECP core electrons: 28
    Max angular momentum: 4

  ==> CGRSolver (by Rob Parrish) <==

   Number of roots    =         1
   Preconditioning    =    JACOBI
   Convergence cutoff =     1E-06
   Maximum iterations =       100

  ==> CPHFRHamiltonian (by Rob Parrish) <== 

  ==> MemDFJK: Density-Fitted J/K Matrices <==

    J tasked:                   Yes
    K tasked:                   Yes
    wK tasked:                   No
    OpenMP threads:               8
    Memory [MiB]:             22888
    Algorithm:                 Core
    Schwarz Cutoff:           1E-12
    Mask sparsity (%):       0.2522
    Fitting Condition:        1E-10

   => Auxiliary Basis Set <=

  Basis Set: (AUG-CC-PVTZ AUX)
    Blend: AUG-CC-PVTZ-JKFIT + DEF2-UNIVERSAL-JKFIT
    Number of shells: 234
    Number of basis functions: 852
    Number of Cartesian functions: 1087
    Spherical Harmonics?: true
    Max angular momentum: 5

  ==> CPHF Iterations <==

  => Iterations <=

             Iter  Converged  Remaining    Residual
  CGR           1          0          1   1.020E-01
  CGR           2          0          1   2.219E-02
  CGR           3          0          1   5.871E-03
  CGR           4          0          1   1.553E-03
  CGR           5          0          1   5.306E-04
  CGR           6          0          1   2.099E-04
  CGR           7          0          1   5.735E-05
  CGR           8          0          1   1.402E-05
  CGR           9          0          1   4.503E-06
  CGR          10          0          1   1.190E-06
  CGR          11          1          0   2.880E-07

    CGRSolver converged.

	-----------------------------------------------------------
	 ==================> DF-MP2 Energies <==================== 
	-----------------------------------------------------------
	 Reference Energy          =    -412.3878159720671874 [Eh]
	 Singles Energy            =      -0.0000000000000000 [Eh]
	 Same-Spin Energy          =      -0.2012997232255099 [Eh]
	 Opposite-Spin Energy      =      -0.6478027285180938 [Eh]
	 Correlation Energy        =      -0.8491024517436038 [Eh]
	 Total Energy              =    -413.2369184238107778 [Eh]
	-----------------------------------------------------------
	 ================> DF-SCS-MP2 Energies <================== 
	-----------------------------------------------------------
	 SCS Same-Spin Scale       =       0.3333333333333333 [-]
	 SCS Opposite-Spin Scale   =       1.2000000000000000 [-]
	 SCS Same-Spin Energy      =      -0.0670999077418366 [Eh]
	 SCS Opposite-Spin Energy  =      -0.7773632742217126 [Eh]
	 SCS Correlation Energy    =      -0.8444631819635492 [Eh]
	 SCS Total Energy          =    -413.2322791540307207 [Eh]
	-----------------------------------------------------------



Properties will be evaluated at  -0.000000,  -0.000000,  -0.000000 [a0]

Properties computed using the MP2 density matrix

  Nuclear Dipole Moment: [e a0]
     X:    77.3166      Y:     2.5297      Z:    -0.0218

  Electronic Dipole Moment: [e a0]
     X:   -76.5140      Y:    -2.3916      Z:     0.0225

  Dipole Moment: [e a0]
     X:     0.8027      Y:     0.1382      Z:     0.0007     Total:     0.8145

  Dipole Moment: [D]
     X:     2.0402      Y:     0.3512      Z:     0.0019     Total:     2.0702


*** tstop() called on c429-042.stampede2.tacc.utexas.edu at Thu Apr  1 00:09:30 2021
Module time:
	user time   =     299.43 seconds =       4.99 minutes
	system time =       6.64 seconds =       0.11 minutes
	total time  =         66 seconds =       1.10 minutes
Total time:
	user time   =     555.17 seconds =       9.25 minutes
	system time =      11.34 seconds =       0.19 minutes
	total time  =        124 seconds =       2.07 minutes

    Psi4 stopped on: Thursday, 01 April 2021 12:09AM
    Psi4 wall time for execution: 0:02:04.17

*** Psi4 exiting successfully. Buy a developer a beer!
