
    -----------------------------------------------------------------------
          Psi4: An Open-Source Ab Initio Electronic Structure Package
                               Psi4 1.4a3.dev225 

                         Git: Rev {master} 7105e37 


    D. G. A. Smith, L. A. Burns, A. C. Simmonett, R. M. Parrish,
    M. C. Schieber, R. Galvelis, P. Kraus, H. Kruse, R. Di Remigio,
    A. Alenaizan, A. M. James, S. Lehtola, J. P. Misiewicz, M. Scheurer,
    R. A. Shaw, J. B. Schriber, Y. Xie, Z. L. Glick, D. A. Sirianni,
    J. S. O'Brien, J. M. Waldrop, A. Kumar, E. G. Hohenstein,
    B. P. Pritchard, B. R. Brooks, H. F. Schaefer III, A. Yu. Sokolov,
    K. Patkowski, A. E. DePrince III, U. Bozkaya, R. A. King,
    F. A. Evangelista, J. M. Turney, T. D. Crawford, C. D. Sherrill,
    J. Chem. Phys. 152(18) 184108 (2020). https://doi.org/10.1063/5.0006002

                            Additional Code Authors
    E. T. Seidl, C. L. Janssen, E. F. Valeev, M. L. Leininger,
    J. F. Gonthier, R. M. Richard, H. R. McAlexander, M. Saitow, X. Wang,
    P. Verma, and M. H. Lechner

             Previous Authors, Complete List of Code Contributors,
                       and Citations for Specific Modules
    https://github.com/psi4/psi4/blob/master/codemeta.json
    https://github.com/psi4/psi4/graphs/contributors
    http://psicode.org/psi4manual/master/introduction.html#citing-psifour

    -----------------------------------------------------------------------


    Psi4 started on: Wednesday, 31 March 2021 11:36PM

    Process ID: 90291
    Host:       c429-042.stampede2.tacc.utexas.edu
    PSIDATADIR: /home1/07844/xy3866/miniconda3/envs/p4env/share/psi4
    Memory:     500.0 MiB
    Threads:    8
    
  ==> Input File <==

--------------------------------------------------------------------------
#psi4
#
memory 32 gb

molecule  {
0 1
  I       -1.0508630    -0.0327020     0.0000010
  C        1.9876030    -0.5024530    -0.0000080
  C        1.0114000     0.6361247    -0.0000070
  C        3.4267560     0.0178820     0.0000080
  H        1.8145770    -1.1305720     0.8787430
  H        1.8145880    -1.1305600    -0.8787710
  H        1.1000060     1.2738310    -0.8896230
  H        1.1000140     1.2738370     0.8896040
  H        4.1383040    -0.8116210    -0.0000480
  H        3.6258980     0.6289730    -0.8845580
  H        3.6259130     0.6288710     0.8846400
units angstrom
no_reorient  #important for SAPT in psi4, default
symmetry c1  #important for SAPT in psi4, default
}

set PROPERTIES_ORIGIN ["COM"]
properties('MP2/aug-cc-pvtz', properties = ['dipole'])
--------------------------------------------------------------------------

  Memory set to  29.802 GiB by Python driver.
    SCF Algorithm Type (re)set to DF.

*** tstart() called on c429-042.stampede2.tacc.utexas.edu
*** at Wed Mar 31 23:36:11 2021

   => Loading Basis Set <=

    Name: AUG-CC-PVTZ
    Role: ORBITAL
    Keyword: BASIS
    atoms 1    entry I          line  4496 (ECP: line  4576) file /home1/07844/xy3866/miniconda3/envs/p4env/share/psi4/basis/aug-cc-pvtz.gbs 
    atoms 2-4  entry C          line   239 file /home1/07844/xy3866/miniconda3/envs/p4env/share/psi4/basis/aug-cc-pvtz.gbs 
    atoms 5-11 entry H          line    40 file /home1/07844/xy3866/miniconda3/envs/p4env/share/psi4/basis/aug-cc-pvtz.gbs 

    !!!  WARNING: ECP capability is in beta. Please check occupations closely.  !!!


         ---------------------------------------------------------
                                   SCF
               by Justin Turney, Rob Parrish, Andy Simmonett
                          and Daniel G. A. Smith
                              RHF Reference
                        8 Threads,  30517 MiB Core
         ---------------------------------------------------------

  ==> Geometry <==

    Molecular point group: c1
    Full point group: C1

    Geometry (in Angstrom), charge = 0, multiplicity = 1:

       Center              X                  Y                   Z               Mass       
    ------------   -----------------  -----------------  -----------------  -----------------
         I           -0.822007758908    -0.023329795756     0.000000824648   126.904471900000
         C            2.216458241092    -0.493080795756    -0.000008175352    12.000000000000
         C            1.240255241092     0.645496904244    -0.000007175352    12.000000000000
         C            3.655611241092     0.027254204244     0.000007824648    12.000000000000
         H            2.043432241092    -1.121199795756     0.878742824648     1.007825032230
         H            2.043443241092    -1.121187795756    -0.878771175352     1.007825032230
         H            1.328861241092     1.283203204244    -0.889623175352     1.007825032230
         H            1.328869241092     1.283209204244     0.889603824648     1.007825032230
         H            4.367159241092    -0.802248795756    -0.000048175352     1.007825032230
         H            3.854753241092     0.638345204244    -0.884558175352     1.007825032230
         H            3.854768241092     0.638243204244     0.884639824648     1.007825032230

  Running in c1 symmetry.

  Rotational constants: A =      0.84091  B =      0.04329  C =      0.04215 [cm^-1]
  Rotational constants: A =  25209.90845  B =   1297.84186  C =   1263.48427 [MHz]
  Nuclear repulsion =  182.652412372796306

  Charge       = 0
  Multiplicity = 1
  Electrons    = 50
  Nalpha       = 25
  Nbeta        = 25

  ==> Algorithm <==

  SCF Algorithm Type is DF.
  DIIS enabled.
  MOM disabled.
  Fractional occupation disabled.
  Guess Type is SAD.
  Energy threshold   = 1.00e-10
  Density threshold  = 1.00e-10
  Integral threshold = 1.00e-12

  ==> Primary Basis <==

  Basis Set: AUG-CC-PVTZ
    Blend: AUG-CC-PVTZ
    Number of shells: 122
    Number of basis functions: 354
    Number of Cartesian functions: 405
    Spherical Harmonics?: true
    Max angular momentum: 3

  Core potential: AUG-CC-PVTZ
    Number of shells: 5
    Number of ECP primitives: 16
    Number of ECP core electrons: 28
    Max angular momentum: 4

   => Loading Basis Set <=

    Name: (AUG-CC-PVTZ AUX)
    Role: JKFIT
    Keyword: DF_BASIS_SCF
    atoms 1    entry I          line  4980 file /home1/07844/xy3866/miniconda3/envs/p4env/share/psi4/basis/def2-universal-jkfit.gbs 
    atoms 2-4  entry C          line   162 file /home1/07844/xy3866/miniconda3/envs/p4env/share/psi4/basis/aug-cc-pvtz-jkfit.gbs 
    atoms 5-11 entry H          line    70 file /home1/07844/xy3866/miniconda3/envs/p4env/share/psi4/basis/aug-cc-pvtz-jkfit.gbs 

  ==> Integral Setup <==

  DFHelper Memory: AOs need 0.831 GiB; user supplied 22.352 GiB. Using in-core AOs.

  ==> MemDFJK: Density-Fitted J/K Matrices <==

    J tasked:                   Yes
    K tasked:                   Yes
    wK tasked:                   No
    OpenMP threads:               8
    Memory [MiB]:             22888
    Algorithm:                 Core
    Schwarz Cutoff:           1E-12
    Mask sparsity (%):       0.9767
    Fitting Condition:        1E-10

   => Auxiliary Basis Set <=

  Basis Set: (AUG-CC-PVTZ AUX)
    Blend: AUG-CC-PVTZ-JKFIT + DEF2-UNIVERSAL-JKFIT
    Number of shells: 234
    Number of basis functions: 852
    Number of Cartesian functions: 1087
    Spherical Harmonics?: true
    Max angular momentum: 5

  Minimum eigenvalue in the overlap matrix is 1.6761485854E-05.
  Reciprocal condition number of the overlap matrix is 1.0051959995E-06.
    Using symmetric orthogonalization.

  ==> Pre-Iterations <==

  SCF Guess: Superposition of Atomic Densities via on-the-fly atomic UHF (no occupation information).

   -------------------------
    Irrep   Nso     Nmo    
   -------------------------
     A        354     354 
   -------------------------
    Total     354     354
   -------------------------

  ==> Iterations <==

                           Total Energy        Delta E     RMS |[F,P]|

   @DF-RHF iter SAD:  -409.56823825176332   -4.09568e+02   0.00000e+00 
   @DF-RHF iter   1:  -412.04293707372898   -2.47470e+00   2.27204e-03 DIIS
   @DF-RHF iter   2:  -412.34047087250656   -2.97534e-01   1.05546e-03 DIIS
   @DF-RHF iter   3:  -412.38551721851439   -4.50463e-02   1.25782e-04 DIIS
   @DF-RHF iter   4:  -412.38764640320721   -2.12918e-03   5.37675e-05 DIIS
   @DF-RHF iter   5:  -412.38787550906733   -2.29106e-04   1.64477e-05 DIIS
   @DF-RHF iter   6:  -412.38790666117865   -3.11521e-05   2.85988e-06 DIIS
   @DF-RHF iter   7:  -412.38790803900491   -1.37783e-06   9.55694e-07 DIIS
   @DF-RHF iter   8:  -412.38790822183284   -1.82828e-07   3.97621e-07 DIIS
   @DF-RHF iter   9:  -412.38790825687283   -3.50400e-08   1.13920e-07 DIIS
   @DF-RHF iter  10:  -412.38790826021943   -3.34660e-09   2.33688e-08 DIIS
   @DF-RHF iter  11:  -412.38790826031925   -9.98170e-11   5.07705e-09 DIIS
   @DF-RHF iter  12:  -412.38790826032323   -3.97904e-12   1.31817e-09 DIIS
   @DF-RHF iter  13:  -412.38790826032357   -3.41061e-13   3.83754e-10 DIIS
   @DF-RHF iter  14:  -412.38790826032329    2.84217e-13   1.29493e-10 DIIS
   @DF-RHF iter  15:  -412.38790826032243    8.52651e-13   4.19296e-11 DIIS
  Energy and wave function converged.


  ==> Post-Iterations <==

    Orbital Energies [Eh]
    ---------------------

    Doubly Occupied:                                                      

       1A    -11.286017     2A    -11.240624     3A    -11.229091  
       4A     -7.706076     5A     -5.537249     6A     -5.528468  
       7A     -5.528401     8A     -2.266486     9A     -2.262212  
      10A     -2.262146    11A     -2.252406    12A     -2.252405  
      13A     -1.087514    14A     -0.962381    15A     -0.856773  
      16A     -0.806458    17A     -0.658920    18A     -0.599400  
      19A     -0.565748    20A     -0.558757    21A     -0.510320  
      22A     -0.494381    23A     -0.430372    24A     -0.356838  
      25A     -0.355989  

    Virtual:                                                              

      26A      0.027246    27A      0.037526    28A      0.039488  
      29A      0.044669    30A      0.060199    31A      0.062886  
      32A      0.063538    33A      0.066647    34A      0.093705  
      35A      0.105469    36A      0.118847    37A      0.123851  
      38A      0.125692    39A      0.128642    40A      0.137346  
      41A      0.138363    42A      0.141722    43A      0.152068  
      44A      0.158811    45A      0.165391    46A      0.165472  
      47A      0.190584    48A      0.197979    49A      0.210115  
      50A      0.216409    51A      0.225990    52A      0.238981  
      53A      0.245683    54A      0.256205    55A      0.257453  
      56A      0.272106    57A      0.278880    58A      0.292546  
      59A      0.309950    60A      0.318190    61A      0.325406  
      62A      0.331066    63A      0.339228    64A      0.347481  
      65A      0.354667    66A      0.360854    67A      0.361544  
      68A      0.369018    69A      0.378900    70A      0.387211  
      71A      0.390401    72A      0.393255    73A      0.397735  
      74A      0.401886    75A      0.415642    76A      0.416986  
      77A      0.435133    78A      0.435814    79A      0.441112  
      80A      0.443871    81A      0.449646    82A      0.451400  
      83A      0.478101    84A      0.482487    85A      0.493774  
      86A      0.500583    87A      0.505383    88A      0.515434  
      89A      0.523809    90A      0.525432    91A      0.532879  
      92A      0.537123    93A      0.559510    94A      0.569824  
      95A      0.581506    96A      0.589512    97A      0.596264  
      98A      0.596911    99A      0.623744   100A      0.646146  
     101A      0.669051   102A      0.672280   103A      0.684708  
     104A      0.698566   105A      0.702883   106A      0.717979  
     107A      0.740995   108A      0.751298   109A      0.761577  
     110A      0.765551   111A      0.772391   112A      0.777261  
     113A      0.811023   114A      0.815814   115A      0.824260  
     116A      0.829789   117A      0.834903   118A      0.839403  
     119A      0.853426   120A      0.854029   121A      0.875576  
     122A      0.884586   123A      0.892805   124A      0.898979  
     125A      0.906402   126A      0.917615   127A      0.923429  
     128A      0.930927   129A      0.933679   130A      0.953302  
     131A      0.956473   132A      0.968187   133A      0.979517  
     134A      0.984947   135A      1.003082   136A      1.017416  
     137A      1.028260   138A      1.045873   139A      1.061129  
     140A      1.067533   141A      1.078325   142A      1.094355  
     143A      1.104160   144A      1.114540   145A      1.123595  
     146A      1.129181   147A      1.136923   148A      1.161073  
     149A      1.170952   150A      1.176439   151A      1.199805  
     152A      1.221212   153A      1.226166   154A      1.232294  
     155A      1.241437   156A      1.260529   157A      1.266319  
     158A      1.280072   159A      1.301309   160A      1.304067  
     161A      1.320285   162A      1.324722   163A      1.369996  
     164A      1.373874   165A      1.382906   166A      1.418173  
     167A      1.432979   168A      1.434832   169A      1.442760  
     170A      1.485982   171A      1.495125   172A      1.516741  
     173A      1.522614   174A      1.535922   175A      1.551053  
     176A      1.558534   177A      1.559770   178A      1.568201  
     179A      1.600198   180A      1.611034   181A      1.627265  
     182A      1.638693   183A      1.650522   184A      1.654498  
     185A      1.664108   186A      1.666198   187A      1.668949  
     188A      1.673659   189A      1.674003   190A      1.690186  
     191A      1.707843   192A      1.734614   193A      1.735985  
     194A      1.752959   195A      1.755366   196A      1.772388  
     197A      1.772780   198A      1.810928   199A      1.819290  
     200A      1.828428   201A      1.837671   202A      1.854650  
     203A      1.886900   204A      1.889317   205A      1.910499  
     206A      1.914519   207A      1.934533   208A      1.939470  
     209A      1.956553   210A      1.978133   211A      1.992465  
     212A      2.007447   213A      2.013763   214A      2.054860  
     215A      2.066400   216A      2.094156   217A      2.096141  
     218A      2.132019   219A      2.139974   220A      2.205341  
     221A      2.213052   222A      2.231807   223A      2.234216  
     224A      2.255895   225A      2.273651   226A      2.289942  
     227A      2.307888   228A      2.313396   229A      2.384100  
     230A      2.401983   231A      2.430719   232A      2.440799  
     233A      2.468434   234A      2.485050   235A      2.548548  
     236A      2.564586   237A      2.684756   238A      2.777397  
     239A      2.975067   240A      3.161252   241A      3.216829  
     242A      3.253764   243A      3.285686   244A      3.310243  
     245A      3.378446   246A      3.381758   247A      3.427534  
     248A      3.428923   249A      3.490492   250A      3.496304  
     251A      3.524620   252A      3.544641   253A      3.560790  
     254A      3.593080   255A      3.608475   256A      3.655127  
     257A      3.679129   258A      3.690529   259A      3.706787  
     260A      3.727862   261A      3.758653   262A      3.759070  
     263A      3.777070   264A      3.792450   265A      3.806791  
     266A      3.827758   267A      3.830630   268A      3.874668  
     269A      3.910505   270A      3.918683   271A      3.920563  
     272A      3.952713   273A      3.967830   274A      3.969832  
     275A      3.999659   276A      4.004281   277A      4.028857  
     278A      4.044356   279A      4.097827   280A      4.118484  
     281A      4.151421   282A      4.175455   283A      4.193761  
     284A      4.220705   285A      4.239474   286A      4.247339  
     287A      4.249097   288A      4.260134   289A      4.355093  
     290A      4.369991   291A      4.441152   292A      4.449575  
     293A      4.469774   294A      4.534389   295A      4.542579  
     296A      4.626453   297A      4.642063   298A      4.649591  
     299A      4.677751   300A      4.695623   301A      4.749548  
     302A      4.791164   303A      4.792072   304A      4.836378  
     305A      4.844187   306A      4.853792   307A      4.885574  
     308A      4.961994   309A      4.989674   310A      5.016799  
     311A      5.029519   312A      5.031123   313A      5.053005  
     314A      5.069336   315A      5.133592   316A      5.142347  
     317A      5.156625   318A      5.214985   319A      5.231078  
     320A      5.252982   321A      5.298931   322A      5.351954  
     323A      5.353985   324A      5.413776   325A      5.435056  
     326A      5.436145   327A      5.520105   328A      5.522430  
     329A      5.566969   330A      5.615381   331A      5.674937  
     332A      5.711103   333A      5.721065   334A      5.803355  
     335A      5.830653   336A      5.932766   337A      5.982477  
     338A      5.999069   339A      6.118515   340A      6.144540  
     341A      6.160019   342A      6.239931   343A      6.241573  
     344A      6.312510   345A      6.402805   346A      6.712240  
     347A      6.746381   348A      6.792058   349A      6.905372  
     350A      8.069104   351A     17.057615   352A     17.587188  
     353A     18.299672   354A     59.053733  

    Final Occupation by Irrep:
              A 
    DOCC [    25 ]

  @DF-RHF Final Energy:  -412.38790826032243

   => Energetics <=

    Nuclear Repulsion Energy =            182.6524123727963058
    One-Electron Energy =               -1034.8897762941819565
    Two-Electron Energy =                 439.8494556610631889
    Total Energy =                       -412.3879082603224333

Computation Completed

*** tstop() called on c429-042.stampede2.tacc.utexas.edu at Wed Mar 31 23:37:08 2021
Module time:
	user time   =     252.06 seconds =       4.20 minutes
	system time =       4.96 seconds =       0.08 minutes
	total time  =         57 seconds =       0.95 minutes
Total time:
	user time   =     252.06 seconds =       4.20 minutes
	system time =       4.96 seconds =       0.08 minutes
	total time  =         57 seconds =       0.95 minutes
   => Loading Basis Set <=

    Name: (AUG-CC-PVTZ AUX)
    Role: RIFIT
    Keyword: DF_BASIS_MP2
    atoms 1    entry I          line  4948 file /home1/07844/xy3866/miniconda3/envs/p4env/share/psi4/basis/def2-qzvpp-ri.gbs 
    atoms 2-4  entry C          line   148 file /home1/07844/xy3866/miniconda3/envs/p4env/share/psi4/basis/aug-cc-pvtz-ri.gbs 
    atoms 5-11 entry H          line    30 file /home1/07844/xy3866/miniconda3/envs/p4env/share/psi4/basis/aug-cc-pvtz-ri.gbs 


*** tstart() called on c429-042.stampede2.tacc.utexas.edu
*** at Wed Mar 31 23:37:09 2021


  //>>>>>>>>>>>>>>>>>>>>>>>>>>>>>>>>>>>//
  //               DFMP2               //
  //<<<<<<<<<<<<<<<<<<<<<<<<<<<<<<<<<<<//

	 --------------------------------------------------------
	                          DF-MP2                         
	      2nd-Order Density-Fitted Moller-Plesset Theory     
	              RMP2 Wavefunction,   8 Threads             
	                                                         
	        Rob Parrish, Justin Turney, Andy Simmonett,      
	           Ed Hohenstein, and C. David Sherrill          
	 --------------------------------------------------------

   => Auxiliary Basis Set <=

  Basis Set: (AUG-CC-PVTZ AUX)
    Blend: AUG-CC-PVTZ-RI + DEF2-QZVPP-RI
    Number of shells: 232
    Number of basis functions: 916
    Number of Cartesian functions: 1218
    Spherical Harmonics?: true
    Max angular momentum: 6

	 --------------------------------------------------------
	                 NBF =   354, NAUX =   916
	 --------------------------------------------------------
	   CLASS    FOCC     OCC    AOCC    AVIR     VIR    FVIR
	   PAIRS       0      25      25     329     329       0
	 --------------------------------------------------------

  DFHelper Memory: AOs need 0.837 GiB; user supplied 22.352 GiB. Using in-core AOs.


         ------------------------------------------------------------
                                     CPHF                           
                                  Rob Parrish                       
         ------------------------------------------------------------

  ==> Geometry <==

    Molecular point group: c1
    Full point group: C1

    Geometry (in Angstrom), charge = 0, multiplicity = 1:

       Center              X                  Y                   Z               Mass       
    ------------   -----------------  -----------------  -----------------  -----------------
         I           -0.822007758908    -0.023329795756     0.000000824648   126.904471900000
         C            2.216458241092    -0.493080795756    -0.000008175352    12.000000000000
         C            1.240255241092     0.645496904244    -0.000007175352    12.000000000000
         C            3.655611241092     0.027254204244     0.000007824648    12.000000000000
         H            2.043432241092    -1.121199795756     0.878742824648     1.007825032230
         H            2.043443241092    -1.121187795756    -0.878771175352     1.007825032230
         H            1.328861241092     1.283203204244    -0.889623175352     1.007825032230
         H            1.328869241092     1.283209204244     0.889603824648     1.007825032230
         H            4.367159241092    -0.802248795756    -0.000048175352     1.007825032230
         H            3.854753241092     0.638345204244    -0.884558175352     1.007825032230
         H            3.854768241092     0.638243204244     0.884639824648     1.007825032230

  Nuclear repulsion =  182.652412372796334
  Reference energy  = -412.387908260322433

  ==> Basis Set <==

  Basis Set: AUG-CC-PVTZ
    Blend: AUG-CC-PVTZ
    Number of shells: 122
    Number of basis functions: 354
    Number of Cartesian functions: 405
    Spherical Harmonics?: true
    Max angular momentum: 3

  Core potential: AUG-CC-PVTZ
    Number of shells: 5
    Number of ECP primitives: 16
    Number of ECP core electrons: 28
    Max angular momentum: 4

  ==> CGRSolver (by Rob Parrish) <==

   Number of roots    =         1
   Preconditioning    =    JACOBI
   Convergence cutoff =     1E-06
   Maximum iterations =       100

  ==> CPHFRHamiltonian (by Rob Parrish) <== 

  ==> MemDFJK: Density-Fitted J/K Matrices <==

    J tasked:                   Yes
    K tasked:                   Yes
    wK tasked:                   No
    OpenMP threads:               8
    Memory [MiB]:             22888
    Algorithm:                 Core
    Schwarz Cutoff:           1E-12
    Mask sparsity (%):       0.2522
    Fitting Condition:        1E-10

   => Auxiliary Basis Set <=

  Basis Set: (AUG-CC-PVTZ AUX)
    Blend: AUG-CC-PVTZ-JKFIT + DEF2-UNIVERSAL-JKFIT
    Number of shells: 234
    Number of basis functions: 852
    Number of Cartesian functions: 1087
    Spherical Harmonics?: true
    Max angular momentum: 5

  ==> CPHF Iterations <==

  => Iterations <=

             Iter  Converged  Remaining    Residual
  CGR           1          0          1   1.027E-01
  CGR           2          0          1   2.239E-02
  CGR           3          0          1   5.940E-03
  CGR           4          0          1   1.612E-03
  CGR           5          0          1   5.770E-04
  CGR           6          0          1   2.228E-04
  CGR           7          0          1   5.792E-05
  CGR           8          0          1   1.377E-05
  CGR           9          0          1   4.395E-06
  CGR          10          0          1   1.228E-06
  CGR          11          1          0   3.221E-07

    CGRSolver converged.

	-----------------------------------------------------------
	 ==================> DF-MP2 Energies <==================== 
	-----------------------------------------------------------
	 Reference Energy          =    -412.3879082603224333 [Eh]
	 Singles Energy            =      -0.0000000000000000 [Eh]
	 Same-Spin Energy          =      -0.2014077574236613 [Eh]
	 Opposite-Spin Energy      =      -0.6477353168319584 [Eh]
	 Correlation Energy        =      -0.8491430742556196 [Eh]
	 Total Energy              =    -413.2370513345780410 [Eh]
	-----------------------------------------------------------
	 ================> DF-SCS-MP2 Energies <================== 
	-----------------------------------------------------------
	 SCS Same-Spin Scale       =       0.3333333333333333 [-]
	 SCS Opposite-Spin Scale   =       1.2000000000000000 [-]
	 SCS Same-Spin Energy      =      -0.0671359191412204 [Eh]
	 SCS Opposite-Spin Energy  =      -0.7772823801983501 [Eh]
	 SCS Correlation Energy    =      -0.8444182993395705 [Eh]
	 SCS Total Energy          =    -413.2323265596619990 [Eh]
	-----------------------------------------------------------



Properties will be evaluated at  -0.000000,   0.000000,  -0.000000 [a0]

Properties computed using the MP2 density matrix

  Nuclear Dipole Moment: [e a0]
     X:    77.3749      Y:     2.4437      Z:    -0.0001

  Electronic Dipole Moment: [e a0]
     X:   -76.5593      Y:    -2.3030      Z:     0.0001

  Dipole Moment: [e a0]
     X:     0.8156      Y:     0.1407      Z:    -0.0000     Total:     0.8276

  Dipole Moment: [D]
     X:     2.0730      Y:     0.3575      Z:    -0.0000     Total:     2.1036


*** tstop() called on c429-042.stampede2.tacc.utexas.edu at Wed Mar 31 23:38:13 2021
Module time:
	user time   =     295.26 seconds =       4.92 minutes
	system time =       6.59 seconds =       0.11 minutes
	total time  =         64 seconds =       1.07 minutes
Total time:
	user time   =     548.25 seconds =       9.14 minutes
	system time =      11.61 seconds =       0.19 minutes
	total time  =        122 seconds =       2.03 minutes

    Psi4 stopped on: Wednesday, 31 March 2021 11:38PM
    Psi4 wall time for execution: 0:02:02.82

*** Psi4 exiting successfully. Buy a developer a beer!
