139_Dipropionamide Gaussian SP Calculation on g2-node38.bme.utexas.edu  
Freq      RMP2-FC                                                     6-31G(d)            
Number of atoms                            I               20
Info1-9                                    I   N=           9
          31          30        1002           0           0         100
           6           2           1
Charge                                     I                0
Multiplicity                               I                1
Number of electrons                        I               70
Number of alpha electrons                  I               35
Number of beta electrons                   I               35
Number of basis functions                  I              157
Number of independent functions            I              157
Number of point charges in /Mol/           I                0
Number of translation vectors              I                0
Atomic numbers                             I   N=          20
           8           8           7           6           6           6
           6           6           6           1           1           1
           1           1           1           1           1           1
           1           1
Nuclear charges                            R   N=          20
  8.00000000E+00  8.00000000E+00  7.00000000E+00  6.00000000E+00  6.00000000E+00
  6.00000000E+00  6.00000000E+00  6.00000000E+00  6.00000000E+00  1.00000000E+00
  1.00000000E+00  1.00000000E+00  1.00000000E+00  1.00000000E+00  1.00000000E+00
  1.00000000E+00  1.00000000E+00  1.00000000E+00  1.00000000E+00  1.00000000E+00
Current cartesian coordinates              R   N=          60
  2.67793071E+00  2.54810557E+00  9.03220658E-06 -2.67793093E+00  2.54810557E+00
 -1.38461542E-05 -3.05219695E-08 -9.15843765E-01 -5.26498033E-06  4.54814418E+00
 -1.62590390E+00 -1.78828950E-05 -4.54814399E+00 -1.62590393E+00  1.17691601E-05
  2.37802727E+00  2.61971309E-01 -1.61068086E-06 -2.37802739E+00  2.61971367E-01
 -3.45291819E-06  7.10993670E+00 -3.19007866E-01  1.41323157E-05 -7.10993659E+00
 -3.19007991E-01  3.99106089E-06  4.34989205E+00 -2.85472476E+00 -1.65971083E+00
  4.34987677E+00 -2.85477730E+00  1.65963418E+00 -4.34988255E+00 -2.85473833E+00
  1.65969353E+00 -4.34988548E+00 -2.85476373E+00 -1.65965150E+00 -4.24081527E-08
 -2.83240825E+00 -4.62167299E-06  7.31403521E+00  8.81258988E-01 -1.66436770E+00
  8.62904373E+00 -1.71853278E+00  1.54211791E-05  7.31400669E+00  8.81231896E-01
  1.66441897E+00 -8.62904347E+00 -1.71853302E+00 -5.50017012E-07 -7.31402665E+00
  8.81245310E-01  1.66439674E+00 -7.31401536E+00  8.81245295E-01 -1.66438995E+00
Force Field                                I                0
Int Atom Types                             I   N=          20
           0           0           0           0           0           0
           0           0           0           0           0           0
           0           0           0           0           0           0
           0           0
MM charges                                 R   N=          20
  0.00000000E+00  0.00000000E+00  0.00000000E+00  0.00000000E+00  0.00000000E+00
  0.00000000E+00  0.00000000E+00  0.00000000E+00  0.00000000E+00  0.00000000E+00
  0.00000000E+00  0.00000000E+00  0.00000000E+00  0.00000000E+00  0.00000000E+00
  0.00000000E+00  0.00000000E+00  0.00000000E+00  0.00000000E+00  0.00000000E+00
Integer atomic weights                     I   N=          20
          16          16          14          12          12          12
          12          12          12           1           1           1
           1           1           1           1           1           1
           1           1
Real atomic weights                        R   N=          20
  1.59949146E+01  1.59949146E+01  1.40030740E+01  1.20000000E+01  1.20000000E+01
  1.20000000E+01  1.20000000E+01  1.20000000E+01  1.20000000E+01  1.00782504E+00
  1.00782504E+00  1.00782504E+00  1.00782504E+00  1.00782504E+00  1.00782504E+00
  1.00782504E+00  1.00782504E+00  1.00782504E+00  1.00782504E+00  1.00782504E+00
Atom fragment info                         I   N=          20
           0           0           0           0           0           0
           0           0           0           0           0           0
           0           0           0           0           0           0
           0           0
Atom residue num                           I   N=          20
           0           0           0           0           0           0
           0           0           0           0           0           0
           0           0           0           0           0           0
           0           0
Nuclear spins                              I   N=          20
           0           0           2           0           0           0
           0           0           0           1           1           1
           1           1           1           1           1           1
           1           1
Nuclear ZEff                               R   N=          20
 -5.60000000E+00 -5.60000000E+00 -4.55000000E+00 -3.60000000E+00 -3.60000000E+00
 -3.60000000E+00 -3.60000000E+00 -3.60000000E+00 -3.60000000E+00 -1.00000000E+00
 -1.00000000E+00 -1.00000000E+00 -1.00000000E+00 -1.00000000E+00 -1.00000000E+00
 -1.00000000E+00 -1.00000000E+00 -1.00000000E+00 -1.00000000E+00 -1.00000000E+00
Nuclear QMom                               R   N=          20
  0.00000000E+00  0.00000000E+00  2.04400000E+00  0.00000000E+00  0.00000000E+00
  0.00000000E+00  0.00000000E+00  0.00000000E+00  0.00000000E+00  0.00000000E+00
  0.00000000E+00  0.00000000E+00  0.00000000E+00  0.00000000E+00  0.00000000E+00
  0.00000000E+00  0.00000000E+00  0.00000000E+00  0.00000000E+00  0.00000000E+00
Nuclear GFac                               R   N=          20
  0.00000000E+00  0.00000000E+00  4.03761000E-01  0.00000000E+00  0.00000000E+00
  0.00000000E+00  0.00000000E+00  0.00000000E+00  0.00000000E+00  2.79284600E+00
  2.79284600E+00  2.79284600E+00  2.79284600E+00  2.79284600E+00  2.79284600E+00
  2.79284600E+00  2.79284600E+00  2.79284600E+00  2.79284600E+00  2.79284600E+00
MicOpt                                     I   N=          20
          -1          -1          -1          -1          -1          -1
          -1          -1          -1          -1          -1          -1
          -1          -1          -1          -1          -1          -1
          -1          -1
Number of contracted shells                I               58
Number of primitive shells                 I              143
Pure/Cartesian d shells                    I                1
Pure/Cartesian f shells                    I                0
Highest angular momentum                   I                2
Largest degree of contraction              I                6
Shell types                                I   N=          58
           0          -1          -1           2           0          -1
          -1           2           0          -1          -1           2
           0          -1          -1           2           0          -1
          -1           2           0          -1          -1           2
           0          -1          -1           2           0          -1
          -1           2           0          -1          -1           2
           0           0           0           0           0           0
           0           0           0           0           0           0
           0           0           0           0           0           0
           0           0           0           0
Number of primitives per shell             I   N=          58
           6           3           1           1           6           3
           1           1           6           3           1           1
           6           3           1           1           6           3
           1           1           6           3           1           1
           6           3           1           1           6           3
           1           1           6           3           1           1
           3           1           3           1           3           1
           3           1           3           1           3           1
           3           1           3           1           3           1
           3           1           3           1
Shell to atom map                          I   N=          58
           1           1           1           1           2           2
           2           2           3           3           3           3
           4           4           4           4           5           5
           5           5           6           6           6           6
           7           7           7           7           8           8
           8           8           9           9           9           9
          10          10          11          11          12          12
          13          13          14          14          15          15
          16          16          17          17          18          18
          19          19          20          20
Primitive exponents                        R   N=         143
  5.48467166E+03  8.25234946E+02  1.88046958E+02  5.29645000E+01  1.68975704E+01
  5.79963534E+00  1.55396162E+01  3.59993359E+00  1.01376175E+00  2.70005823E-01
  8.00000000E-01  5.48467166E+03  8.25234946E+02  1.88046958E+02  5.29645000E+01
  1.68975704E+01  5.79963534E+00  1.55396162E+01  3.59993359E+00  1.01376175E+00
  2.70005823E-01  8.00000000E-01  4.17351146E+03  6.27457911E+02  1.42902093E+02
  4.02343293E+01  1.28202129E+01  4.39043701E+00  1.16263619E+01  2.71627981E+00
  7.72218397E-01  2.12031498E-01  8.00000000E-01  3.04752488E+03  4.57369518E+02
  1.03948685E+02  2.92101553E+01  9.28666296E+00  3.16392696E+00  7.86827235E+00
  1.88128854E+00  5.44249258E-01  1.68714478E-01  8.00000000E-01  3.04752488E+03
  4.57369518E+02  1.03948685E+02  2.92101553E+01  9.28666296E+00  3.16392696E+00
  7.86827235E+00  1.88128854E+00  5.44249258E-01  1.68714478E-01  8.00000000E-01
  3.04752488E+03  4.57369518E+02  1.03948685E+02  2.92101553E+01  9.28666296E+00
  3.16392696E+00  7.86827235E+00  1.88128854E+00  5.44249258E-01  1.68714478E-01
  8.00000000E-01  3.04752488E+03  4.57369518E+02  1.03948685E+02  2.92101553E+01
  9.28666296E+00  3.16392696E+00  7.86827235E+00  1.88128854E+00  5.44249258E-01
  1.68714478E-01  8.00000000E-01  3.04752488E+03  4.57369518E+02  1.03948685E+02
  2.92101553E+01  9.28666296E+00  3.16392696E+00  7.86827235E+00  1.88128854E+00
  5.44249258E-01  1.68714478E-01  8.00000000E-01  3.04752488E+03  4.57369518E+02
  1.03948685E+02  2.92101553E+01  9.28666296E+00  3.16392696E+00  7.86827235E+00
  1.88128854E+00  5.44249258E-01  1.68714478E-01  8.00000000E-01  1.87311370E+01
  2.82539436E+00  6.40121692E-01  1.61277759E-01  1.87311370E+01  2.82539436E+00
  6.40121692E-01  1.61277759E-01  1.87311370E+01  2.82539436E+00  6.40121692E-01
  1.61277759E-01  1.87311370E+01  2.82539436E+00  6.40121692E-01  1.61277759E-01
  1.87311370E+01  2.82539436E+00  6.40121692E-01  1.61277759E-01  1.87311370E+01
  2.82539436E+00  6.40121692E-01  1.61277759E-01  1.87311370E+01  2.82539436E+00
  6.40121692E-01  1.61277759E-01  1.87311370E+01  2.82539436E+00  6.40121692E-01
  1.61277759E-01  1.87311370E+01  2.82539436E+00  6.40121692E-01  1.61277759E-01
  1.87311370E+01  2.82539436E+00  6.40121692E-01  1.61277759E-01  1.87311370E+01
  2.82539436E+00  6.40121692E-01  1.61277759E-01
Contraction coefficients                   R   N=         143
  1.83107443E-03  1.39501722E-02  6.84450781E-02  2.32714336E-01  4.70192898E-01
  3.58520853E-01 -1.10777550E-01 -1.48026263E-01  1.13076702E+00  1.00000000E+00
  1.00000000E+00  1.83107443E-03  1.39501722E-02  6.84450781E-02  2.32714336E-01
  4.70192898E-01  3.58520853E-01 -1.10777550E-01 -1.48026263E-01  1.13076702E+00
  1.00000000E+00  1.00000000E+00  1.83477216E-03  1.39946270E-02  6.85865518E-02
  2.32240873E-01  4.69069948E-01  3.60455199E-01 -1.14961182E-01 -1.69117479E-01
  1.14585195E+00  1.00000000E+00  1.00000000E+00  1.83473713E-03  1.40373228E-02
  6.88426223E-02  2.32184443E-01  4.67941348E-01  3.62311985E-01 -1.19332420E-01
 -1.60854152E-01  1.14345644E+00  1.00000000E+00  1.00000000E+00  1.83473713E-03
  1.40373228E-02  6.88426223E-02  2.32184443E-01  4.67941348E-01  3.62311985E-01
 -1.19332420E-01 -1.60854152E-01  1.14345644E+00  1.00000000E+00  1.00000000E+00
  1.83473713E-03  1.40373228E-02  6.88426223E-02  2.32184443E-01  4.67941348E-01
  3.62311985E-01 -1.19332420E-01 -1.60854152E-01  1.14345644E+00  1.00000000E+00
  1.00000000E+00  1.83473713E-03  1.40373228E-02  6.88426223E-02  2.32184443E-01
  4.67941348E-01  3.62311985E-01 -1.19332420E-01 -1.60854152E-01  1.14345644E+00
  1.00000000E+00  1.00000000E+00  1.83473713E-03  1.40373228E-02  6.88426223E-02
  2.32184443E-01  4.67941348E-01  3.62311985E-01 -1.19332420E-01 -1.60854152E-01
  1.14345644E+00  1.00000000E+00  1.00000000E+00  1.83473713E-03  1.40373228E-02
  6.88426223E-02  2.32184443E-01  4.67941348E-01  3.62311985E-01 -1.19332420E-01
 -1.60854152E-01  1.14345644E+00  1.00000000E+00  1.00000000E+00  3.34946043E-02
  2.34726953E-01  8.13757326E-01  1.00000000E+00  3.34946043E-02  2.34726953E-01
  8.13757326E-01  1.00000000E+00  3.34946043E-02  2.34726953E-01  8.13757326E-01
  1.00000000E+00  3.34946043E-02  2.34726953E-01  8.13757326E-01  1.00000000E+00
  3.34946043E-02  2.34726953E-01  8.13757326E-01  1.00000000E+00  3.34946043E-02
  2.34726953E-01  8.13757326E-01  1.00000000E+00  3.34946043E-02  2.34726953E-01
  8.13757326E-01  1.00000000E+00  3.34946043E-02  2.34726953E-01  8.13757326E-01
  1.00000000E+00  3.34946043E-02  2.34726953E-01  8.13757326E-01  1.00000000E+00
  3.34946043E-02  2.34726953E-01  8.13757326E-01  1.00000000E+00  3.34946043E-02
  2.34726953E-01  8.13757326E-01  1.00000000E+00
P(S=P) Contraction coefficients            R   N=         143
  0.00000000E+00  0.00000000E+00  0.00000000E+00  0.00000000E+00  0.00000000E+00
  0.00000000E+00  7.08742682E-02  3.39752839E-01  7.27158577E-01  1.00000000E+00
  0.00000000E+00  0.00000000E+00  0.00000000E+00  0.00000000E+00  0.00000000E+00
  0.00000000E+00  0.00000000E+00  7.08742682E-02  3.39752839E-01  7.27158577E-01
  1.00000000E+00  0.00000000E+00  0.00000000E+00  0.00000000E+00  0.00000000E+00
  0.00000000E+00  0.00000000E+00  0.00000000E+00  6.75797439E-02  3.23907296E-01
  7.40895140E-01  1.00000000E+00  0.00000000E+00  0.00000000E+00  0.00000000E+00
  0.00000000E+00  0.00000000E+00  0.00000000E+00  0.00000000E+00  6.89990666E-02
  3.16423961E-01  7.44308291E-01  1.00000000E+00  0.00000000E+00  0.00000000E+00
  0.00000000E+00  0.00000000E+00  0.00000000E+00  0.00000000E+00  0.00000000E+00
  6.89990666E-02  3.16423961E-01  7.44308291E-01  1.00000000E+00  0.00000000E+00
  0.00000000E+00  0.00000000E+00  0.00000000E+00  0.00000000E+00  0.00000000E+00
  0.00000000E+00  6.89990666E-02  3.16423961E-01  7.44308291E-01  1.00000000E+00
  0.00000000E+00  0.00000000E+00  0.00000000E+00  0.00000000E+00  0.00000000E+00
  0.00000000E+00  0.00000000E+00  6.89990666E-02  3.16423961E-01  7.44308291E-01
  1.00000000E+00  0.00000000E+00  0.00000000E+00  0.00000000E+00  0.00000000E+00
  0.00000000E+00  0.00000000E+00  0.00000000E+00  6.89990666E-02  3.16423961E-01
  7.44308291E-01  1.00000000E+00  0.00000000E+00  0.00000000E+00  0.00000000E+00
  0.00000000E+00  0.00000000E+00  0.00000000E+00  0.00000000E+00  6.89990666E-02
  3.16423961E-01  7.44308291E-01  1.00000000E+00  0.00000000E+00  0.00000000E+00
  0.00000000E+00  0.00000000E+00  0.00000000E+00  0.00000000E+00  0.00000000E+00
  0.00000000E+00  0.00000000E+00  0.00000000E+00  0.00000000E+00  0.00000000E+00
  0.00000000E+00  0.00000000E+00  0.00000000E+00  0.00000000E+00  0.00000000E+00
  0.00000000E+00  0.00000000E+00  0.00000000E+00  0.00000000E+00  0.00000000E+00
  0.00000000E+00  0.00000000E+00  0.00000000E+00  0.00000000E+00  0.00000000E+00
  0.00000000E+00  0.00000000E+00  0.00000000E+00  0.00000000E+00  0.00000000E+00
  0.00000000E+00  0.00000000E+00  0.00000000E+00  0.00000000E+00  0.00000000E+00
  0.00000000E+00  0.00000000E+00  0.00000000E+00  0.00000000E+00  0.00000000E+00
  0.00000000E+00  0.00000000E+00  0.00000000E+00
Coordinates of each shell                  R   N=         174
  2.67793071E+00  2.54810557E+00  9.03220658E-06  2.67793071E+00  2.54810557E+00
  9.03220658E-06  2.67793071E+00  2.54810557E+00  9.03220658E-06  2.67793071E+00
  2.54810557E+00  9.03220658E-06 -2.67793093E+00  2.54810557E+00 -1.38461542E-05
 -2.67793093E+00  2.54810557E+00 -1.38461542E-05 -2.67793093E+00  2.54810557E+00
 -1.38461542E-05 -2.67793093E+00  2.54810557E+00 -1.38461542E-05 -3.05219695E-08
 -9.15843765E-01 -5.26498033E-06 -3.05219695E-08 -9.15843765E-01 -5.26498033E-06
 -3.05219695E-08 -9.15843765E-01 -5.26498033E-06 -3.05219695E-08 -9.15843765E-01
 -5.26498033E-06  4.54814418E+00 -1.62590390E+00 -1.78828950E-05  4.54814418E+00
 -1.62590390E+00 -1.78828950E-05  4.54814418E+00 -1.62590390E+00 -1.78828950E-05
  4.54814418E+00 -1.62590390E+00 -1.78828950E-05 -4.54814399E+00 -1.62590393E+00
  1.17691601E-05 -4.54814399E+00 -1.62590393E+00  1.17691601E-05 -4.54814399E+00
 -1.62590393E+00  1.17691601E-05 -4.54814399E+00 -1.62590393E+00  1.17691601E-05
  2.37802727E+00  2.61971309E-01 -1.61068086E-06  2.37802727E+00  2.61971309E-01
 -1.61068086E-06  2.37802727E+00  2.61971309E-01 -1.61068086E-06  2.37802727E+00
  2.61971309E-01 -1.61068086E-06 -2.37802739E+00  2.61971367E-01 -3.45291819E-06
 -2.37802739E+00  2.61971367E-01 -3.45291819E-06 -2.37802739E+00  2.61971367E-01
 -3.45291819E-06 -2.37802739E+00  2.61971367E-01 -3.45291819E-06  7.10993670E+00
 -3.19007866E-01  1.41323157E-05  7.10993670E+00 -3.19007866E-01  1.41323157E-05
  7.10993670E+00 -3.19007866E-01  1.41323157E-05  7.10993670E+00 -3.19007866E-01
  1.41323157E-05 -7.10993659E+00 -3.19007991E-01  3.99106089E-06 -7.10993659E+00
 -3.19007991E-01  3.99106089E-06 -7.10993659E+00 -3.19007991E-01  3.99106089E-06
 -7.10993659E+00 -3.19007991E-01  3.99106089E-06  4.34989205E+00 -2.85472476E+00
 -1.65971083E+00  4.34989205E+00 -2.85472476E+00 -1.65971083E+00  4.34987677E+00
 -2.85477730E+00  1.65963418E+00  4.34987677E+00 -2.85477730E+00  1.65963418E+00
 -4.34988255E+00 -2.85473833E+00  1.65969353E+00 -4.34988255E+00 -2.85473833E+00
  1.65969353E+00 -4.34988548E+00 -2.85476373E+00 -1.65965150E+00 -4.34988548E+00
 -2.85476373E+00 -1.65965150E+00 -4.24081527E-08 -2.83240825E+00 -4.62167299E-06
 -4.24081527E-08 -2.83240825E+00 -4.62167299E-06  7.31403521E+00  8.81258988E-01
 -1.66436770E+00  7.31403521E+00  8.81258988E-01 -1.66436770E+00  8.62904373E+00
 -1.71853278E+00  1.54211791E-05  8.62904373E+00 -1.71853278E+00  1.54211791E-05
  7.31400669E+00  8.81231896E-01  1.66441897E+00  7.31400669E+00  8.81231896E-01
  1.66441897E+00 -8.62904347E+00 -1.71853302E+00 -5.50017012E-07 -8.62904347E+00
 -1.71853302E+00 -5.50017012E-07 -7.31402665E+00  8.81245310E-01  1.66439674E+00
 -7.31402665E+00  8.81245310E-01  1.66439674E+00 -7.31401536E+00  8.81245295E-01
 -1.66438995E+00 -7.31401536E+00  8.81245295E-01 -1.66438995E+00
Constraint Structure                       R   N=          60
  2.67793071E+00  2.54810557E+00  9.03220658E-06 -2.67793093E+00  2.54810557E+00
 -1.38461542E-05 -3.05219695E-08 -9.15843765E-01 -5.26498033E-06  4.54814418E+00
 -1.62590390E+00 -1.78828950E-05 -4.54814399E+00 -1.62590393E+00  1.17691601E-05
  2.37802727E+00  2.61971309E-01 -1.61068086E-06 -2.37802739E+00  2.61971367E-01
 -3.45291819E-06  7.10993670E+00 -3.19007866E-01  1.41323157E-05 -7.10993659E+00
 -3.19007991E-01  3.99106089E-06  4.34989205E+00 -2.85472476E+00 -1.65971083E+00
  4.34987677E+00 -2.85477730E+00  1.65963418E+00 -4.34988255E+00 -2.85473833E+00
  1.65969353E+00 -4.34988548E+00 -2.85476373E+00 -1.65965150E+00 -4.24081527E-08
 -2.83240825E+00 -4.62167299E-06  7.31403521E+00  8.81258988E-01 -1.66436770E+00
  8.62904373E+00 -1.71853278E+00  1.54211791E-05  7.31400669E+00  8.81231896E-01
  1.66441897E+00 -8.62904347E+00 -1.71853302E+00 -5.50017012E-07 -7.31402665E+00
  8.81245310E-01  1.66439674E+00 -7.31401536E+00  8.81245295E-01 -1.66438995E+00
Num ILSW                                   I              100
ILSW                                       I   N=         100
           0           1           0           0           2           0
           0           0           0           0           0          -1
           0           0           0           0           0           0
           0           0           0           0           1           0
           1           0           0           0           0           0
           0           0      100000           0          -1           0
           0           0           0           0           0           0
           0           0           0           1           1           0
           0           0           1           0           0           0
           0           0           4          40           0           0
           0           0           0           0           0           0
           0           0           0           0           0           0
           0           0           0           0           0           0
           0           0           0           0           0           0
           0           0           0           0           0           0
           0           0           0           0           0           0
           0           0           0           0
Num RLSW                                   I               40
RLSW                                       R   N=          40
  1.00000000E+00  1.00000000E+00  1.00000000E+00  1.00000000E+00  1.00000000E+00
  0.00000000E+00  0.00000000E+00  1.00000000E+00  0.00000000E+00  0.00000000E+00
  0.00000000E+00  0.00000000E+00  1.00000000E+00  0.00000000E+00  0.00000000E+00
  0.00000000E+00  0.00000000E+00  1.00000000E+00  0.00000000E+00  0.00000000E+00
  0.00000000E+00  0.00000000E+00  1.00000000E+00  0.00000000E+00  0.00000000E+00
  0.00000000E+00  0.00000000E+00  1.00000000E+00  0.00000000E+00  0.00000000E+00
  0.00000000E+00  0.00000000E+00  0.00000000E+00  0.00000000E+00  0.00000000E+00
  0.00000000E+00  0.00000000E+00  0.00000000E+00  1.00000000E+00  1.00000000E+00
MxBond                                     I                4
NBond                                      I   N=          20
           1           1           3           4           4           3
           3           4           4           1           1           1
           1           1           1           1           1           1
           1           1
IBond                                      I   N=          80
           6           0           0           0           7           0
           0           0           6           7          14           0
           6           8          10          11           7           9
          12          13           1           3           4           0
           2           3           5           0           4          15
          16          17           5          18          19          20
           4           0           0           0           4           0
           0           0           5           0           0           0
           5           0           0           0           3           0
           0           0           8           0           0           0
           8           0           0           0           8           0
           0           0           9           0           0           0
           9           0           0           0           9           0
           0           0
RBond                                      R   N=          80
  2.00000000E+00  0.00000000E+00  0.00000000E+00  0.00000000E+00  2.00000000E+00
  0.00000000E+00  0.00000000E+00  0.00000000E+00  1.00000000E+00  1.00000000E+00
  1.00000000E+00  0.00000000E+00  1.00000000E+00  1.00000000E+00  1.00000000E+00
  1.00000000E+00  1.00000000E+00  1.00000000E+00  1.00000000E+00  1.00000000E+00
  2.00000000E+00  1.00000000E+00  1.00000000E+00  0.00000000E+00  2.00000000E+00
  1.00000000E+00  1.00000000E+00  0.00000000E+00  1.00000000E+00  1.00000000E+00
  1.00000000E+00  1.00000000E+00  1.00000000E+00  1.00000000E+00  1.00000000E+00
  1.00000000E+00  1.00000000E+00  0.00000000E+00  0.00000000E+00  0.00000000E+00
  1.00000000E+00  0.00000000E+00  0.00000000E+00  0.00000000E+00  1.00000000E+00
  0.00000000E+00  0.00000000E+00  0.00000000E+00  1.00000000E+00  0.00000000E+00
  0.00000000E+00  0.00000000E+00  1.00000000E+00  0.00000000E+00  0.00000000E+00
  0.00000000E+00  1.00000000E+00  0.00000000E+00  0.00000000E+00  0.00000000E+00
  1.00000000E+00  0.00000000E+00  0.00000000E+00  0.00000000E+00  1.00000000E+00
  0.00000000E+00  0.00000000E+00  0.00000000E+00  1.00000000E+00  0.00000000E+00
  0.00000000E+00  0.00000000E+00  1.00000000E+00  0.00000000E+00  0.00000000E+00
  0.00000000E+00  1.00000000E+00  0.00000000E+00  0.00000000E+00  0.00000000E+00
Virial Ratio                               R      2.002692277172487E+00
SCF Energy                                 R     -4.378164790291444E+02
MP2 Energy                                 R     -4.391051892597268E+02
Total Energy                               R     -4.391051892597268E+02
Post-SCF wavefunction norm                 R      1.679346799297810E+00
RMS Force                                  R      3.152870085153530E-07
RMS Density                                R      2.073578707268483E-09
External E-field                           R   N=          35
  0.00000000E+00  0.00000000E+00  0.00000000E+00  0.00000000E+00  0.00000000E+00
  0.00000000E+00  0.00000000E+00  0.00000000E+00  0.00000000E+00  0.00000000E+00
  0.00000000E+00  0.00000000E+00  0.00000000E+00  0.00000000E+00  0.00000000E+00
  0.00000000E+00  0.00000000E+00  0.00000000E+00  0.00000000E+00  0.00000000E+00
  0.00000000E+00  0.00000000E+00  0.00000000E+00  0.00000000E+00  0.00000000E+00
  0.00000000E+00  0.00000000E+00  0.00000000E+00  0.00000000E+00  0.00000000E+00
  0.00000000E+00  0.00000000E+00  0.00000000E+00  0.00000000E+00  0.00000000E+00
IOpCl                                      I                0
IROHF                                      I                0
Alpha Orbital Energies                     R   N=         157
 -2.05458592E+01 -2.05458577E+01 -1.56192114E+01 -1.13708085E+01 -1.13708005E+01
 -1.12556126E+01 -1.12556111E+01 -1.12250284E+01 -1.12250282E+01 -1.40152007E+00
 -1.37371771E+00 -1.24293391E+00 -1.07249417E+00 -1.05622993E+00 -9.37781105E-01
 -8.80941504E-01 -8.03698830E-01 -7.75063942E-01 -7.05429005E-01 -6.75502050E-01
 -6.57565177E-01 -6.39906997E-01 -6.25042725E-01 -6.03916896E-01 -5.76015321E-01
 -5.47192153E-01 -5.31076943E-01 -5.26858345E-01 -5.24880383E-01 -5.23117264E-01
 -5.03204229E-01 -4.88167131E-01 -4.56997047E-01 -4.17315313E-01 -4.05695541E-01
  1.46295468E-01  1.96792967E-01  2.12560386E-01  2.32267490E-01  2.43783329E-01
  2.86725787E-01  2.93631819E-01  3.08016456E-01  3.08476731E-01  3.14134692E-01
  3.16513682E-01  3.41218395E-01  3.55073696E-01  3.71505378E-01  3.73537428E-01
  4.24134075E-01  4.38018079E-01  4.69921520E-01  4.98832076E-01  5.19823523E-01
  5.98457088E-01  7.12210104E-01  7.23847677E-01  7.28624670E-01  7.32108475E-01
  7.67271138E-01  7.69962600E-01  7.80116383E-01  8.09208988E-01  8.20426441E-01
  8.92750126E-01  8.94959321E-01  9.20199042E-01  9.33268730E-01  9.34605098E-01
  9.71871005E-01  9.93989786E-01  1.02397077E+00  1.02738821E+00  1.03275026E+00
  1.03800819E+00  1.10001453E+00  1.11265803E+00  1.11394101E+00  1.12802749E+00
  1.15038536E+00  1.15113248E+00  1.17246852E+00  1.17258396E+00  1.17409421E+00
  1.17600697E+00  1.19952584E+00  1.20626455E+00  1.23942460E+00  1.24155280E+00
  1.32703598E+00  1.34104497E+00  1.35259881E+00  1.35738671E+00  1.43935893E+00
  1.55203984E+00  1.56807316E+00  1.57619924E+00  1.60745733E+00  1.63579184E+00
  1.65236651E+00  1.70309259E+00  1.76647837E+00  1.82172543E+00  1.83390597E+00
  1.84069669E+00  1.86298771E+00  1.98589124E+00  2.06805189E+00  2.07359740E+00
  2.07786880E+00  2.08296545E+00  2.08313005E+00  2.12460455E+00  2.15154238E+00
  2.18631571E+00  2.20770147E+00  2.22563451E+00  2.26623473E+00  2.27058153E+00
  2.27817079E+00  2.28201327E+00  2.32840953E+00  2.35884647E+00  2.42605993E+00
  2.48457639E+00  2.54208549E+00  2.57994801E+00  2.63528632E+00  2.64221879E+00
  2.64512892E+00  2.64535767E+00  2.65383577E+00  2.70522641E+00  2.71309123E+00
  2.71778146E+00  2.75757843E+00  2.89902662E+00  2.91797656E+00  2.96530639E+00
  2.99876660E+00  3.05876242E+00  3.14978239E+00  3.22491051E+00  3.32977737E+00
  3.33375736E+00  3.41764768E+00  3.63199116E+00  4.40395703E+00  4.42935513E+00
  4.48421387E+00  4.60034897E+00  4.61413225E+00  4.78141500E+00  4.80710944E+00
  4.88732594E+00  4.99264943E+00
Alpha MO coefficients                      R   N=       24649
 -6.99380252E-01 -1.47327352E-02  1.24988917E-04  1.11617266E-03  5.11556004E-09
 -3.17205312E-03  5.74263939E-05 -5.41389784E-05 -7.83916196E-11  2.74055983E-03
  2.55341241E-03  2.93932812E-03 -3.16379966E-05  1.15848547E-11 -2.28069993E-09
  7.07302570E-01  1.48998852E-02  1.26693283E-04 -1.12886059E-03  5.23564970E-09
  3.20739308E-03  5.70682586E-05  5.42662063E-05 -1.16798611E-10 -2.77148163E-03
 -2.58167933E-03 -2.97214069E-03 -3.18370590E-05 -4.43534017E-10 -2.20162407E-09
 -3.67348091E-08 -2.38468672E-07  2.11618220E-05 -2.36905907E-07  1.41159552E-10
  3.81114906E-07 -9.59525069E-05  7.32516870E-07  8.14523243E-11  7.52068155E-07
 -5.58903908E-07 -3.15680023E-07  5.90769683E-05 -1.86365379E-10  1.62364725E-10
  2.37382622E-06  8.44685590E-06  6.35512308E-06  1.94595358E-05  1.24388551E-10
 -1.70408071E-05 -1.12514149E-04 -1.27299536E-05 -5.68599654E-10 -3.39070477E-05