12795898                                                                
Freq      RMP2-FC                                                     6-31G(d)            
Number of atoms                            I               20
Info1-9                                    I   N=           9
          32          30        1002           0           0         100
           6           2           1
Charge                                     I                0
Multiplicity                               I                1
Number of electrons                        I               74
Number of alpha electrons                  I               37
Number of beta electrons                   I               37
Number of basis functions                  I              170
Number of independent functions            I              170
Number of point charges in /Mol/           I                0
Number of translation vectors              I                0
Atomic numbers                             I   N=          20
           8           8           6           6           6           6
           6           6           6           6           1           1
           1           1           1           1           1           1
           1           1
Nuclear charges                            R   N=          20
  8.00000000E+00  8.00000000E+00  6.00000000E+00  6.00000000E+00  6.00000000E+00
  6.00000000E+00  6.00000000E+00  6.00000000E+00  6.00000000E+00  6.00000000E+00
  1.00000000E+00  1.00000000E+00  1.00000000E+00  1.00000000E+00  1.00000000E+00
  1.00000000E+00  1.00000000E+00  1.00000000E+00  1.00000000E+00  1.00000000E+00
Current cartesian coordinates              R   N=          60
 -3.42342806E+00  4.49778880E+00  2.57705286E-01 -3.36360753E+00 -4.53426988E+00
  2.24849273E-01  1.79326853E+00 -5.79368698E-02 -6.97228195E-01  4.61658302E+00
 -1.07450907E-01 -1.07876117E+00  4.44931978E-01 -2.30928779E+00 -4.48607538E-01
  5.28750652E-01  2.25606545E+00 -4.50509402E-01  6.04411214E+00 -5.01918951E-02
  1.43874046E+00 -2.06388918E+00  2.29401192E+00  1.50623879E-02 -2.15358989E+00
 -2.24332381E+00  1.93235327E-02 -3.42654634E+00  4.80241333E-02  2.61875799E-01
  5.13640494E+00 -1.81115031E+00 -2.13562924E+00  5.18658403E+00  1.51082026E+00
 -2.24080473E+00  1.37162947E+00 -4.13325060E+00 -6.36738863E-01  1.57022889E+00
  4.02227698E+00 -6.52377208E-01  5.57631031E+00  1.66064069E+00  2.50022766E+00
  8.09024953E+00 -9.02141153E-02  1.13904650E+00  5.52385435E+00 -1.67880564E+00
  2.59959942E+00 -5.44951361E+00  1.40043753E-01  6.16041773E-01 -2.26380753E+00
  5.90996636E+00  4.63222157E-02 -5.14738112E+00 -4.21794009E+00  5.44500779E-01
Force Field                                I                0
Int Atom Types                             I   N=          20
           0           0           0           0           0           0
           0           0           0           0           0           0
           0           0           0           0           0           0
           0           0
MM charges                                 R   N=          20
  0.00000000E+00  0.00000000E+00  0.00000000E+00  0.00000000E+00  0.00000000E+00
  0.00000000E+00  0.00000000E+00  0.00000000E+00  0.00000000E+00  0.00000000E+00
  0.00000000E+00  0.00000000E+00  0.00000000E+00  0.00000000E+00  0.00000000E+00
  0.00000000E+00  0.00000000E+00  0.00000000E+00  0.00000000E+00  0.00000000E+00
Integer atomic weights                     I   N=          20
          16          16          12          12          12          12
          12          12          12          12           1           1
           1           1           1           1           1           1
           1           1
Real atomic weights                        R   N=          20
  1.59949146E+01  1.59949146E+01  1.20000000E+01  1.20000000E+01  1.20000000E+01
  1.20000000E+01  1.20000000E+01  1.20000000E+01  1.20000000E+01  1.20000000E+01
  1.00782504E+00  1.00782504E+00  1.00782504E+00  1.00782504E+00  1.00782504E+00
  1.00782504E+00  1.00782504E+00  1.00782504E+00  1.00782504E+00  1.00782504E+00
Atom fragment info                         I   N=          20
           0           0           0           0           0           0
           0           0           0           0           0           0
           0           0           0           0           0           0
           0           0
Atom residue num                           I   N=          20
           0           0           0           0           0           0
           0           0           0           0           0           0
           0           0           0           0           0           0
           0           0
Nuclear spins                              I   N=          20
           0           0           0           0           0           0
           0           0           0           0           1           1
           1           1           1           1           1           1
           1           1
Nuclear ZEff                               R   N=          20
 -5.60000000E+00 -5.60000000E+00 -3.60000000E+00 -3.60000000E+00 -3.60000000E+00
 -3.60000000E+00 -3.60000000E+00 -3.60000000E+00 -3.60000000E+00 -3.60000000E+00
 -1.00000000E+00 -1.00000000E+00 -1.00000000E+00 -1.00000000E+00 -1.00000000E+00
 -1.00000000E+00 -1.00000000E+00 -1.00000000E+00 -1.00000000E+00 -1.00000000E+00
Nuclear QMom                               R   N=          20
  0.00000000E+00  0.00000000E+00  0.00000000E+00  0.00000000E+00  0.00000000E+00
  0.00000000E+00  0.00000000E+00  0.00000000E+00  0.00000000E+00  0.00000000E+00
  0.00000000E+00  0.00000000E+00  0.00000000E+00  0.00000000E+00  0.00000000E+00
  0.00000000E+00  0.00000000E+00  0.00000000E+00  0.00000000E+00  0.00000000E+00
Nuclear GFac                               R   N=          20
  0.00000000E+00  0.00000000E+00  0.00000000E+00  0.00000000E+00  0.00000000E+00
  0.00000000E+00  0.00000000E+00  0.00000000E+00  0.00000000E+00  0.00000000E+00
  2.79284600E+00  2.79284600E+00  2.79284600E+00  2.79284600E+00  2.79284600E+00
  2.79284600E+00  2.79284600E+00  2.79284600E+00  2.79284600E+00  2.79284600E+00
MicOpt                                     I   N=          20
          -1          -1          -1          -1          -1          -1
          -1          -1          -1          -1          -1          -1
          -1          -1          -1          -1          -1          -1
          -1          -1
Number of contracted shells                I               60
Number of primitive shells                 I              150
Pure/Cartesian d shells                    I                1
Pure/Cartesian f shells                    I                0
Highest angular momentum                   I                2
Largest degree of contraction              I                6
Shell types                                I   N=          60
           0          -1          -1           2           0          -1
          -1           2           0          -1          -1           2
           0          -1          -1           2           0          -1
          -1           2           0          -1          -1           2
           0          -1          -1           2           0          -1
          -1           2           0          -1          -1           2
           0          -1          -1           2           0           0
           0           0           0           0           0           0
           0           0           0           0           0           0
           0           0           0           0           0           0
Number of primitives per shell             I   N=          60
           6           3           1           1           6           3
           1           1           6           3           1           1
           6           3           1           1           6           3
           1           1           6           3           1           1
           6           3           1           1           6           3
           1           1           6           3           1           1
           6           3           1           1           3           1
           3           1           3           1           3           1
           3           1           3           1           3           1
           3           1           3           1           3           1
Shell to atom map                          I   N=          60
           1           1           1           1           2           2
           2           2           3           3           3           3
           4           4           4           4           5           5
           5           5           6           6           6           6
           7           7           7           7           8           8
           8           8           9           9           9           9
          10          10          10          10          11          11
          12          12          13          13          14          14
          15          15          16          16          17          17
          18          18          19          19          20          20
Primitive exponents                        R   N=         150
  5.48467166E+03  8.25234946E+02  1.88046958E+02  5.29645000E+01  1.68975704E+01
  5.79963534E+00  1.55396162E+01  3.59993359E+00  1.01376175E+00  2.70005823E-01
  8.00000000E-01  5.48467166E+03  8.25234946E+02  1.88046958E+02  5.29645000E+01
  1.68975704E+01  5.79963534E+00  1.55396162E+01  3.59993359E+00  1.01376175E+00
  2.70005823E-01  8.00000000E-01  3.04752488E+03  4.57369518E+02  1.03948685E+02
  2.92101553E+01  9.28666296E+00  3.16392696E+00  7.86827235E+00  1.88128854E+00
  5.44249258E-01  1.68714478E-01  8.00000000E-01  3.04752488E+03  4.57369518E+02
  1.03948685E+02  2.92101553E+01  9.28666296E+00  3.16392696E+00  7.86827235E+00
  1.88128854E+00  5.44249258E-01  1.68714478E-01  8.00000000E-01  3.04752488E+03
  4.57369518E+02  1.03948685E+02  2.92101553E+01  9.28666296E+00  3.16392696E+00
  7.86827235E+00  1.88128854E+00  5.44249258E-01  1.68714478E-01  8.00000000E-01
  3.04752488E+03  4.57369518E+02  1.03948685E+02  2.92101553E+01  9.28666296E+00
  3.16392696E+00  7.86827235E+00  1.88128854E+00  5.44249258E-01  1.68714478E-01
  8.00000000E-01  3.04752488E+03  4.57369518E+02  1.03948685E+02  2.92101553E+01
  9.28666296E+00  3.16392696E+00  7.86827235E+00  1.88128854E+00  5.44249258E-01
  1.68714478E-01  8.00000000E-01  3.04752488E+03  4.57369518E+02  1.03948685E+02
  2.92101553E+01  9.28666296E+00  3.16392696E+00  7.86827235E+00  1.88128854E+00
  5.44249258E-01  1.68714478E-01  8.00000000E-01  3.04752488E+03  4.57369518E+02
  1.03948685E+02  2.92101553E+01  9.28666296E+00  3.16392696E+00  7.86827235E+00
  1.88128854E+00  5.44249258E-01  1.68714478E-01  8.00000000E-01  3.04752488E+03
  4.57369518E+02  1.03948685E+02  2.92101553E+01  9.28666296E+00  3.16392696E+00
  7.86827235E+00  1.88128854E+00  5.44249258E-01  1.68714478E-01  8.00000000E-01
  1.87311370E+01  2.82539436E+00  6.40121692E-01  1.61277759E-01  1.87311370E+01
  2.82539436E+00  6.40121692E-01  1.61277759E-01  1.87311370E+01  2.82539436E+00
  6.40121692E-01  1.61277759E-01  1.87311370E+01  2.82539436E+00  6.40121692E-01
  1.61277759E-01  1.87311370E+01  2.82539436E+00  6.40121692E-01  1.61277759E-01
  1.87311370E+01  2.82539436E+00  6.40121692E-01  1.61277759E-01  1.87311370E+01
  2.82539436E+00  6.40121692E-01  1.61277759E-01  1.87311370E+01  2.82539436E+00
  6.40121692E-01  1.61277759E-01  1.87311370E+01  2.82539436E+00  6.40121692E-01
  1.61277759E-01  1.87311370E+01  2.82539436E+00  6.40121692E-01  1.61277759E-01
Contraction coefficients                   R   N=         150
  1.83107443E-03  1.39501722E-02  6.84450781E-02  2.32714336E-01  4.70192898E-01
  3.58520853E-01 -1.10777550E-01 -1.48026263E-01  1.13076702E+00  1.00000000E+00
  1.00000000E+00  1.83107443E-03  1.39501722E-02  6.84450781E-02  2.32714336E-01
  4.70192898E-01  3.58520853E-01 -1.10777550E-01 -1.48026263E-01  1.13076702E+00
  1.00000000E+00  1.00000000E+00  1.83473713E-03  1.40373228E-02  6.88426223E-02
  2.32184443E-01  4.67941348E-01  3.62311985E-01 -1.19332420E-01 -1.60854152E-01
  1.14345644E+00  1.00000000E+00  1.00000000E+00  1.83473713E-03  1.40373228E-02
  6.88426223E-02  2.32184443E-01  4.67941348E-01  3.62311985E-01 -1.19332420E-01
 -1.60854152E-01  1.14345644E+00  1.00000000E+00  1.00000000E+00  1.83473713E-03
  1.40373228E-02  6.88426223E-02  2.32184443E-01  4.67941348E-01  3.62311985E-01
 -1.19332420E-01 -1.60854152E-01  1.14345644E+00  1.00000000E+00  1.00000000E+00
  1.83473713E-03  1.40373228E-02  6.88426223E-02  2.32184443E-01  4.67941348E-01
  3.62311985E-01 -1.19332420E-01 -1.60854152E-01  1.14345644E+00  1.00000000E+00
  1.00000000E+00  1.83473713E-03  1.40373228E-02  6.88426223E-02  2.32184443E-01
  4.67941348E-01  3.62311985E-01 -1.19332420E-01 -1.60854152E-01  1.14345644E+00
  1.00000000E+00  1.00000000E+00  1.83473713E-03  1.40373228E-02  6.88426223E-02
  2.32184443E-01  4.67941348E-01  3.62311985E-01 -1.19332420E-01 -1.60854152E-01
  1.14345644E+00  1.00000000E+00  1.00000000E+00  1.83473713E-03  1.40373228E-02
  6.88426223E-02  2.32184443E-01  4.67941348E-01  3.62311985E-01 -1.19332420E-01
 -1.60854152E-01  1.14345644E+00  1.00000000E+00  1.00000000E+00  1.83473713E-03
  1.40373228E-02  6.88426223E-02  2.32184443E-01  4.67941348E-01  3.62311985E-01
 -1.19332420E-01 -1.60854152E-01  1.14345644E+00  1.00000000E+00  1.00000000E+00
  3.34946043E-02  2.34726953E-01  8.13757326E-01  1.00000000E+00  3.34946043E-02
  2.34726953E-01  8.13757326E-01  1.00000000E+00  3.34946043E-02  2.34726953E-01
  8.13757326E-01  1.00000000E+00  3.34946043E-02  2.34726953E-01  8.13757326E-01
  1.00000000E+00  3.34946043E-02  2.34726953E-01  8.13757326E-01  1.00000000E+00
  3.34946043E-02  2.34726953E-01  8.13757326E-01  1.00000000E+00  3.34946043E-02
  2.34726953E-01  8.13757326E-01  1.00000000E+00  3.34946043E-02  2.34726953E-01
  8.13757326E-01  1.00000000E+00  3.34946043E-02  2.34726953E-01  8.13757326E-01
  1.00000000E+00  3.34946043E-02  2.34726953E-01  8.13757326E-01  1.00000000E+00
P(S=P) Contraction coefficients            R   N=         150
  0.00000000E+00  0.00000000E+00  0.00000000E+00  0.00000000E+00  0.00000000E+00
  0.00000000E+00  7.08742682E-02  3.39752839E-01  7.27158577E-01  1.00000000E+00
  0.00000000E+00  0.00000000E+00  0.00000000E+00  0.00000000E+00  0.00000000E+00
  0.00000000E+00  0.00000000E+00  7.08742682E-02  3.39752839E-01  7.27158577E-01
  1.00000000E+00  0.00000000E+00  0.00000000E+00  0.00000000E+00  0.00000000E+00
  0.00000000E+00  0.00000000E+00  0.00000000E+00  6.89990666E-02  3.16423961E-01
  7.44308291E-01  1.00000000E+00  0.00000000E+00  0.00000000E+00  0.00000000E+00
  0.00000000E+00  0.00000000E+00  0.00000000E+00  0.00000000E+00  6.89990666E-02
  3.16423961E-01  7.44308291E-01  1.00000000E+00  0.00000000E+00  0.00000000E+00
  0.00000000E+00  0.00000000E+00  0.00000000E+00  0.00000000E+00  0.00000000E+00
  6.89990666E-02  3.16423961E-01  7.44308291E-01  1.00000000E+00  0.00000000E+00
  0.00000000E+00  0.00000000E+00  0.00000000E+00  0.00000000E+00  0.00000000E+00
  0.00000000E+00  6.89990666E-02  3.16423961E-01  7.44308291E-01  1.00000000E+00
  0.00000000E+00  0.00000000E+00  0.00000000E+00  0.00000000E+00  0.00000000E+00
  0.00000000E+00  0.00000000E+00  6.89990666E-02  3.16423961E-01  7.44308291E-01
  1.00000000E+00  0.00000000E+00  0.00000000E+00  0.00000000E+00  0.00000000E+00
  0.00000000E+00  0.00000000E+00  0.00000000E+00  6.89990666E-02  3.16423961E-01
  7.44308291E-01  1.00000000E+00  0.00000000E+00  0.00000000E+00  0.00000000E+00
  0.00000000E+00  0.00000000E+00  0.00000000E+00  0.00000000E+00  6.89990666E-02
  3.16423961E-01  7.44308291E-01  1.00000000E+00  0.00000000E+00  0.00000000E+00
  0.00000000E+00  0.00000000E+00  0.00000000E+00  0.00000000E+00  0.00000000E+00
  6.89990666E-02  3.16423961E-01  7.44308291E-01  1.00000000E+00  0.00000000E+00
  0.00000000E+00  0.00000000E+00  0.00000000E+00  0.00000000E+00  0.00000000E+00
  0.00000000E+00  0.00000000E+00  0.00000000E+00  0.00000000E+00  0.00000000E+00
  0.00000000E+00  0.00000000E+00  0.00000000E+00  0.00000000E+00  0.00000000E+00
  0.00000000E+00  0.00000000E+00  0.00000000E+00  0.00000000E+00  0.00000000E+00
  0.00000000E+00  0.00000000E+00  0.00000000E+00  0.00000000E+00  0.00000000E+00
  0.00000000E+00  0.00000000E+00  0.00000000E+00  0.00000000E+00  0.00000000E+00
  0.00000000E+00  0.00000000E+00  0.00000000E+00  0.00000000E+00  0.00000000E+00
  0.00000000E+00  0.00000000E+00  0.00000000E+00  0.00000000E+00  0.00000000E+00
Coordinates of each shell                  R   N=         180
 -3.42342806E+00  4.49778880E+00  2.57705286E-01 -3.42342806E+00  4.49778880E+00
  2.57705286E-01 -3.42342806E+00  4.49778880E+00  2.57705286E-01 -3.42342806E+00
  4.49778880E+00  2.57705286E-01 -3.36360753E+00 -4.53426988E+00  2.24849273E-01
 -3.36360753E+00 -4.53426988E+00  2.24849273E-01 -3.36360753E+00 -4.53426988E+00
  2.24849273E-01 -3.36360753E+00 -4.53426988E+00  2.24849273E-01  1.79326853E+00
 -5.79368698E-02 -6.97228195E-01  1.79326853E+00 -5.79368698E-02 -6.97228195E-01
  1.79326853E+00 -5.79368698E-02 -6.97228195E-01  1.79326853E+00 -5.79368698E-02
 -6.97228195E-01  4.61658302E+00 -1.07450907E-01 -1.07876117E+00  4.61658302E+00
 -1.07450907E-01 -1.07876117E+00  4.61658302E+00 -1.07450907E-01 -1.07876117E+00
  4.61658302E+00 -1.07450907E-01 -1.07876117E+00  4.44931978E-01 -2.30928779E+00
 -4.48607538E-01  4.44931978E-01 -2.30928779E+00 -4.48607538E-01  4.44931978E-01
 -2.30928779E+00 -4.48607538E-01  4.44931978E-01 -2.30928779E+00 -4.48607538E-01
  5.28750652E-01  2.25606545E+00 -4.50509402E-01  5.28750652E-01  2.25606545E+00
 -4.50509402E-01  5.28750652E-01  2.25606545E+00 -4.50509402E-01  5.28750652E-01
  2.25606545E+00 -4.50509402E-01  6.04411214E+00 -5.01918951E-02  1.43874046E+00
  6.04411214E+00 -5.01918951E-02  1.43874046E+00  6.04411214E+00 -5.01918951E-02
  1.43874046E+00  6.04411214E+00 -5.01918951E-02  1.43874046E+00 -2.06388918E+00
  2.29401192E+00  1.50623879E-02 -2.06388918E+00  2.29401192E+00  1.50623879E-02
 -2.06388918E+00  2.29401192E+00  1.50623879E-02 -2.06388918E+00  2.29401192E+00
  1.50623879E-02 -2.15358989E+00 -2.24332381E+00  1.93235327E-02 -2.15358989E+00
 -2.24332381E+00  1.93235327E-02 -2.15358989E+00 -2.24332381E+00  1.93235327E-02
 -2.15358989E+00 -2.24332381E+00  1.93235327E-02 -3.42654634E+00  4.80241333E-02
  2.61875799E-01 -3.42654634E+00  4.80241333E-02  2.61875799E-01 -3.42654634E+00
  4.80241333E-02  2.61875799E-01 -3.42654634E+00  4.80241333E-02  2.61875799E-01
  5.13640494E+00 -1.81115031E+00 -2.13562924E+00  5.13640494E+00 -1.81115031E+00
 -2.13562924E+00  5.18658403E+00  1.51082026E+00 -2.24080473E+00  5.18658403E+00
  1.51082026E+00 -2.24080473E+00  1.37162947E+00 -4.13325060E+00 -6.36738863E-01
  1.37162947E+00 -4.13325060E+00 -6.36738863E-01  1.57022889E+00  4.02227698E+00
 -6.52377208E-01  1.57022889E+00  4.02227698E+00 -6.52377208E-01  5.57631031E+00
  1.66064069E+00  2.50022766E+00  5.57631031E+00  1.66064069E+00  2.50022766E+00
  8.09024953E+00 -9.02141153E-02  1.13904650E+00  8.09024953E+00 -9.02141153E-02
  1.13904650E+00  5.52385435E+00 -1.67880564E+00  2.59959942E+00  5.52385435E+00
 -1.67880564E+00  2.59959942E+00 -5.44951361E+00  1.40043753E-01  6.16041773E-01
 -5.44951361E+00  1.40043753E-01  6.16041773E-01 -2.26380753E+00  5.90996636E+00
  4.63222157E-02 -2.26380753E+00  5.90996636E+00  4.63222157E-02 -5.14738112E+00
 -4.21794009E+00  5.44500779E-01 -5.14738112E+00 -4.21794009E+00  5.44500779E-01
Constraint Structure                       R   N=          60
 -3.42342806E+00  4.49778880E+00  2.57705286E-01 -3.36360753E+00 -4.53426988E+00
  2.24849273E-01  1.79326853E+00 -5.79368698E-02 -6.97228195E-01  4.61658302E+00
 -1.07450907E-01 -1.07876117E+00  4.44931978E-01 -2.30928779E+00 -4.48607538E-01
  5.28750652E-01  2.25606545E+00 -4.50509402E-01  6.04411214E+00 -5.01918951E-02
  1.43874046E+00 -2.06388918E+00  2.29401192E+00  1.50623879E-02 -2.15358989E+00
 -2.24332381E+00  1.93235327E-02 -3.42654634E+00  4.80241333E-02  2.61875799E-01
  5.13640494E+00 -1.81115031E+00 -2.13562924E+00  5.18658403E+00  1.51082026E+00
 -2.24080473E+00  1.37162947E+00 -4.13325060E+00 -6.36738863E-01  1.57022889E+00
  4.02227698E+00 -6.52377208E-01  5.57631031E+00  1.66064069E+00  2.50022766E+00
  8.09024953E+00 -9.02141153E-02  1.13904650E+00  5.52385435E+00 -1.67880564E+00
  2.59959942E+00 -5.44951361E+00  1.40043753E-01  6.16041773E-01 -2.26380753E+00
  5.90996636E+00  4.63222157E-02 -5.14738112E+00 -4.21794009E+00  5.44500779E-01
Num ILSW                                   I              100
ILSW                                       I   N=         100
           0           1           0           0           2           0
           0           0           0           0           0          -1
           0           0           0           0           0           0
           0           0           0           0           1           0
           1           0           0           0           0           0
           0           0      100000           0          -1           0
           0           0           0           0           0           0
           0           0           0           1           1           0
           0           0           1           0           0           0
           0           0           4          40           0           0
           0           0           0           0           0           0
           0           0           0           0           0           0
           0           0           0           0           0           0
           0           0           0           0           0           0
           0           0           0           0           0           0
           0           0           0           0           0           0
           0           0           0           0
Num RLSW                                   I               40
RLSW                                       R   N=          40
  1.00000000E+00  1.00000000E+00  1.00000000E+00  1.00000000E+00  1.00000000E+00
  0.00000000E+00  0.00000000E+00  1.00000000E+00  0.00000000E+00  0.00000000E+00
  0.00000000E+00  0.00000000E+00  1.00000000E+00  0.00000000E+00  0.00000000E+00
  0.00000000E+00  0.00000000E+00  1.00000000E+00  0.00000000E+00  0.00000000E+00
  0.00000000E+00  0.00000000E+00  1.00000000E+00  0.00000000E+00  0.00000000E+00
  0.00000000E+00  0.00000000E+00  1.00000000E+00  0.00000000E+00  0.00000000E+00
  0.00000000E+00  0.00000000E+00  0.00000000E+00  0.00000000E+00  0.00000000E+00
  0.00000000E+00  0.00000000E+00  0.00000000E+00  1.00000000E+00  1.00000000E+00
MxBond                                     I                4
NBond                                      I   N=          20
           2           2           3           4           3           3
           4           3           3           3           1           1
           1           1           1           1           1           1
           1           1
IBond                                      I   N=          80
           8          19           0           0           9          20
           0           0           4           5           6           0
           3           7          11          12           3           9
          13           0           3           8          14           0
           4          15          16          17           1           6
          10           0           2           5          10           0
           8           9          18           0           4           0
           0           0           4           0           0           0
           5           0           0           0           6           0
           0           0           7           0           0           0
           7           0           0           0           7           0
           0           0          10           0           0           0
           1           0           0           0           2           0
           0           0
RBond                                      R   N=          80
  1.50000000E+00  1.00000000E+00  0.00000000E+00  0.00000000E+00  1.50000000E+00
  1.00000000E+00  0.00000000E+00  0.00000000E+00  1.00000000E+00  1.50000000E+00
  1.50000000E+00  0.00000000E+00  1.00000000E+00  1.00000000E+00  1.00000000E+00
  1.00000000E+00  1.50000000E+00  1.50000000E+00  1.00000000E+00  0.00000000E+00
  1.50000000E+00  1.50000000E+00  1.00000000E+00  0.00000000E+00  1.00000000E+00
  1.00000000E+00  1.00000000E+00  1.00000000E+00  1.50000000E+00  1.50000000E+00
  1.50000000E+00  0.00000000E+00  1.50000000E+00  1.50000000E+00  1.50000000E+00
  0.00000000E+00  1.50000000E+00  1.50000000E+00  1.00000000E+00  0.00000000E+00
  1.00000000E+00  0.00000000E+00  0.00000000E+00  0.00000000E+00  1.00000000E+00
  0.00000000E+00  0.00000000E+00  0.00000000E+00  1.00000000E+00  0.00000000E+00
  0.00000000E+00  0.00000000E+00  1.00000000E+00  0.00000000E+00  0.00000000E+00
  0.00000000E+00  1.00000000E+00  0.00000000E+00  0.00000000E+00  0.00000000E+00
  1.00000000E+00  0.00000000E+00  0.00000000E+00  0.00000000E+00  1.00000000E+00
  0.00000000E+00  0.00000000E+00  0.00000000E+00  1.00000000E+00  0.00000000E+00
  0.00000000E+00  0.00000000E+00  1.00000000E+00  0.00000000E+00  0.00000000E+00
  0.00000000E+00  1.00000000E+00  0.00000000E+00  0.00000000E+00  0.00000000E+00
Virial Ratio                               R      2.002296729481004E+00
SCF Energy                                 R     -4.584831408229780E+02
MP2 Energy                                 R     -4.598621300013490E+02
Total Energy                               R     -4.598621300013490E+02
Post-SCF wavefunction norm                 R      1.708825783150997E+00
RMS Force                                  R      1.736847038644225E-07
RMS Density                                R      2.581296807624749E-09
External E-field                           R   N=          35
  0.00000000E+00  0.00000000E+00  0.00000000E+00  0.00000000E+00  0.00000000E+00
  0.00000000E+00  0.00000000E+00  0.00000000E+00  0.00000000E+00  0.00000000E+00
  0.00000000E+00  0.00000000E+00  0.00000000E+00  0.00000000E+00  0.00000000E+00
  0.00000000E+00  0.00000000E+00  0.00000000E+00  0.00000000E+00  0.00000000E+00
  0.00000000E+00  0.00000000E+00  0.00000000E+00  0.00000000E+00  0.00000000E+00
  0.00000000E+00  0.00000000E+00  0.00000000E+00  0.00000000E+00  0.00000000E+00
  0.00000000E+00  0.00000000E+00  0.00000000E+00  0.00000000E+00  0.00000000E+00
IOpCl                                      I                0
IROHF                                      I                0
Alpha Orbital Energies                     R   N=         170
 -2.05979255E+01 -2.05951741E+01 -1.13096967E+01 -1.13075018E+01 -1.12510003E+01
 -1.12320720E+01 -1.12241579E+01 -1.12238806E+01 -1.12198321E+01 -1.12167873E+01
 -1.39942747E+00 -1.39569728E+00 -1.14681421E+00 -1.06148245E+00 -9.97935281E-01
 -9.85704544E-01 -8.74147178E-01 -8.32235367E-01 -8.04355181E-01 -7.34994124E-01
 -6.83366436E-01 -6.69812110E-01 -6.61985526E-01 -6.08798729E-01 -5.98204642E-01
 -5.91053598E-01 -5.82115364E-01 -5.68743105E-01 -5.49471818E-01 -5.45202067E-01
 -5.21004567E-01 -5.18403287E-01 -4.86856319E-01 -4.79833735E-01 -4.47956306E-01
 -3.21435911E-01 -3.06228770E-01  1.45919585E-01  1.66197381E-01  2.16667939E-01
  2.19682802E-01  2.38322150E-01  2.73780158E-01  2.82075961E-01  2.98447911E-01
  3.16440393E-01  3.30808773E-01  3.35495042E-01  3.41269801E-01  3.67987038E-01
  4.16351532E-01  4.34329495E-01  4.59222846E-01  4.77566387E-01  4.84016296E-01
  5.13691847E-01  5.96627608E-01  6.12224320E-01  6.21396888E-01  6.93771540E-01
  7.11938600E-01  7.30998282E-01  7.43911006E-01  7.59708306E-01  7.65416456E-01
  8.02031747E-01  8.31309967E-01  8.39826821E-01  8.51291702E-01  8.65222826E-01
  8.80920921E-01  8.98348826E-01  9.07531654E-01  9.35925218E-01  9.39136988E-01
  9.92129741E-01  1.01501107E+00  1.01852552E+00  1.03780415E+00  1.06887265E+00
  1.08280566E+00  1.10239574E+00  1.12068808E+00  1.13408215E+00  1.15294662E+00
  1.15584699E+00  1.16184810E+00  1.18908874E+00  1.20712549E+00  1.21190831E+00
  1.22281535E+00  1.23144738E+00  1.24392732E+00  1.24944528E+00  1.25915643E+00
  1.31181812E+00  1.32145427E+00  1.34982629E+00  1.36445195E+00  1.46189222E+00
  1.46887102E+00  1.49447755E+00  1.50784883E+00  1.55551444E+00  1.60581517E+00
  1.62116138E+00  1.64639787E+00  1.65196914E+00  1.66892043E+00  1.70631187E+00
  1.73494135E+00  1.75963032E+00  1.80833188E+00  1.94814173E+00  2.00337185E+00
  2.01218995E+00  2.02601535E+00  2.03153297E+00  2.06986119E+00  2.07184528E+00
  2.09154253E+00  2.15285137E+00  2.18586632E+00  2.20906543E+00  2.22212495E+00
  2.26180649E+00  2.27158165E+00  2.27352559E+00  2.28313591E+00  2.29049842E+00
  2.32329556E+00  2.38939059E+00  2.43227835E+00  2.43636662E+00  2.53455767E+00
  2.55499286E+00  2.56433071E+00  2.57637292E+00  2.64388788E+00  2.66148813E+00
  2.72286572E+00  2.72490190E+00  2.75652683E+00  2.75926912E+00  2.76151711E+00
  2.78009140E+00  2.86164544E+00  2.88467726E+00  2.92729933E+00  2.97178620E+00
  3.01205801E+00  3.06836250E+00  3.09361455E+00  3.16287473E+00  3.18311967E+00
  3.29439094E+00  3.32574487E+00  3.34744258E+00  3.53891851E+00  3.81357093E+00
  4.33464303E+00  4.37530964E+00  4.53771736E+00  4.58440492E+00  4.61725310E+00
  4.63987215E+00  4.84244057E+00  4.89050041E+00  4.93871305E+00  5.21198048E+00
Alpha MO coefficients                      R   N=       28900
  9.94645554E-01  2.11689641E-02  1.31368148E-03 -9.14773086E-05 -2.37213263E-04
  4.02116806E-03 -7.29947803E-04 -1.08567833E-04  1.32124222E-04 -4.09221374E-03
 -4.16941560E-03 -3.90161147E-03  8.48679588E-06  4.10274398E-05 -1.14114025E-06