12109                                                                   
Freq      RMP2-FC                                                     6-31G(d)            
Number of atoms                            I               27
Info1-9                                    I   N=           9
          39          37        1002           0           0         100
           6           2           1
Charge                                     I                0
Multiplicity                               I                1
Number of electrons                        I               98
Number of alpha electrons                  I               49
Number of beta electrons                   I               49
Number of basis functions                  I              236
Number of independent functions            I              236
Number of point charges in /Mol/           I                0
Number of translation vectors              I                0
Atomic numbers                             I   N=          27
           7           6           6           6           6           6
           6           6           6           6           6           6
           6           6           1           1           1           1
           1           1           1           1           1           1
           1           1           1
Nuclear charges                            R   N=          27
  7.00000000E+00  6.00000000E+00  6.00000000E+00  6.00000000E+00  6.00000000E+00
  6.00000000E+00  6.00000000E+00  6.00000000E+00  6.00000000E+00  6.00000000E+00
  6.00000000E+00  6.00000000E+00  6.00000000E+00  6.00000000E+00  1.00000000E+00
  1.00000000E+00  1.00000000E+00  1.00000000E+00  1.00000000E+00  1.00000000E+00
  1.00000000E+00  1.00000000E+00  1.00000000E+00  1.00000000E+00  1.00000000E+00
  1.00000000E+00  1.00000000E+00
Current cartesian coordinates              R   N=          81
  1.03545587E+00  2.25010585E+00  5.59201789E-01 -1.41466203E+00  1.26470759E+00
  2.93673006E-01  3.27113473E+00  8.61803066E-01  1.65477834E-01 -6.43319535E+00
 -5.64568862E-01 -3.85584748E-02 -2.11351767E+00 -9.83942247E-01  1.51681267E+00
 -3.25244378E+00  2.59698621E+00 -1.07082916E+00 -4.57934459E+00 -1.88212293E+00
  1.32008723E+00 -5.72717440E+00  1.70176244E+00 -1.20462615E+00  5.57650194E+00
  2.01409182E+00  7.98210815E-01  3.28804986E+00 -1.60262911E+00 -8.12305784E-01
 -9.11699352E+00 -1.50776048E+00 -1.50471544E-01  7.85194067E+00  7.45010425E-01
  4.27518244E-01  5.57755993E+00 -2.86953088E+00 -1.14180462E+00  7.86844074E+00
 -1.71766283E+00 -5.24456226E-01  1.18709330E+00  4.10764460E+00  1.07391352E-01
 -7.26851896E-01 -1.99430991E+00  2.64621942E+00 -2.73231421E+00  4.33466885E+00
 -2.04398968E+00 -5.08050571E+00 -3.63626569E+00  2.27348149E+00 -7.12245187E+00
  2.76965266E+00 -2.27635474E+00  5.56346134E+00  3.91354968E+00  1.58902515E+00
  1.52866047E+00 -2.49916679E+00 -1.36885365E+00 -1.00802575E+01 -8.06224377E-01
 -1.83940446E+00 -9.17873447E+00 -3.57368993E+00 -1.92011938E-01 -1.02044209E+01
 -8.83308381E-01  1.49722579E+00  9.61732616E+00  1.67458060E+00  9.21390104E-01
  5.56113180E+00 -4.77677577E+00 -1.90878036E+00  9.64189323E+00 -2.71796177E+00
 -7.92118004E-01
Force Field                                I                0
Int Atom Types                             I   N=          27
           0           0           0           0           0           0
           0           0           0           0           0           0
           0           0           0           0           0           0
           0           0           0           0           0           0
           0           0           0
MM charges                                 R   N=          27
  0.00000000E+00  0.00000000E+00  0.00000000E+00  0.00000000E+00  0.00000000E+00
  0.00000000E+00  0.00000000E+00  0.00000000E+00  0.00000000E+00  0.00000000E+00
  0.00000000E+00  0.00000000E+00  0.00000000E+00  0.00000000E+00  0.00000000E+00
  0.00000000E+00  0.00000000E+00  0.00000000E+00  0.00000000E+00  0.00000000E+00
  0.00000000E+00  0.00000000E+00  0.00000000E+00  0.00000000E+00  0.00000000E+00
  0.00000000E+00  0.00000000E+00
Integer atomic weights                     I   N=          27
          14          12          12          12          12          12
          12          12          12          12          12          12
          12          12           1           1           1           1
           1           1           1           1           1           1
           1           1           1
Real atomic weights                        R   N=          27
  1.40030740E+01  1.20000000E+01  1.20000000E+01  1.20000000E+01  1.20000000E+01
  1.20000000E+01  1.20000000E+01  1.20000000E+01  1.20000000E+01  1.20000000E+01
  1.20000000E+01  1.20000000E+01  1.20000000E+01  1.20000000E+01  1.00782504E+00
  1.00782504E+00  1.00782504E+00  1.00782504E+00  1.00782504E+00  1.00782504E+00
  1.00782504E+00  1.00782504E+00  1.00782504E+00  1.00782504E+00  1.00782504E+00
  1.00782504E+00  1.00782504E+00
Atom fragment info                         I   N=          27
           0           0           0           0           0           0
           0           0           0           0           0           0
           0           0           0           0           0           0
           0           0           0           0           0           0
           0           0           0
Atom residue num                           I   N=          27
           0           0           0           0           0           0
           0           0           0           0           0           0
           0           0           0           0           0           0
           0           0           0           0           0           0
           0           0           0
Nuclear spins                              I   N=          27
           2           0           0           0           0           0
           0           0           0           0           0           0
           0           0           1           1           1           1
           1           1           1           1           1           1
           1           1           1
Nuclear ZEff                               R   N=          27
 -4.55000000E+00 -3.60000000E+00 -3.60000000E+00 -3.60000000E+00 -3.60000000E+00
 -3.60000000E+00 -3.60000000E+00 -3.60000000E+00 -3.60000000E+00 -3.60000000E+00
 -3.60000000E+00 -3.60000000E+00 -3.60000000E+00 -3.60000000E+00 -1.00000000E+00
 -1.00000000E+00 -1.00000000E+00 -1.00000000E+00 -1.00000000E+00 -1.00000000E+00
 -1.00000000E+00 -1.00000000E+00 -1.00000000E+00 -1.00000000E+00 -1.00000000E+00
 -1.00000000E+00 -1.00000000E+00
Nuclear QMom                               R   N=          27
  2.04400000E+00  0.00000000E+00  0.00000000E+00  0.00000000E+00  0.00000000E+00
  0.00000000E+00  0.00000000E+00  0.00000000E+00  0.00000000E+00  0.00000000E+00
  0.00000000E+00  0.00000000E+00  0.00000000E+00  0.00000000E+00  0.00000000E+00
  0.00000000E+00  0.00000000E+00  0.00000000E+00  0.00000000E+00  0.00000000E+00
  0.00000000E+00  0.00000000E+00  0.00000000E+00  0.00000000E+00  0.00000000E+00
  0.00000000E+00  0.00000000E+00
Nuclear GFac                               R   N=          27
  4.03761000E-01  0.00000000E+00  0.00000000E+00  0.00000000E+00  0.00000000E+00
  0.00000000E+00  0.00000000E+00  0.00000000E+00  0.00000000E+00  0.00000000E+00
  0.00000000E+00  0.00000000E+00  0.00000000E+00  0.00000000E+00  2.79284600E+00
  2.79284600E+00  2.79284600E+00  2.79284600E+00  2.79284600E+00  2.79284600E+00
  2.79284600E+00  2.79284600E+00  2.79284600E+00  2.79284600E+00  2.79284600E+00
  2.79284600E+00  2.79284600E+00
MicOpt                                     I   N=          27
          -1          -1          -1          -1          -1          -1
          -1          -1          -1          -1          -1          -1
          -1          -1          -1          -1          -1          -1
          -1          -1          -1          -1          -1          -1
          -1          -1          -1
Number of contracted shells                I               82
Number of primitive shells                 I              206
Pure/Cartesian d shells                    I                1
Pure/Cartesian f shells                    I                0
Highest angular momentum                   I                2
Largest degree of contraction              I                6
Shell types                                I   N=          82
           0          -1          -1           2           0          -1
          -1           2           0          -1          -1           2
           0          -1          -1           2           0          -1
          -1           2           0          -1          -1           2
           0          -1          -1           2           0          -1
          -1           2           0          -1          -1           2
           0          -1          -1           2           0          -1
          -1           2           0          -1          -1           2
           0          -1          -1           2           0          -1
          -1           2           0           0           0           0
           0           0           0           0           0           0
           0           0           0           0           0           0
           0           0           0           0           0           0
           0           0           0           0
Number of primitives per shell             I   N=          82
           6           3           1           1           6           3
           1           1           6           3           1           1
           6           3           1           1           6           3
           1           1           6           3           1           1
           6           3           1           1           6           3
           1           1           6           3           1           1
           6           3           1           1           6           3
           1           1           6           3           1           1
           6           3           1           1           6           3
           1           1           3           1           3           1
           3           1           3           1           3           1
           3           1           3           1           3           1
           3           1           3           1           3           1
           3           1           3           1
Shell to atom map                          I   N=          82
           1           1           1           1           2           2
           2           2           3           3           3           3
           4           4           4           4           5           5
           5           5           6           6           6           6
           7           7           7           7           8           8
           8           8           9           9           9           9
          10          10          10          10          11          11
          11          11          12          12          12          12
          13          13          13          13          14          14
          14          14          15          15          16          16
          17          17          18          18          19          19
          20          20          21          21          22          22
          23          23          24          24          25          25
          26          26          27          27
Primitive exponents                        R   N=         206
  4.17351146E+03  6.27457911E+02  1.42902093E+02  4.02343293E+01  1.28202129E+01
  4.39043701E+00  1.16263619E+01  2.71627981E+00  7.72218397E-01  2.12031498E-01
  8.00000000E-01  3.04752488E+03  4.57369518E+02  1.03948685E+02  2.92101553E+01
  9.28666296E+00  3.16392696E+00  7.86827235E+00  1.88128854E+00  5.44249258E-01
  1.68714478E-01  8.00000000E-01  3.04752488E+03  4.57369518E+02  1.03948685E+02
  2.92101553E+01  9.28666296E+00  3.16392696E+00  7.86827235E+00  1.88128854E+00
  5.44249258E-01  1.68714478E-01  8.00000000E-01  3.04752488E+03  4.57369518E+02
  1.03948685E+02  2.92101553E+01  9.28666296E+00  3.16392696E+00  7.86827235E+00
  1.88128854E+00  5.44249258E-01  1.68714478E-01  8.00000000E-01  3.04752488E+03
  4.57369518E+02  1.03948685E+02  2.92101553E+01  9.28666296E+00  3.16392696E+00
  7.86827235E+00  1.88128854E+00  5.44249258E-01  1.68714478E-01  8.00000000E-01
  3.04752488E+03  4.57369518E+02  1.03948685E+02  2.92101553E+01  9.28666296E+00
  3.16392696E+00  7.86827235E+00  1.88128854E+00  5.44249258E-01  1.68714478E-01
  8.00000000E-01  3.04752488E+03  4.57369518E+02  1.03948685E+02  2.92101553E+01
  9.28666296E+00  3.16392696E+00  7.86827235E+00  1.88128854E+00  5.44249258E-01
  1.68714478E-01  8.00000000E-01  3.04752488E+03  4.57369518E+02  1.03948685E+02
  2.92101553E+01  9.28666296E+00  3.16392696E+00  7.86827235E+00  1.88128854E+00
  5.44249258E-01  1.68714478E-01  8.00000000E-01  3.04752488E+03  4.57369518E+02
  1.03948685E+02  2.92101553E+01  9.28666296E+00  3.16392696E+00  7.86827235E+00
  1.88128854E+00  5.44249258E-01  1.68714478E-01  8.00000000E-01  3.04752488E+03
  4.57369518E+02  1.03948685E+02  2.92101553E+01  9.28666296E+00  3.16392696E+00
  7.86827235E+00  1.88128854E+00  5.44249258E-01  1.68714478E-01  8.00000000E-01
  3.04752488E+03  4.57369518E+02  1.03948685E+02  2.92101553E+01  9.28666296E+00
  3.16392696E+00  7.86827235E+00  1.88128854E+00  5.44249258E-01  1.68714478E-01
  8.00000000E-01  3.04752488E+03  4.57369518E+02  1.03948685E+02  2.92101553E+01
  9.28666296E+00  3.16392696E+00  7.86827235E+00  1.88128854E+00  5.44249258E-01
  1.68714478E-01  8.00000000E-01  3.04752488E+03  4.57369518E+02  1.03948685E+02
  2.92101553E+01  9.28666296E+00  3.16392696E+00  7.86827235E+00  1.88128854E+00
  5.44249258E-01  1.68714478E-01  8.00000000E-01  3.04752488E+03  4.57369518E+02
  1.03948685E+02  2.92101553E+01  9.28666296E+00  3.16392696E+00  7.86827235E+00
  1.88128854E+00  5.44249258E-01  1.68714478E-01  8.00000000E-01  1.87311370E+01
  2.82539436E+00  6.40121692E-01  1.61277759E-01  1.87311370E+01  2.82539436E+00
  6.40121692E-01  1.61277759E-01  1.87311370E+01  2.82539436E+00  6.40121692E-01
  1.61277759E-01  1.87311370E+01  2.82539436E+00  6.40121692E-01  1.61277759E-01
  1.87311370E+01  2.82539436E+00  6.40121692E-01  1.61277759E-01  1.87311370E+01
  2.82539436E+00  6.40121692E-01  1.61277759E-01  1.87311370E+01  2.82539436E+00
  6.40121692E-01  1.61277759E-01  1.87311370E+01  2.82539436E+00  6.40121692E-01
  1.61277759E-01  1.87311370E+01  2.82539436E+00  6.40121692E-01  1.61277759E-01
  1.87311370E+01  2.82539436E+00  6.40121692E-01  1.61277759E-01  1.87311370E+01
  2.82539436E+00  6.40121692E-01  1.61277759E-01  1.87311370E+01  2.82539436E+00
  6.40121692E-01  1.61277759E-01  1.87311370E+01  2.82539436E+00  6.40121692E-01
  1.61277759E-01
Contraction coefficients                   R   N=         206
  1.83477216E-03  1.39946270E-02  6.85865518E-02  2.32240873E-01  4.69069948E-01
  3.60455199E-01 -1.14961182E-01 -1.69117479E-01  1.14585195E+00  1.00000000E+00
  1.00000000E+00  1.83473713E-03  1.40373228E-02  6.88426223E-02  2.32184443E-01
  4.67941348E-01  3.62311985E-01 -1.19332420E-01 -1.60854152E-01  1.14345644E+00
  1.00000000E+00  1.00000000E+00  1.83473713E-03  1.40373228E-02  6.88426223E-02
  2.32184443E-01  4.67941348E-01  3.62311985E-01 -1.19332420E-01 -1.60854152E-01
  1.14345644E+00  1.00000000E+00  1.00000000E+00  1.83473713E-03  1.40373228E-02
  6.88426223E-02  2.32184443E-01  4.67941348E-01  3.62311985E-01 -1.19332420E-01
 -1.60854152E-01  1.14345644E+00  1.00000000E+00  1.00000000E+00  1.83473713E-03
  1.40373228E-02  6.88426223E-02  2.32184443E-01  4.67941348E-01  3.62311985E-01
 -1.19332420E-01 -1.60854152E-01  1.14345644E+00  1.00000000E+00  1.00000000E+00
  1.83473713E-03  1.40373228E-02  6.88426223E-02  2.32184443E-01  4.67941348E-01
  3.62311985E-01 -1.19332420E-01 -1.60854152E-01  1.14345644E+00  1.00000000E+00
  1.00000000E+00  1.83473713E-03  1.40373228E-02  6.88426223E-02  2.32184443E-01
  4.67941348E-01  3.62311985E-01 -1.19332420E-01 -1.60854152E-01  1.14345644E+00
  1.00000000E+00  1.00000000E+00  1.83473713E-03  1.40373228E-02  6.88426223E-02
  2.32184443E-01  4.67941348E-01  3.62311985E-01 -1.19332420E-01 -1.60854152E-01
  1.14345644E+00  1.00000000E+00  1.00000000E+00  1.83473713E-03  1.40373228E-02
  6.88426223E-02  2.32184443E-01  4.67941348E-01  3.62311985E-01 -1.19332420E-01
 -1.60854152E-01  1.14345644E+00  1.00000000E+00  1.00000000E+00  1.83473713E-03
  1.40373228E-02  6.88426223E-02  2.32184443E-01  4.67941348E-01  3.62311985E-01
 -1.19332420E-01 -1.60854152E-01  1.14345644E+00  1.00000000E+00  1.00000000E+00
  1.83473713E-03  1.40373228E-02  6.88426223E-02  2.32184443E-01  4.67941348E-01
  3.62311985E-01 -1.19332420E-01 -1.60854152E-01  1.14345644E+00  1.00000000E+00
  1.00000000E+00  1.83473713E-03  1.40373228E-02  6.88426223E-02  2.32184443E-01
  4.67941348E-01  3.62311985E-01 -1.19332420E-01 -1.60854152E-01  1.14345644E+00
  1.00000000E+00  1.00000000E+00  1.83473713E-03  1.40373228E-02  6.88426223E-02
  2.32184443E-01  4.67941348E-01  3.62311985E-01 -1.19332420E-01 -1.60854152E-01
  1.14345644E+00  1.00000000E+00  1.00000000E+00  1.83473713E-03  1.40373228E-02
  6.88426223E-02  2.32184443E-01  4.67941348E-01  3.62311985E-01 -1.19332420E-01
 -1.60854152E-01  1.14345644E+00  1.00000000E+00  1.00000000E+00  3.34946043E-02
  2.34726953E-01  8.13757326E-01  1.00000000E+00  3.34946043E-02  2.34726953E-01
  8.13757326E-01  1.00000000E+00  3.34946043E-02  2.34726953E-01  8.13757326E-01
  1.00000000E+00  3.34946043E-02  2.34726953E-01  8.13757326E-01  1.00000000E+00
  3.34946043E-02  2.34726953E-01  8.13757326E-01  1.00000000E+00  3.34946043E-02
  2.34726953E-01  8.13757326E-01  1.00000000E+00  3.34946043E-02  2.34726953E-01
  8.13757326E-01  1.00000000E+00  3.34946043E-02  2.34726953E-01  8.13757326E-01
  1.00000000E+00  3.34946043E-02  2.34726953E-01  8.13757326E-01  1.00000000E+00
  3.34946043E-02  2.34726953E-01  8.13757326E-01  1.00000000E+00  3.34946043E-02
  2.34726953E-01  8.13757326E-01  1.00000000E+00  3.34946043E-02  2.34726953E-01
  8.13757326E-01  1.00000000E+00  3.34946043E-02  2.34726953E-01  8.13757326E-01
  1.00000000E+00
P(S=P) Contraction coefficients            R   N=         206
  0.00000000E+00  0.00000000E+00  0.00000000E+00  0.00000000E+00  0.00000000E+00
  0.00000000E+00  6.75797439E-02  3.23907296E-01  7.40895140E-01  1.00000000E+00
  0.00000000E+00  0.00000000E+00  0.00000000E+00  0.00000000E+00  0.00000000E+00
  0.00000000E+00  0.00000000E+00  6.89990666E-02  3.16423961E-01  7.44308291E-01
  1.00000000E+00  0.00000000E+00  0.00000000E+00  0.00000000E+00  0.00000000E+00
  0.00000000E+00  0.00000000E+00  0.00000000E+00  6.89990666E-02  3.16423961E-01
  7.44308291E-01  1.00000000E+00  0.00000000E+00  0.00000000E+00  0.00000000E+00
  0.00000000E+00  0.00000000E+00  0.00000000E+00  0.00000000E+00  6.89990666E-02
  3.16423961E-01  7.44308291E-01  1.00000000E+00  0.00000000E+00  0.00000000E+00
  0.00000000E+00  0.00000000E+00  0.00000000E+00  0.00000000E+00  0.00000000E+00
  6.89990666E-02  3.16423961E-01  7.44308291E-01  1.00000000E+00  0.00000000E+00
  0.00000000E+00  0.00000000E+00  0.00000000E+00  0.00000000E+00  0.00000000E+00
  0.00000000E+00  6.89990666E-02  3.16423961E-01  7.44308291E-01  1.00000000E+00
  0.00000000E+00  0.00000000E+00  0.00000000E+00  0.00000000E+00  0.00000000E+00
  0.00000000E+00  0.00000000E+00  6.89990666E-02  3.16423961E-01  7.44308291E-01
  1.00000000E+00  0.00000000E+00  0.00000000E+00  0.00000000E+00  0.00000000E+00
  0.00000000E+00  0.00000000E+00  0.00000000E+00  6.89990666E-02  3.16423961E-01
  7.44308291E-01  1.00000000E+00  0.00000000E+00  0.00000000E+00  0.00000000E+00
  0.00000000E+00  0.00000000E+00  0.00000000E+00  0.00000000E+00  6.89990666E-02
  3.16423961E-01  7.44308291E-01  1.00000000E+00  0.00000000E+00  0.00000000E+00
  0.00000000E+00  0.00000000E+00  0.00000000E+00  0.00000000E+00  0.00000000E+00
  6.89990666E-02  3.16423961E-01  7.44308291E-01  1.00000000E+00  0.00000000E+00
  0.00000000E+00  0.00000000E+00  0.00000000E+00  0.00000000E+00  0.00000000E+00
  0.00000000E+00  6.89990666E-02  3.16423961E-01  7.44308291E-01  1.00000000E+00
  0.00000000E+00  0.00000000E+00  0.00000000E+00  0.00000000E+00  0.00000000E+00
  0.00000000E+00  0.00000000E+00  6.89990666E-02  3.16423961E-01  7.44308291E-01
  1.00000000E+00  0.00000000E+00  0.00000000E+00  0.00000000E+00  0.00000000E+00
  0.00000000E+00  0.00000000E+00  0.00000000E+00  6.89990666E-02  3.16423961E-01
  7.44308291E-01  1.00000000E+00  0.00000000E+00  0.00000000E+00  0.00000000E+00
  0.00000000E+00  0.00000000E+00  0.00000000E+00  0.00000000E+00  6.89990666E-02
  3.16423961E-01  7.44308291E-01  1.00000000E+00  0.00000000E+00  0.00000000E+00
  0.00000000E+00  0.00000000E+00  0.00000000E+00  0.00000000E+00  0.00000000E+00
  0.00000000E+00  0.00000000E+00  0.00000000E+00  0.00000000E+00  0.00000000E+00
  0.00000000E+00  0.00000000E+00  0.00000000E+00  0.00000000E+00  0.00000000E+00
  0.00000000E+00  0.00000000E+00  0.00000000E+00  0.00000000E+00  0.00000000E+00
  0.00000000E+00  0.00000000E+00  0.00000000E+00  0.00000000E+00  0.00000000E+00
  0.00000000E+00  0.00000000E+00  0.00000000E+00  0.00000000E+00  0.00000000E+00
  0.00000000E+00  0.00000000E+00  0.00000000E+00  0.00000000E+00  0.00000000E+00
  0.00000000E+00  0.00000000E+00  0.00000000E+00  0.00000000E+00  0.00000000E+00
  0.00000000E+00  0.00000000E+00  0.00000000E+00  0.00000000E+00  0.00000000E+00
  0.00000000E+00  0.00000000E+00  0.00000000E+00  0.00000000E+00  0.00000000E+00
  0.00000000E+00
Coordinates of each shell                  R   N=         246
  1.03545587E+00  2.25010585E+00  5.59201789E-01  1.03545587E+00  2.25010585E+00
  5.59201789E-01  1.03545587E+00  2.25010585E+00  5.59201789E-01  1.03545587E+00
  2.25010585E+00  5.59201789E-01 -1.41466203E+00  1.26470759E+00  2.93673006E-01
 -1.41466203E+00  1.26470759E+00  2.93673006E-01 -1.41466203E+00  1.26470759E+00
  2.93673006E-01 -1.41466203E+00  1.26470759E+00  2.93673006E-01  3.27113473E+00
  8.61803066E-01  1.65477834E-01  3.27113473E+00  8.61803066E-01  1.65477834E-01
  3.27113473E+00  8.61803066E-01  1.65477834E-01  3.27113473E+00  8.61803066E-01
  1.65477834E-01 -6.43319535E+00 -5.64568862E-01 -3.85584748E-02 -6.43319535E+00
 -5.64568862E-01 -3.85584748E-02 -6.43319535E+00 -5.64568862E-01 -3.85584748E-02
 -6.43319535E+00 -5.64568862E-01 -3.85584748E-02 -2.11351767E+00 -9.83942247E-01
  1.51681267E+00 -2.11351767E+00 -9.83942247E-01  1.51681267E+00 -2.11351767E+00
 -9.83942247E-01  1.51681267E+00 -2.11351767E+00 -9.83942247E-01  1.51681267E+00
 -3.25244378E+00  2.59698621E+00 -1.07082916E+00 -3.25244378E+00  2.59698621E+00
 -1.07082916E+00 -3.25244378E+00  2.59698621E+00 -1.07082916E+00 -3.25244378E+00
  2.59698621E+00 -1.07082916E+00 -4.57934459E+00 -1.88212293E+00  1.32008723E+00
 -4.57934459E+00 -1.88212293E+00  1.32008723E+00 -4.57934459E+00 -1.88212293E+00
  1.32008723E+00 -4.57934459E+00 -1.88212293E+00  1.32008723E+00 -5.72717440E+00
  1.70176244E+00 -1.20462615E+00 -5.72717440E+00  1.70176244E+00 -1.20462615E+00
 -5.72717440E+00  1.70176244E+00 -1.20462615E+00 -5.72717440E+00  1.70176244E+00
 -1.20462615E+00  5.57650194E+00  2.01409182E+00  7.98210815E-01  5.57650194E+00
  2.01409182E+00  7.98210815E-01  5.57650194E+00  2.01409182E+00  7.98210815E-01
  5.57650194E+00  2.01409182E+00  7.98210815E-01  3.28804986E+00 -1.60262911E+00
 -8.12305784E-01  3.28804986E+00 -1.60262911E+00 -8.12305784E-01  3.28804986E+00
 -1.60262911E+00 -8.12305784E-01  3.28804986E+00 -1.60262911E+00 -8.12305784E-01
 -9.11699352E+00 -1.50776048E+00 -1.50471544E-01 -9.11699352E+00 -1.50776048E+00
 -1.50471544E-01 -9.11699352E+00 -1.50776048E+00 -1.50471544E-01 -9.11699352E+00
 -1.50776048E+00 -1.50471544E-01  7.85194067E+00  7.45010425E-01  4.27518244E-01
  7.85194067E+00  7.45010425E-01  4.27518244E-01  7.85194067E+00  7.45010425E-01
  4.27518244E-01  7.85194067E+00  7.45010425E-01  4.27518244E-01  5.57755993E+00
 -2.86953088E+00 -1.14180462E+00  5.57755993E+00 -2.86953088E+00 -1.14180462E+00
  5.57755993E+00 -2.86953088E+00 -1.14180462E+00  5.57755993E+00 -2.86953088E+00
 -1.14180462E+00  7.86844074E+00 -1.71766283E+00 -5.24456226E-01  7.86844074E+00
 -1.71766283E+00 -5.24456226E-01  7.86844074E+00 -1.71766283E+00 -5.24456226E-01
  7.86844074E+00 -1.71766283E+00 -5.24456226E-01  1.18709330E+00  4.10764460E+00
  1.07391352E-01  1.18709330E+00  4.10764460E+00  1.07391352E-01 -7.26851896E-01
 -1.99430991E+00  2.64621942E+00 -7.26851896E-01 -1.99430991E+00  2.64621942E+00
 -2.73231421E+00  4.33466885E+00 -2.04398968E+00 -2.73231421E+00  4.33466885E+00
 -2.04398968E+00 -5.08050571E+00 -3.63626569E+00  2.27348149E+00 -5.08050571E+00
 -3.63626569E+00  2.27348149E+00 -7.12245187E+00  2.76965266E+00 -2.27635474E+00
 -7.12245187E+00  2.76965266E+00 -2.27635474E+00  5.56346134E+00  3.91354968E+00
  1.58902515E+00  5.56346134E+00  3.91354968E+00  1.58902515E+00  1.52866047E+00
 -2.49916679E+00 -1.36885365E+00  1.52866047E+00 -2.49916679E+00 -1.36885365E+00
 -1.00802575E+01 -8.06224377E-01 -1.83940446E+00 -1.00802575E+01 -8.06224377E-01
 -1.83940446E+00 -9.17873447E+00 -3.57368993E+00 -1.92011938E-01 -9.17873447E+00
 -3.57368993E+00 -1.92011938E-01 -1.02044209E+01 -8.83308381E-01  1.49722579E+00
 -1.02044209E+01 -8.83308381E-01  1.49722579E+00  9.61732616E+00  1.67458060E+00
  9.21390104E-01  9.61732616E+00  1.67458060E+00  9.21390104E-01  5.56113180E+00
 -4.77677577E+00 -1.90878036E+00  5.56113180E+00 -4.77677577E+00 -1.90878036E+00
  9.64189323E+00 -2.71796177E+00 -7.92118004E-01  9.64189323E+00 -2.71796177E+00
 -7.92118004E-01
Constraint Structure                       R   N=          81
  1.03545587E+00  2.25010585E+00  5.59201789E-01 -1.41466203E+00  1.26470759E+00
  2.93673006E-01  3.27113473E+00  8.61803066E-01  1.65477834E-01 -6.43319535E+00
 -5.64568862E-01 -3.85584748E-02 -2.11351767E+00 -9.83942247E-01  1.51681267E+00
 -3.25244378E+00  2.59698621E+00 -1.07082916E+00 -4.57934459E+00 -1.88212293E+00
  1.32008723E+00 -5.72717440E+00  1.70176244E+00 -1.20462615E+00  5.57650194E+00
  2.01409182E+00  7.98210815E-01  3.28804986E+00 -1.60262911E+00 -8.12305784E-01
 -9.11699352E+00 -1.50776048E+00 -1.50471544E-01  7.85194067E+00  7.45010425E-01
  4.27518244E-01  5.57755993E+00 -2.86953088E+00 -1.14180462E+00  7.86844074E+00
 -1.71766283E+00 -5.24456226E-01  1.18709330E+00  4.10764460E+00  1.07391352E-01
 -7.26851896E-01 -1.99430991E+00  2.64621942E+00 -2.73231421E+00  4.33466885E+00
 -2.04398968E+00 -5.08050571E+00 -3.63626569E+00  2.27348149E+00 -7.12245187E+00
  2.76965266E+00 -2.27635474E+00  5.56346134E+00  3.91354968E+00  1.58902515E+00
  1.52866047E+00 -2.49916679E+00 -1.36885365E+00 -1.00802575E+01 -8.06224377E-01
 -1.83940446E+00 -9.17873447E+00 -3.57368993E+00 -1.92011938E-01 -1.02044209E+01
 -8.83308381E-01  1.49722579E+00  9.61732616E+00  1.67458060E+00  9.21390104E-01
  5.56113180E+00 -4.77677577E+00 -1.90878036E+00  9.64189323E+00 -2.71796177E+00
 -7.92118004E-01
Num ILSW                                   I              100
ILSW                                       I   N=         100
           0           1           0           0           2           0
           0           0           0           0           0          -1
           0           0           0           0           0           0
           0           0           0           0           1           0
           1           0           0           0           0           0
           0           0      100000           0          -1           0
           0           0           0           0           0           0
           0           0           0           1           1           0
           0           0           1           0           0           0
           0           0           4          40           0           0
           0           0           0           0           0           0
           0           0           0           0           0           0
           0           0           0           0           0           0
           0           0           0           0           0           0
           0           0           0           0           0           0
           0           0           0           0           0           0
           0           0           0           0
Num RLSW                                   I               40
RLSW                                       R   N=          40
  1.00000000E+00  1.00000000E+00  1.00000000E+00  1.00000000E+00  1.00000000E+00
  0.00000000E+00  0.00000000E+00  1.00000000E+00  0.00000000E+00  0.00000000E+00
  0.00000000E+00  0.00000000E+00  1.00000000E+00  0.00000000E+00  0.00000000E+00
  0.00000000E+00  0.00000000E+00  1.00000000E+00  0.00000000E+00  0.00000000E+00
  0.00000000E+00  0.00000000E+00  1.00000000E+00  0.00000000E+00  0.00000000E+00
  0.00000000E+00  0.00000000E+00  1.00000000E+00  0.00000000E+00  0.00000000E+00
  0.00000000E+00  0.00000000E+00  0.00000000E+00  0.00000000E+00  0.00000000E+00
  0.00000000E+00  0.00000000E+00  0.00000000E+00  1.00000000E+00  1.00000000E+00
MxBond                                     I                4
NBond                                      I   N=          27
           3           3           3           3           3           3
           3           3           3           3           4           3
           3           3           1           1           1           1
           1           1           1           1           1           1
           1           1           1
IBond                                      I   N=         108