
    -----------------------------------------------------------------------
          Psi4: An Open-Source Ab Initio Electronic Structure Package
                               Psi4 1.3.2 release

                         Git: Rev {HEAD} ecbda83 


    R. M. Parrish, L. A. Burns, D. G. A. Smith, A. C. Simmonett,
    A. E. DePrince III, E. G. Hohenstein, U. Bozkaya, A. Yu. Sokolov,
    R. Di Remigio, R. M. Richard, J. F. Gonthier, A. M. James,
    H. R. McAlexander, A. Kumar, M. Saitow, X. Wang, B. P. Pritchard,
    P. Verma, H. F. Schaefer III, K. Patkowski, R. A. King, E. F. Valeev,
    F. A. Evangelista, J. M. Turney, T. D. Crawford, and C. D. Sherrill,
    J. Chem. Theory Comput. 13(7) pp 3185--3197 (2017).
    (doi: 10.1021/acs.jctc.7b00174)


                         Additional Contributions by
    P. Kraus, H. Kruse, M. H. Lechner, M. C. Schieber, R. A. Shaw,
    A. Alenaizan, R. Galvelis, Z. L. Glick, S. Lehtola, and J. P. Misiewicz

    -----------------------------------------------------------------------


    Psi4 started on: Thursday, 11 February 2021 12:57PM

    Process ID: 36673
    Host:       node144.bme.utexas.edu
    PSIDATADIR: /home/xy3866/psi4conda/share/psi4
    Memory:     500.0 MiB
    Threads:    8
    
  ==> Input File <==

--------------------------------------------------------------------------
#psi4
#
memory 32 gb

molecule  {
0 1
  O        0.6831730     1.9514370    -0.1851230
  N        0.3221270    -0.3206750    -0.2979720
  C        1.7580560    -0.4955670    -0.5492050
  C       -0.1211040     1.0090560    -0.1118080
  C       -0.4973450    -1.4105120    -0.1972350
  C        2.5603930    -0.4317450     0.7423750
  C       -1.5372540     1.1223260     0.1526570
  C       -1.8319680    -1.2780450     0.0712850
  C       -2.3551590     0.0280850     0.2487950
  H        1.8855710    -1.4559800    -1.0561060
  H        2.0595230     0.3051280    -1.2266110
  H       -0.0197130    -2.3738180    -0.3527730
  H        2.4186300     0.5432120     1.2108420
  H        2.2423160    -1.2153800     1.4354410
  H        3.6255180    -0.5665000     0.5315230
  H       -1.9400885     2.1403511     0.1383322
  H       -2.4591310    -2.1595270     0.1391440
  H       -3.4140320     0.1624990     0.4585800
units angstrom
no_reorient  #important for SAPT in psi4, default
symmetry c1  #important for SAPT in psi4, default
}

set PROPERTIES_ORIGIN ["COM"]
properties('MP2/aug-cc-pvtz', properties = ['dipole'])
--------------------------------------------------------------------------

  Memory set to  29.802 GiB by Python driver.
    SCF Algorithm Type (re)set to DF.

*** tstart() called on node144.bme.utexas.edu
*** at Thu Feb 11 12:57:41 2021

   => Loading Basis Set <=

    Name: AUG-CC-PVTZ
    Role: ORBITAL
    Keyword: BASIS
    atoms 1     entry O          line   327 file /home/xy3866/psi4conda/share/psi4/basis/aug-cc-pvtz.gbs 
    atoms 2     entry N          line   281 file /home/xy3866/psi4conda/share/psi4/basis/aug-cc-pvtz.gbs 
    atoms 3-9   entry C          line   235 file /home/xy3866/psi4conda/share/psi4/basis/aug-cc-pvtz.gbs 
    atoms 10-18 entry H          line    36 file /home/xy3866/psi4conda/share/psi4/basis/aug-cc-pvtz.gbs 


         ---------------------------------------------------------
                                   SCF
               by Justin Turney, Rob Parrish, Andy Simmonett
                          and Daniel G. A. Smith
                              RHF Reference
                        8 Threads,  30517 MiB Core
         ---------------------------------------------------------

  ==> Geometry <==

    Molecular point group: c1
    Full point group: C1

    Geometry (in Angstrom), charge = 0, multiplicity = 1:

       Center              X                  Y                   Z               Mass       
    ------------   -----------------  -----------------  -----------------  -----------------
         O            0.719100149772     1.914143582196    -0.172424314830    15.994914619570
         N            0.358054149772    -0.357968417804    -0.285273314830    14.003074004430
         C            1.793983149772    -0.532860417804    -0.536506314830    12.000000000000
         C           -0.085176850228     0.971762582196    -0.099109314830    12.000000000000
         C           -0.461417850228    -1.447805417804    -0.184536314830    12.000000000000
         C            2.596320149772    -0.469038417804     0.755073685170    12.000000000000
         C           -1.501326850228     1.085032582196     0.165355685170    12.000000000000
         C           -1.796040850228    -1.315338417804     0.083983685170    12.000000000000
         C           -2.319231850228    -0.009208417804     0.261493685170    12.000000000000
         H            1.921498149772    -1.493273417804    -1.043407314830     1.007825032230
         H            2.095450149772     0.267834582196    -1.213912314830     1.007825032230
         H            0.016214149772    -2.411111417804    -0.340074314830     1.007825032230
         H            2.454557149772     0.505918582196     1.223540685170     1.007825032230
         H            2.278243149772    -1.252673417804     1.448139685170     1.007825032230
         H            3.661445149772    -0.603793417804     0.544221685170     1.007825032230
         H           -1.904161350228     2.103057682196     0.151030885170     1.007825032230
         H           -2.423203850228    -2.196820417804     0.151842685170     1.007825032230
         H           -3.378104850228     0.125205582196     0.471278685170     1.007825032230

  Running in c1 symmetry.

  Rotational constants: A =      0.09473  B =      0.04998  C =      0.03556 [cm^-1]
  Rotational constants: A =   2839.99554  B =   1498.50079  C =   1065.94507 [MHz]
  Nuclear repulsion =  437.388750039329409

  Charge       = 0
  Multiplicity = 1
  Electrons    = 66
  Nalpha       = 33
  Nbeta        = 33

  ==> Algorithm <==

  SCF Algorithm Type is DF.
  DIIS enabled.
  MOM disabled.
  Fractional occupation disabled.
  Guess Type is SAD.
  Energy threshold   = 1.00e-10
  Density threshold  = 1.00e-10
  Integral threshold = 0.00e+00

  ==> Primary Basis <==

  Basis Set: AUG-CC-PVTZ
    Blend: AUG-CC-PVTZ
    Number of shells: 207
    Number of basis function: 621
    Number of Cartesian functions: 720
    Spherical Harmonics?: true
    Max angular momentum: 3

   => Loading Basis Set <=

    Name: (AUG-CC-PVTZ AUX)
    Role: JKFIT
    Keyword: DF_BASIS_SCF
    atoms 1     entry O          line   286 file /home/xy3866/psi4conda/share/psi4/basis/aug-cc-pvtz-jkfit.gbs 
    atoms 2     entry N          line   224 file /home/xy3866/psi4conda/share/psi4/basis/aug-cc-pvtz-jkfit.gbs 
    atoms 3-9   entry C          line   162 file /home/xy3866/psi4conda/share/psi4/basis/aug-cc-pvtz-jkfit.gbs 
    atoms 10-18 entry H          line    70 file /home/xy3866/psi4conda/share/psi4/basis/aug-cc-pvtz-jkfit.gbs 

  ==> Pre-Iterations <==

   -------------------------------------------------------
    Irrep   Nso     Nmo     Nalpha   Nbeta   Ndocc  Nsocc
   -------------------------------------------------------
     A        621     621       0       0       0       0
   -------------------------------------------------------
    Total     621     621      33      33      33       0
   -------------------------------------------------------

  ==> Integral Setup <==

  DFHelper Memory: AOs need 3.844 GiB; user supplied 22.352 GiB. Using in-core AOs.

  ==> MemDFJK: Density-Fitted J/K Matrices <==

    J tasked:                   Yes
    K tasked:                   Yes
    wK tasked:                   No
    OpenMP threads:               8
    Memory [MiB]:             22888
    Algorithm:                 Disk
    Schwarz Cutoff:           1E-12
    Mask sparsity (%):       3.8383
    Fitting Condition:        1E-10

   => Auxiliary Basis Set <=

  Basis Set: (AUG-CC-PVTZ AUX)
    Blend: AUG-CC-PVTZ-JKFIT
    Number of shells: 396
    Number of basis function: 1350
    Number of Cartesian functions: 1674
    Spherical Harmonics?: true
    Max angular momentum: 4

  Minimum eigenvalue in the overlap matrix is 1.7443008163E-06.
  Using Symmetric Orthogonalization.

  SCF Guess: Superposition of Atomic Densities via on-the-fly atomic UHF.

  ==> Iterations <==

                           Total Energy        Delta E     RMS |[F,P]|

   @DF-RHF iter SAD:  -399.14131457581544   -3.99141e+02   0.00000e+00 
   @DF-RHF iter   1:  -399.49754472502434   -3.56230e-01   1.13497e-03 DIIS
   @DF-RHF iter   2:  -399.71049038463843   -2.12946e-01   6.11727e-04 DIIS
   @DF-RHF iter   3:  -399.76486195299265   -5.43716e-02   1.41385e-04 DIIS
   @DF-RHF iter   4:  -399.76909233383600   -4.23038e-03   6.35750e-05 DIIS
   @DF-RHF iter   5:  -399.77003005431055   -9.37720e-04   1.19309e-05 DIIS
   @DF-RHF iter   6:  -399.77014518499919   -1.15131e-04   6.98944e-06 DIIS
   @DF-RHF iter   7:  -399.77018012346025   -3.49385e-05   3.12818e-06 DIIS
   @DF-RHF iter   8:  -399.77018981406923   -9.69061e-06   1.12437e-06 DIIS
   @DF-RHF iter   9:  -399.77019075965200   -9.45583e-07   3.66759e-07 DIIS
   @DF-RHF iter  10:  -399.77019082940194   -6.97499e-08   1.48082e-07 DIIS
   @DF-RHF iter  11:  -399.77019084194421   -1.25423e-08   6.16647e-08 DIIS
   @DF-RHF iter  12:  -399.77019084471999   -2.77578e-09   2.46026e-08 DIIS
   @DF-RHF iter  13:  -399.77019084525830   -5.38307e-10   9.40599e-09 DIIS
   @DF-RHF iter  14:  -399.77019084534169   -8.33893e-11   3.74580e-09 DIIS
   @DF-RHF iter  15:  -399.77019084535340   -1.17097e-11   1.55413e-09 DIIS
   @DF-RHF iter  16:  -399.77019084535601   -2.61480e-12   5.24391e-10 DIIS
   @DF-RHF iter  17:  -399.77019084535550    5.11591e-13   2.52716e-10 DIIS
   @DF-RHF iter  18:  -399.77019084535618   -6.82121e-13   8.42483e-11 DIIS
  Energy and wave function converged.


  ==> Post-Iterations <==

    Orbital Energies [Eh]
    ---------------------

    Doubly Occupied:                                                      

       1A    -20.506322     2A    -15.625546     3A    -11.349941  
       4A    -11.308978     5A    -11.273851     6A    -11.270717  
       7A    -11.240218     8A    -11.237880     9A    -11.221131  
      10A     -1.369080    11A     -1.278371    12A     -1.119106  
      13A     -1.031239    14A     -1.018005    15A     -0.895583  
      16A     -0.869986    17A     -0.824866    18A     -0.713967  
      19A     -0.700474    20A     -0.666547    21A     -0.640731  
      22A     -0.612649    23A     -0.607386    24A     -0.605595  
      25A     -0.560603    26A     -0.536640    27A     -0.531292  
      28A     -0.524676    29A     -0.505988    30A     -0.474970  
      31A     -0.420894    32A     -0.407627    33A     -0.308732  

    Virtual:                                                              

      34A      0.022701    35A      0.028869    36A      0.036920  
      37A      0.039711    38A      0.047097    39A      0.051057  
      40A      0.060072    41A      0.065391    42A      0.070121  
      43A      0.074828    44A      0.081643    45A      0.094103  
      46A      0.101201    47A      0.110736    48A      0.111118  
      49A      0.113109    50A      0.114461    51A      0.121862  
      52A      0.126279    53A      0.129941    54A      0.130784  
      55A      0.139552    56A      0.143289    57A      0.144030  
      58A      0.146007    59A      0.149237    60A      0.156345  
      61A      0.159547    62A      0.166532    63A      0.168119  
      64A      0.170343    65A      0.173068    66A      0.177742  
      67A      0.209968    68A      0.217420    69A      0.220751  
      70A      0.234699    71A      0.239398    72A      0.243796  
      73A      0.246694    74A      0.255389    75A      0.258685  
      76A      0.264484    77A      0.267953    78A      0.276134  
      79A      0.284045    80A      0.289147    81A      0.295307  
      82A      0.299814    83A      0.303874    84A      0.307379  
      85A      0.312010    86A      0.315675    87A      0.316954  
      88A      0.319520    89A      0.325547    90A      0.334575  
      91A      0.338245    92A      0.342108    93A      0.346329  
      94A      0.348173    95A      0.356853    96A      0.364626  
      97A      0.373013    98A      0.378343    99A      0.382196  
     100A      0.390288   101A      0.397560   102A      0.403120  
     103A      0.406115   104A      0.412490   105A      0.413027  
     106A      0.420291   107A      0.427183   108A      0.431001  
     109A      0.440330   110A      0.442608   111A      0.447005  
     112A      0.448875   113A      0.456108   114A      0.462108  
     115A      0.464396   116A      0.465755   117A      0.474511  
     118A      0.480120   119A      0.484439   120A      0.492622  
     121A      0.493807   122A      0.499373   123A      0.504359  
     124A      0.509080   125A      0.512260   126A      0.515582  
     127A      0.518076   128A      0.524901   129A      0.527529  
     130A      0.529627   131A      0.535627   132A      0.542721  
     133A      0.546072   134A      0.554210   135A      0.561548  
     136A      0.566958   137A      0.571313   138A      0.582949  
     139A      0.585990   140A      0.598785   141A      0.605568  
     142A      0.611156   143A      0.622896   144A      0.631194  
     145A      0.633173   146A      0.636380   147A      0.643762  
     148A      0.650356   149A      0.655092   150A      0.666584  
     151A      0.680974   152A      0.689032   153A      0.699928  
     154A      0.703181   155A      0.711301   156A      0.720051  
     157A      0.724577   158A      0.727947   159A      0.737260  
     160A      0.741238   161A      0.758049   162A      0.769148  
     163A      0.772401   164A      0.781639   165A      0.792060  
     166A      0.796708   167A      0.805633   168A      0.806185  
     169A      0.819236   170A      0.825007   171A      0.831021  
     172A      0.838948   173A      0.844006   174A      0.848188  
     175A      0.850450   176A      0.862369   177A      0.865728  
     178A      0.871313   179A      0.875999   180A      0.882085  
     181A      0.889226   182A      0.898445   183A      0.906035  
     184A      0.909645   185A      0.918668   186A      0.920535  
     187A      0.927408   188A      0.935637   189A      0.941620  
     190A      0.954729   191A      0.965345   192A      0.971974  
     193A      0.979377   194A      0.982999   195A      0.988697  
     196A      0.994369   197A      0.999988   198A      1.004752  
     199A      1.009573   200A      1.015780   201A      1.024382  
     202A      1.026585   203A      1.029589   204A      1.048125  
     205A      1.053103   206A      1.059277   207A      1.065466  
     208A      1.069146   209A      1.071186   210A      1.080202  
     211A      1.085062   212A      1.095394   213A      1.104435  
     214A      1.106142   215A      1.119322   216A      1.123082  
     217A      1.130689   218A      1.134304   219A      1.138883  
     220A      1.143237   221A      1.153413   222A      1.157570  
     223A      1.171014   224A      1.173110   225A      1.180707  
     226A      1.186454   227A      1.188535   228A      1.190740  
     229A      1.196065   230A      1.205164   231A      1.215371  
     232A      1.223869   233A      1.227050   234A      1.232737  
     235A      1.236627   236A      1.241538   237A      1.245415  
     238A      1.267351   239A      1.276881   240A      1.286443  
     241A      1.292638   242A      1.308756   243A      1.313840  
     244A      1.324213   245A      1.329110   246A      1.343969  
     247A      1.349916   248A      1.361656   249A      1.365266  
     250A      1.376400   251A      1.379592   252A      1.393794  
     253A      1.396818   254A      1.404812   255A      1.413466  
     256A      1.415435   257A      1.428149   258A      1.444404  
     259A      1.450829   260A      1.455323   261A      1.468146  
     262A      1.489030   263A      1.489921   264A      1.502801  
     265A      1.513298   266A      1.520274   267A      1.524897  
     268A      1.528799   269A      1.535471   270A      1.540820  
     271A      1.561679   272A      1.575739   273A      1.582328  
     274A      1.600484   275A      1.603667   276A      1.617454  
     277A      1.625398   278A      1.637151   279A      1.639465  
     280A      1.656228   281A      1.663800   282A      1.668224  
     283A      1.675507   284A      1.679046   285A      1.685092  
     286A      1.703694   287A      1.708323   288A      1.719470  
     289A      1.732456   290A      1.737318   291A      1.744753  
     292A      1.751465   293A      1.759594   294A      1.762363  
     295A      1.776631   296A      1.785870   297A      1.793444  
     298A      1.811832   299A      1.816035   300A      1.826865  
     301A      1.835857   302A      1.844635   303A      1.847685  
     304A      1.857143   305A      1.868788   306A      1.873756  
     307A      1.877675   308A      1.887869   309A      1.905533  
     310A      1.921972   311A      1.930714   312A      1.936231  
     313A      1.944987   314A      1.967418   315A      1.972814  
     316A      1.987979   317A      1.996209   318A      2.007671  
     319A      2.022593   320A      2.028200   321A      2.039963  
     322A      2.047480   323A      2.049875   324A      2.057979  
     325A      2.065857   326A      2.072926   327A      2.079070  
     328A      2.102529   329A      2.112841   330A      2.129213  
     331A      2.143735   332A      2.151340   333A      2.164369  
     334A      2.172113   335A      2.193980   336A      2.201439  
     337A      2.212657   338A      2.229228   339A      2.237687  
     340A      2.247794   341A      2.253036   342A      2.260334  
     343A      2.275285   344A      2.289699   345A      2.294345  
     346A      2.302983   347A      2.321673   348A      2.350656  
     349A      2.354720   350A      2.364528   351A      2.376653  
     352A      2.389094   353A      2.397691   354A      2.406428  
     355A      2.419825   356A      2.433158   357A      2.446810  
     358A      2.462030   359A      2.474548   360A      2.501240  
     361A      2.523245   362A      2.538386   363A      2.546742  
     364A      2.575008   365A      2.585940   366A      2.598516  
     367A      2.626865   368A      2.666428   369A      2.676881  
     370A      2.683745   371A      2.702524   372A      2.725834  
     373A      2.748126   374A      2.772122   375A      2.786600  
     376A      2.803490   377A      2.807619   378A      2.813796  
     379A      2.860536   380A      2.869276   381A      2.893943  
     382A      2.901273   383A      2.941543   384A      2.959657  
     385A      2.973655   386A      3.026251   387A      3.045308  
     388A      3.056321   389A      3.076348   390A      3.137267  
     391A      3.143344   392A      3.176249   393A      3.207235  
     394A      3.216456   395A      3.238004   396A      3.257704  
     397A      3.270582   398A      3.286420   399A      3.309719  
     400A      3.342867   401A      3.355474   402A      3.369336  
     403A      3.402401   404A      3.419748   405A      3.433962  
     406A      3.443694   407A      3.460299   408A      3.464930  
     409A      3.477699   410A      3.487096   411A      3.496554  
     412A      3.517529   413A      3.520041   414A      3.538680  
     415A      3.541108   416A      3.560349   417A      3.572643  
     418A      3.585960   419A      3.612282   420A      3.617985  
     421A      3.640197   422A      3.646625   423A      3.651005  
     424A      3.671841   425A      3.679062   426A      3.684525  
     427A      3.697318   428A      3.716423   429A      3.726342  
     430A      3.743821   431A      3.750484   432A      3.758818  
     433A      3.771731   434A      3.788269   435A      3.796721  
     436A      3.801209   437A      3.813786   438A      3.825444  
     439A      3.838482   440A      3.848935   441A      3.857814  
     442A      3.867335   443A      3.891386   444A      3.894831  
     445A      3.925764   446A      3.929001   447A      3.960839  
     448A      3.962485   449A      3.966483   450A      3.985353  
     451A      3.989311   452A      3.993439   453A      4.004315  
     454A      4.013755   455A      4.034546   456A      4.045380  
     457A      4.052736   458A      4.055030   459A      4.068275  
     460A      4.079584   461A      4.084883   462A      4.101586  
     463A      4.110534   464A      4.116919   465A      4.135054  
     466A      4.150525   467A      4.154046   468A      4.159241  
     469A      4.188650   470A      4.204640   471A      4.211488  
     472A      4.226414   473A      4.249826   474A      4.253228  
     475A      4.260463   476A      4.274785   477A      4.286912  
     478A      4.300881   479A      4.307596   480A      4.322175  
     481A      4.328848   482A      4.342535   483A      4.345811  
     484A      4.373819   485A      4.379803   486A      4.404197  
     487A      4.412507   488A      4.426246   489A      4.439659  
     490A      4.460835   491A      4.465744   492A      4.479154  
     493A      4.513695   494A      4.525427   495A      4.537348  
     496A      4.542631   497A      4.555619   498A      4.579077  
     499A      4.606945   500A      4.643691   501A      4.661850  
     502A      4.667860   503A      4.681299   504A      4.701821  
     505A      4.729956   506A      4.743026   507A      4.756796  
     508A      4.774657   509A      4.797690   510A      4.827366  
     511A      4.840055   512A      4.849535   513A      4.875314  
     514A      4.884868   515A      4.887674   516A      4.907407  
     517A      4.909930   518A      4.924588   519A      4.937535  
     520A      4.971311   521A      4.985634   522A      5.006475  
     523A      5.026652   524A      5.030766   525A      5.043073  
     526A      5.047878   527A      5.080350   528A      5.100703  
     529A      5.109580   530A      5.115269   531A      5.125244  
     532A      5.137939   533A      5.153941   534A      5.186809  
     535A      5.188019   536A      5.221787   537A      5.236762  
     538A      5.238206   539A      5.273504   540A      5.291846  
     541A      5.297630   542A      5.310619   543A      5.341414  
     544A      5.359794   545A      5.377065   546A      5.389589  
     547A      5.412009   548A      5.418370   549A      5.457593  
     550A      5.491370   551A      5.508067   552A      5.525688  
     553A      5.548138   554A      5.577853   555A      5.599581  
     556A      5.630075   557A      5.638126   558A      5.644244  
     559A      5.692759   560A      5.700831   561A      5.733372  
     562A      5.735541   563A      5.762287   564A      5.777671  
     565A      5.787936   566A      5.828844   567A      5.867108  
     568A      5.879148   569A      5.916207   570A      5.932525  
     571A      5.971940   572A      6.008979   573A      6.051938  
     574A      6.067904   575A      6.083358   576A      6.149381  
     577A      6.179493   578A      6.198093   579A      6.234144  
     580A      6.244940   581A      6.266836   582A      6.297983  
     583A      6.330400   584A      6.370791   585A      6.408258  
     586A      6.466237   587A      6.540697   588A      6.644799  
     589A      6.671659   590A      6.737113   591A      6.780595  
     592A      6.799681   593A      6.809435   594A      6.826736  
     595A      6.869573   596A      6.894042   597A      6.901320  
     598A      6.983169   599A      7.029664   600A      7.077219  
     601A      7.086925   602A      7.137066   603A      7.188461  
     604A      7.249127   605A      7.326875   606A      7.491507  
     607A      7.505876   608A      7.773933   609A      7.821146  
     610A      7.877514   611A      7.992314   612A      8.087206  
     613A     15.757126   614A     16.159660   615A     16.736883  
     616A     17.955930   617A     18.780613   618A     18.960486  
     619A     19.309622   620A     19.976151   621A     20.518703  

    Final Occupation by Irrep:
              A 
    DOCC [    33 ]

  @DF-RHF Final Energy:  -399.77019084535618

   => Energetics <=

    Nuclear Repulsion Energy =            437.3887500393294090
    One-Electron Energy =               -1409.7987048523525573
    Two-Electron Energy =                 572.6397639676670224
    Total Energy =                       -399.7701908453561828

Computation Completed

*** tstop() called on node144.bme.utexas.edu at Thu Feb 11 12:58:47 2021
Module time:
	user time   =     284.11 seconds =       4.74 minutes
	system time =      38.23 seconds =       0.64 minutes
	total time  =         66 seconds =       1.10 minutes
Total time:
	user time   =     284.11 seconds =       4.74 minutes
	system time =      38.23 seconds =       0.64 minutes
	total time  =         66 seconds =       1.10 minutes
   => Loading Basis Set <=

    Name: (AUG-CC-PVTZ AUX)
    Role: RIFIT
    Keyword: DF_BASIS_MP2
    atoms 1     entry O          line   264 file /home/xy3866/psi4conda/share/psi4/basis/aug-cc-pvtz-ri.gbs 
    atoms 2     entry N          line   206 file /home/xy3866/psi4conda/share/psi4/basis/aug-cc-pvtz-ri.gbs 
    atoms 3-9   entry C          line   148 file /home/xy3866/psi4conda/share/psi4/basis/aug-cc-pvtz-ri.gbs 
    atoms 10-18 entry H          line    30 file /home/xy3866/psi4conda/share/psi4/basis/aug-cc-pvtz-ri.gbs 


*** tstart() called on node144.bme.utexas.edu
*** at Thu Feb 11 12:58:48 2021


  //>>>>>>>>>>>>>>>>>>>>>>>>>>>>>>>>>>>//
  //               DFMP2               //
  //<<<<<<<<<<<<<<<<<<<<<<<<<<<<<<<<<<<//

	 --------------------------------------------------------
	                          DF-MP2                         
	      2nd-Order Density-Fitted Moller-Plesset Theory     
	              RMP2 Wavefunction,   8 Threads             
	                                                         
	        Rob Parrish, Justin Turney, Andy Simmonett,      
	           Ed Hohenstein, and C. David Sherrill          
	 --------------------------------------------------------

   => Auxiliary Basis Set <=

  Basis Set: (AUG-CC-PVTZ AUX)
    Blend: AUG-CC-PVTZ-RI
    Number of shells: 378
    Number of basis function: 1368
    Number of Cartesian functions: 1719
    Spherical Harmonics?: true
    Max angular momentum: 4

	 --------------------------------------------------------
	                 NBF =   621, NAUX =  1368
	 --------------------------------------------------------
	   CLASS    FOCC     OCC    AOCC    AVIR     VIR    FVIR
	   PAIRS       0      33      33     588     588       0
	 --------------------------------------------------------

  DFHelper Memory: AOs need 3.844 GiB; user supplied 22.352 GiB. Using in-core AOs.


         ------------------------------------------------------------
                                     CPHF                           
                                  Rob Parrish                       
         ------------------------------------------------------------

  ==> Geometry <==

    Molecular point group: c1
    Full point group: C1

    Geometry (in Angstrom), charge = 0, multiplicity = 1:

       Center              X                  Y                   Z               Mass       
    ------------   -----------------  -----------------  -----------------  -----------------
         O            0.719100149772     1.914143582196    -0.172424314830    15.994914619570
         N            0.358054149772    -0.357968417804    -0.285273314830    14.003074004430
         C            1.793983149772    -0.532860417804    -0.536506314830    12.000000000000
         C           -0.085176850228     0.971762582196    -0.099109314830    12.000000000000
         C           -0.461417850228    -1.447805417804    -0.184536314830    12.000000000000
         C            2.596320149772    -0.469038417804     0.755073685170    12.000000000000
         C           -1.501326850228     1.085032582196     0.165355685170    12.000000000000
         C           -1.796040850228    -1.315338417804     0.083983685170    12.000000000000
         C           -2.319231850228    -0.009208417804     0.261493685170    12.000000000000
         H            1.921498149772    -1.493273417804    -1.043407314830     1.007825032230
         H            2.095450149772     0.267834582196    -1.213912314830     1.007825032230
         H            0.016214149772    -2.411111417804    -0.340074314830     1.007825032230
         H            2.454557149772     0.505918582196     1.223540685170     1.007825032230
         H            2.278243149772    -1.252673417804     1.448139685170     1.007825032230
         H            3.661445149772    -0.603793417804     0.544221685170     1.007825032230
         H           -1.904161350228     2.103057682196     0.151030885170     1.007825032230
         H           -2.423203850228    -2.196820417804     0.151842685170     1.007825032230
         H           -3.378104850228     0.125205582196     0.471278685170     1.007825032230

  Nuclear repulsion =  437.388750039329409
  Reference energy  = -399.770190845356183

  ==> Basis Set <==

  Basis Set: AUG-CC-PVTZ
    Blend: AUG-CC-PVTZ
    Number of shells: 207
    Number of basis function: 621
    Number of Cartesian functions: 720
    Spherical Harmonics?: true
    Max angular momentum: 3

  ==> CGRSolver (by Rob Parrish) <==

   Number of roots    =         1
   Preconditioning    =    JACOBI
   Convergence cutoff =     1E-06
   Maximum iterations =       100

  ==> CPHFRHamiltonian (by Rob Parrish) <== 

  ==> MemDFJK: Density-Fitted J/K Matrices <==

    J tasked:                   Yes
    K tasked:                   Yes
    wK tasked:                   No
    OpenMP threads:               8
    Memory [MiB]:             22888
    Algorithm:                 Disk
    Schwarz Cutoff:           1E-12
    Mask sparsity (%):       3.8383
    Fitting Condition:        1E-10

   => Auxiliary Basis Set <=

  Basis Set: (AUG-CC-PVTZ AUX)
    Blend: AUG-CC-PVTZ-JKFIT
    Number of shells: 396
    Number of basis function: 1350
    Number of Cartesian functions: 1674
    Spherical Harmonics?: true
    Max angular momentum: 4

  ==> CPHF Iterations <==

  => Iterations <=

             Iter  Converged  Remaining    Residual
  CGR           1          0          1   1.491E-01
  CGR           2          0          1   5.518E-02
  CGR           3          0          1   2.836E-02
  CGR           4          0          1   8.060E-03
  CGR           5          0          1   3.244E-03
  CGR           6          0          1   1.488E-03
  CGR           7          0          1   4.584E-04
  CGR           8          0          1   1.612E-04
  CGR           9          0          1   5.602E-05
  CGR          10          0          1   1.956E-05
  CGR          11          0          1   7.535E-06
  CGR          12          0          1   3.797E-06
  CGR          13          0          1   1.357E-06
  CGR          14          1          0   4.382E-07

    CGRSolver converged.

	-----------------------------------------------------------
	 ==================> DF-MP2 Energies <==================== 
	-----------------------------------------------------------
	 Reference Energy          =    -399.7701908453561828 [Eh]
	 Singles Energy            =      -0.0000000000000000 [Eh]
	 Same-Spin Energy          =      -0.4235141103749679 [Eh]
	 Opposite-Spin Energy      =      -1.3399548156506884 [Eh]
	 Correlation Energy        =      -1.7634689260256562 [Eh]
	 Total Energy              =    -401.5336597713818492 [Eh]
	-----------------------------------------------------------
	 ================> DF-SCS-MP2 Energies <================== 
	-----------------------------------------------------------
	 SCS Same-Spin Scale       =       0.3333333333333333 [-]
	 SCS Opposite-Spin Scale   =       1.2000000000000000 [-]
	 SCS Same-Spin Energy      =      -0.1411713701249893 [Eh]
	 SCS Opposite-Spin Energy  =      -1.6079457787808260 [Eh]
	 SCS Correlation Energy    =      -1.7491171489058153 [Eh]
	 SCS Total Energy          =    -401.5193079942620216 [Eh]
	-----------------------------------------------------------



Properties will be evaluated at  -0.000000,   0.000000,   0.000000 [a0]

Properties computed using the MP2 density matrix

  Nuclear Dipole Moment: [e a0]
     X:     4.4291      Y:    -4.6355      Z:     1.3056

  Electronic Dipole Moment: [e a0]
     X:    -4.7308      Y:     3.1342      Z:    -1.3297

  Dipole Moment: [e a0]
     X:    -0.3017      Y:    -1.5013      Z:    -0.0241     Total:     1.5315

  Dipole Moment: [D]
     X:    -0.7668      Y:    -3.8159      Z:    -0.0613     Total:     3.8927


*** tstop() called on node144.bme.utexas.edu at Thu Feb 11 13:01:06 2021
Module time:
	user time   =     802.93 seconds =      13.38 minutes
	system time =      42.99 seconds =       0.72 minutes
	total time  =        138 seconds =       2.30 minutes
Total time:
	user time   =    1087.20 seconds =      18.12 minutes
	system time =      81.22 seconds =       1.35 minutes
	total time  =        205 seconds =       3.42 minutes

    Psi4 stopped on: Thursday, 11 February 2021 01:01PM
    Psi4 wall time for execution: 0:03:25.51

*** Psi4 exiting successfully. Buy a developer a beer!
