046_2-Propanol Gaussian SP Calculation on node144.bme.utexas.edu        
Freq      RMP2-FC                                                     6-31G(d)            
Number of atoms                            I               12
Info1-9                                    I   N=           9
          23          22        1002           0           0         100
           6           2           1
Charge                                     I                0
Multiplicity                               I                1
Number of electrons                        I               34
Number of alpha electrons                  I               17
Number of beta electrons                   I               17
Number of basis functions                  I               76
Number of independent functions            I               76
Number of point charges in /Mol/           I                0
Number of translation vectors              I                0
Atomic numbers                             I   N=          12
           6           6           6           8           1           1
           1           1           1           1           1           1
Nuclear charges                            R   N=          12
  6.00000000E+00  6.00000000E+00  6.00000000E+00  8.00000000E+00  1.00000000E+00
  1.00000000E+00  1.00000000E+00  1.00000000E+00  1.00000000E+00  1.00000000E+00
  1.00000000E+00  1.00000000E+00
Current cartesian coordinates              R   N=          36
 -1.78122660E-03  6.85593267E-02  6.99544846E-01 -2.48408860E+00 -1.06781225E+00
 -1.68257123E-01  2.27330593E+00 -1.44435187E+00 -1.98524471E-01  4.94003689E-02
  2.57962757E+00 -3.16928360E-01  1.39993249E-02  1.55043856E-01  2.77944520E+00
 -2.71923528E+00 -2.97861839E+00  5.83112948E-01  2.27798618E+00 -1.52600974E+00
 -2.26326560E+00  4.04062699E+00 -5.62786414E-01  4.22727726E-01  2.23098161E+00
 -3.37228821E+00  5.48314748E-01  1.62119294E+00  3.35870657E+00  2.31666168E-01
 -2.52387497E+00 -1.15025161E+00 -2.23254570E+00 -4.06149641E+00  1.00812164E-01
  4.69391873E-01
Force Field                                I                0
Int Atom Types                             I   N=          12
           0           0           0           0           0           0
           0           0           0           0           0           0
MM charges                                 R   N=          12
  0.00000000E+00  0.00000000E+00  0.00000000E+00  0.00000000E+00  0.00000000E+00
  0.00000000E+00  0.00000000E+00  0.00000000E+00  0.00000000E+00  0.00000000E+00
  0.00000000E+00  0.00000000E+00
Integer atomic weights                     I   N=          12
          12          12          12          16           1           1
           1           1           1           1           1           1
Real atomic weights                        R   N=          12
  1.20000000E+01  1.20000000E+01  1.20000000E+01  1.59949146E+01  1.00782504E+00
  1.00782504E+00  1.00782504E+00  1.00782504E+00  1.00782504E+00  1.00782504E+00
  1.00782504E+00  1.00782504E+00
Atom fragment info                         I   N=          12
           0           0           0           0           0           0
           0           0           0           0           0           0
Atom residue num                           I   N=          12
           0           0           0           0           0           0
           0           0           0           0           0           0
Nuclear spins                              I   N=          12
           0           0           0           0           1           1
           1           1           1           1           1           1
Nuclear ZEff                               R   N=          12
 -3.60000000E+00 -3.60000000E+00 -3.60000000E+00 -5.60000000E+00 -1.00000000E+00
 -1.00000000E+00 -1.00000000E+00 -1.00000000E+00 -1.00000000E+00 -1.00000000E+00
 -1.00000000E+00 -1.00000000E+00
Nuclear QMom                               R   N=          12
  0.00000000E+00  0.00000000E+00  0.00000000E+00  0.00000000E+00  0.00000000E+00
  0.00000000E+00  0.00000000E+00  0.00000000E+00  0.00000000E+00  0.00000000E+00
  0.00000000E+00  0.00000000E+00
Nuclear GFac                               R   N=          12
  0.00000000E+00  0.00000000E+00  0.00000000E+00  0.00000000E+00  2.79284600E+00
  2.79284600E+00  2.79284600E+00  2.79284600E+00  2.79284600E+00  2.79284600E+00
  2.79284600E+00  2.79284600E+00
MicOpt                                     I   N=          12
          -1          -1          -1          -1          -1          -1
          -1          -1          -1          -1          -1          -1
Number of contracted shells                I               32
Number of primitive shells                 I               76
Pure/Cartesian d shells                    I                1
Pure/Cartesian f shells                    I                0
Highest angular momentum                   I                2
Largest degree of contraction              I                6
Shell types                                I   N=          32
           0          -1          -1           2           0          -1
          -1           2           0          -1          -1           2
           0          -1          -1           2           0           0
           0           0           0           0           0           0
           0           0           0           0           0           0
           0           0
Number of primitives per shell             I   N=          32
           6           3           1           1           6           3
           1           1           6           3           1           1
           6           3           1           1           3           1
           3           1           3           1           3           1
           3           1           3           1           3           1
           3           1
Shell to atom map                          I   N=          32
           1           1           1           1           2           2
           2           2           3           3           3           3
           4           4           4           4           5           5
           6           6           7           7           8           8
           9           9          10          10          11          11
          12          12
Primitive exponents                        R   N=          76
  3.04752488E+03  4.57369518E+02  1.03948685E+02  2.92101553E+01  9.28666296E+00
  3.16392696E+00  7.86827235E+00  1.88128854E+00  5.44249258E-01  1.68714478E-01
  8.00000000E-01  3.04752488E+03  4.57369518E+02  1.03948685E+02  2.92101553E+01
  9.28666296E+00  3.16392696E+00  7.86827235E+00  1.88128854E+00  5.44249258E-01
  1.68714478E-01  8.00000000E-01  3.04752488E+03  4.57369518E+02  1.03948685E+02
  2.92101553E+01  9.28666296E+00  3.16392696E+00  7.86827235E+00  1.88128854E+00
  5.44249258E-01  1.68714478E-01  8.00000000E-01  5.48467166E+03  8.25234946E+02
  1.88046958E+02  5.29645000E+01  1.68975704E+01  5.79963534E+00  1.55396162E+01
  3.59993359E+00  1.01376175E+00  2.70005823E-01  8.00000000E-01  1.87311370E+01
  2.82539436E+00  6.40121692E-01  1.61277759E-01  1.87311370E+01  2.82539436E+00
  6.40121692E-01  1.61277759E-01  1.87311370E+01  2.82539436E+00  6.40121692E-01
  1.61277759E-01  1.87311370E+01  2.82539436E+00  6.40121692E-01  1.61277759E-01
  1.87311370E+01  2.82539436E+00  6.40121692E-01  1.61277759E-01  1.87311370E+01
  2.82539436E+00  6.40121692E-01  1.61277759E-01  1.87311370E+01  2.82539436E+00
  6.40121692E-01  1.61277759E-01  1.87311370E+01  2.82539436E+00  6.40121692E-01
  1.61277759E-01
Contraction coefficients                   R   N=          76
  1.83473713E-03  1.40373228E-02  6.88426223E-02  2.32184443E-01  4.67941348E-01
  3.62311985E-01 -1.19332420E-01 -1.60854152E-01  1.14345644E+00  1.00000000E+00
  1.00000000E+00  1.83473713E-03  1.40373228E-02  6.88426223E-02  2.32184443E-01
  4.67941348E-01  3.62311985E-01 -1.19332420E-01 -1.60854152E-01  1.14345644E+00
  1.00000000E+00  1.00000000E+00  1.83473713E-03  1.40373228E-02  6.88426223E-02
  2.32184443E-01  4.67941348E-01  3.62311985E-01 -1.19332420E-01 -1.60854152E-01
  1.14345644E+00  1.00000000E+00  1.00000000E+00  1.83107443E-03  1.39501722E-02
  6.84450781E-02  2.32714336E-01  4.70192898E-01  3.58520853E-01 -1.10777550E-01
 -1.48026263E-01  1.13076702E+00  1.00000000E+00  1.00000000E+00  3.34946043E-02
  2.34726953E-01  8.13757326E-01  1.00000000E+00  3.34946043E-02  2.34726953E-01
  8.13757326E-01  1.00000000E+00  3.34946043E-02  2.34726953E-01  8.13757326E-01
  1.00000000E+00  3.34946043E-02  2.34726953E-01  8.13757326E-01  1.00000000E+00
  3.34946043E-02  2.34726953E-01  8.13757326E-01  1.00000000E+00  3.34946043E-02
  2.34726953E-01  8.13757326E-01  1.00000000E+00  3.34946043E-02  2.34726953E-01
  8.13757326E-01  1.00000000E+00  3.34946043E-02  2.34726953E-01  8.13757326E-01
  1.00000000E+00
P(S=P) Contraction coefficients            R   N=          76
  0.00000000E+00  0.00000000E+00  0.00000000E+00  0.00000000E+00  0.00000000E+00
  0.00000000E+00  6.89990666E-02  3.16423961E-01  7.44308291E-01  1.00000000E+00
  0.00000000E+00  0.00000000E+00  0.00000000E+00  0.00000000E+00  0.00000000E+00
  0.00000000E+00  0.00000000E+00  6.89990666E-02  3.16423961E-01  7.44308291E-01
  1.00000000E+00  0.00000000E+00  0.00000000E+00  0.00000000E+00  0.00000000E+00
  0.00000000E+00  0.00000000E+00  0.00000000E+00  6.89990666E-02  3.16423961E-01
  7.44308291E-01  1.00000000E+00  0.00000000E+00  0.00000000E+00  0.00000000E+00
  0.00000000E+00  0.00000000E+00  0.00000000E+00  0.00000000E+00  7.08742682E-02
  3.39752839E-01  7.27158577E-01  1.00000000E+00  0.00000000E+00  0.00000000E+00
  0.00000000E+00  0.00000000E+00  0.00000000E+00  0.00000000E+00  0.00000000E+00
  0.00000000E+00  0.00000000E+00  0.00000000E+00  0.00000000E+00  0.00000000E+00
  0.00000000E+00  0.00000000E+00  0.00000000E+00  0.00000000E+00  0.00000000E+00
  0.00000000E+00  0.00000000E+00  0.00000000E+00  0.00000000E+00  0.00000000E+00
  0.00000000E+00  0.00000000E+00  0.00000000E+00  0.00000000E+00  0.00000000E+00
  0.00000000E+00  0.00000000E+00  0.00000000E+00  0.00000000E+00  0.00000000E+00
  0.00000000E+00
Coordinates of each shell                  R   N=          96
 -1.78122660E-03  6.85593267E-02  6.99544846E-01 -1.78122660E-03  6.85593267E-02
  6.99544846E-01 -1.78122660E-03  6.85593267E-02  6.99544846E-01 -1.78122660E-03
  6.85593267E-02  6.99544846E-01 -2.48408860E+00 -1.06781225E+00 -1.68257123E-01
 -2.48408860E+00 -1.06781225E+00 -1.68257123E-01 -2.48408860E+00 -1.06781225E+00
 -1.68257123E-01 -2.48408860E+00 -1.06781225E+00 -1.68257123E-01  2.27330593E+00
 -1.44435187E+00 -1.98524471E-01  2.27330593E+00 -1.44435187E+00 -1.98524471E-01
  2.27330593E+00 -1.44435187E+00 -1.98524471E-01  2.27330593E+00 -1.44435187E+00
 -1.98524471E-01  4.94003689E-02  2.57962757E+00 -3.16928360E-01  4.94003689E-02
  2.57962757E+00 -3.16928360E-01  4.94003689E-02  2.57962757E+00 -3.16928360E-01
  4.94003689E-02  2.57962757E+00 -3.16928360E-01  1.39993249E-02  1.55043856E-01
  2.77944520E+00  1.39993249E-02  1.55043856E-01  2.77944520E+00 -2.71923528E+00
 -2.97861839E+00  5.83112948E-01 -2.71923528E+00 -2.97861839E+00  5.83112948E-01
  2.27798618E+00 -1.52600974E+00 -2.26326560E+00  2.27798618E+00 -1.52600974E+00
 -2.26326560E+00  4.04062699E+00 -5.62786414E-01  4.22727726E-01  4.04062699E+00
 -5.62786414E-01  4.22727726E-01  2.23098161E+00 -3.37228821E+00  5.48314748E-01
  2.23098161E+00 -3.37228821E+00  5.48314748E-01  1.62119294E+00  3.35870657E+00
  2.31666168E-01  1.62119294E+00  3.35870657E+00  2.31666168E-01 -2.52387497E+00
 -1.15025161E+00 -2.23254570E+00 -2.52387497E+00 -1.15025161E+00 -2.23254570E+00
 -4.06149641E+00  1.00812164E-01  4.69391873E-01 -4.06149641E+00  1.00812164E-01
  4.69391873E-01
Constraint Structure                       R   N=          36
 -1.78122660E-03  6.85593267E-02  6.99544846E-01 -2.48408860E+00 -1.06781225E+00
 -1.68257123E-01  2.27330593E+00 -1.44435187E+00 -1.98524471E-01  4.94003689E-02
  2.57962757E+00 -3.16928360E-01  1.39993249E-02  1.55043856E-01  2.77944520E+00
 -2.71923528E+00 -2.97861839E+00  5.83112948E-01  2.27798618E+00 -1.52600974E+00
 -2.26326560E+00  4.04062699E+00 -5.62786414E-01  4.22727726E-01  2.23098161E+00
 -3.37228821E+00  5.48314748E-01  1.62119294E+00  3.35870657E+00  2.31666168E-01
 -2.52387497E+00 -1.15025161E+00 -2.23254570E+00 -4.06149641E+00  1.00812164E-01
  4.69391873E-01
Num ILSW                                   I              100
ILSW                                       I   N=         100
           0           1           0           0           2           0
           0           0           0           0           0          -1
           0           0           0           0           0           0
           0           0           0           0           1           0
           1           0           0           0           0           0
           0           0      100000           0          -1           0
           0           0           0           0           0           0
           0           0           0           1           1           0
           0           0           1           0           0           0
           0           0           4          40           0           0
           0           0           0           0           0           0
           0           0           0           0           0           0
           0           0           0           0           0           0
           0           0           0           0           0           0
           0           0           0           0           0           0
           0           0           0           0           0           0
           0           0           0           0
Num RLSW                                   I               40
RLSW                                       R   N=          40
  1.00000000E+00  1.00000000E+00  1.00000000E+00  1.00000000E+00  1.00000000E+00
  0.00000000E+00  0.00000000E+00  1.00000000E+00  0.00000000E+00  0.00000000E+00
  0.00000000E+00  0.00000000E+00  1.00000000E+00  0.00000000E+00  0.00000000E+00
  0.00000000E+00  0.00000000E+00  1.00000000E+00  0.00000000E+00  0.00000000E+00
  0.00000000E+00  0.00000000E+00  1.00000000E+00  0.00000000E+00  0.00000000E+00
  0.00000000E+00  0.00000000E+00  1.00000000E+00  0.00000000E+00  0.00000000E+00
  0.00000000E+00  0.00000000E+00  0.00000000E+00  0.00000000E+00  0.00000000E+00
  0.00000000E+00  0.00000000E+00  0.00000000E+00  1.00000000E+00  1.00000000E+00
MxBond                                     I                4
NBond                                      I   N=          12
           4           4           4           2           1           1
           1           1           1           1           1           1
IBond                                      I   N=          48
           2           3           4           5           1           6
          11          12           1           7           8           9
           1          10           0           0           1           0
           0           0           2           0           0           0
           3           0           0           0           3           0
           0           0           3           0           0           0
           4           0           0           0           2           0
           0           0           2           0           0           0
RBond                                      R   N=          48
  1.00000000E+00  1.00000000E+00  1.00000000E+00  1.00000000E+00  1.00000000E+00
  1.00000000E+00  1.00000000E+00  1.00000000E+00  1.00000000E+00  1.00000000E+00
  1.00000000E+00  1.00000000E+00  1.00000000E+00  1.00000000E+00  0.00000000E+00
  0.00000000E+00  1.00000000E+00  0.00000000E+00  0.00000000E+00  0.00000000E+00
  1.00000000E+00  0.00000000E+00  0.00000000E+00  0.00000000E+00  1.00000000E+00
  0.00000000E+00  0.00000000E+00  0.00000000E+00  1.00000000E+00  0.00000000E+00
  0.00000000E+00  0.00000000E+00  1.00000000E+00  0.00000000E+00  0.00000000E+00
  0.00000000E+00  1.00000000E+00  0.00000000E+00  0.00000000E+00  0.00000000E+00
  1.00000000E+00  0.00000000E+00  0.00000000E+00  0.00000000E+00  1.00000000E+00
  0.00000000E+00  0.00000000E+00  0.00000000E+00
Virial Ratio                               R      2.001898575293137E+00
SCF Energy                                 R     -1.931138212551070E+02
MP2 Energy                                 R     -1.936896390351951E+02
Total Energy                               R     -1.936896390351951E+02
Post-SCF wavefunction norm                 R      1.535522395941900E+00
RMS Force                                  R      3.716925312740020E-07
RMS Density                                R      7.699330293906575E-10
External E-field                           R   N=          35
  0.00000000E+00  0.00000000E+00  0.00000000E+00  0.00000000E+00  0.00000000E+00
  0.00000000E+00  0.00000000E+00  0.00000000E+00  0.00000000E+00  0.00000000E+00
  0.00000000E+00  0.00000000E+00  0.00000000E+00  0.00000000E+00  0.00000000E+00
  0.00000000E+00  0.00000000E+00  0.00000000E+00  0.00000000E+00  0.00000000E+00
  0.00000000E+00  0.00000000E+00  0.00000000E+00  0.00000000E+00  0.00000000E+00
  0.00000000E+00  0.00000000E+00  0.00000000E+00  0.00000000E+00  0.00000000E+00
  0.00000000E+00  0.00000000E+00  0.00000000E+00  0.00000000E+00  0.00000000E+00
IOpCl                                      I                0
IROHF                                      I                0
Alpha Orbital Energies                     R   N=          76
 -2.05548234E+01 -1.12787474E+01 -1.12178849E+01 -1.12101925E+01 -1.34776695E+00
 -1.04143057E+00 -9.38039740E-01 -7.94437280E-01 -6.89787121E-01 -6.24139869E-01
 -6.01903299E-01 -5.44799590E-01 -5.32306446E-01 -5.23122260E-01 -5.07616214E-01
 -4.70201448E-01 -4.32155601E-01  2.13974325E-01  2.66711247E-01  2.92909135E-01
  2.94188543E-01  3.08377830E-01  3.20381434E-01  3.50918441E-01  3.51963263E-01
  3.97006675E-01  4.22753771E-01  4.43668079E-01  7.12662612E-01  7.25938679E-01
  7.92228873E-01  7.95737410E-01  8.09673420E-01  9.07718431E-01  9.60821262E-01
  9.63498064E-01  9.93351247E-01  1.08846122E+00  1.13994336E+00  1.15674877E+00
  1.17154675E+00  1.17343671E+00  1.18426014E+00  1.20325154E+00  1.21987705E+00
  1.24872477E+00  1.30320178E+00  1.31845659E+00  1.44615374E+00  1.62266438E+00
  1.67711814E+00  1.69164434E+00  1.77852920E+00  1.95565557E+00  2.04551068E+00
  2.06418967E+00  2.12486695E+00  2.15638573E+00  2.27484584E+00  2.30406953E+00
  2.37830316E+00  2.44965846E+00  2.51442828E+00  2.57326525E+00  2.58983393E+00
  2.61959206E+00  2.74795215E+00  2.85479519E+00  2.88634702E+00  2.91178415E+00
  3.06546837E+00  3.23518571E+00  4.16374992E+00  4.60818092E+00  4.72006397E+00
  4.93404865E+00
Alpha MO coefficients                      R   N=        5776
 -3.22870973E-05  1.46505173E-04 -1.78055743E-05  3.16918687E-04 -1.42051917E-04
  4.81484549E-04  2.29795373E-04  2.37771399E-05  2.92711585E-05 -4.35347743E-05
  5.95163503E-05 -5.02777391E-05  7.09924364E-06 -7.15082777E-06 -5.39010729E-05
  7.28096789E-06  7.98218396E-05 -3.50449152E-06  2.11364426E-05 -1.66433261E-05
 -4.61032734E-05 -8.51351540E-05 -2.73189342E-04  1.17990116E-04 -2.13910323E-05
 -3.26022826E-05 -3.73132252E-06 -3.68750201E-05  1.03920810E-05 -8.27836353E-06
  2.14713468E-07  4.56360359E-05  2.42377301E-05 -4.24821520E-05  5.55479050E-06
 -2.16529378E-04  5.82765636E-05 -7.18469512E-05 -1.11692422E-04 -1.79099837E-05
 -5.38168602E-05 -1.79428839E-05  2.62469784E-05  9.51902130E-07 -5.18029257E-06
  9.94664301E-01  2.11676286E-02  9.51736684E-04 -4.61903429E-04  7.25155452E-04
  3.74584641E-03 -5.07735285E-04  2.67452192E-04 -3.84979275E-04 -4.02532346E-03
 -4.15358606E-03 -3.91920175E-03 -8.62296432E-05 -8.63605640E-05  1.03066144E-04
 -5.35506228E-05 -9.90395003E-05 -1.65120244E-05 -1.63281602E-04  1.29820502E-05
 -7.71524876E-05  2.53530483E-06  3.87461937E-05  1.34884224E-05  2.57612351E-05
  4.24286565E-04 -2.14469020E-04  4.74973978E-05  1.16453175E-05  4.52019509E-05
 -2.30412126E-05  9.96022153E-01  2.77622010E-02  6.22061487E-05  5.66477809E-04
 -3.86072586E-04 -1.80829523E-02  1.23405454E-04  9.23312585E-04  1.45528044E-03
 -1.29477262E-03 -1.20709656E-03 -1.20752788E-03  2.93251664E-06  1.71309945E-05
 -3.25829617E-05  4.48795062E-03  8.04745098E-05  1.33074857E-04  1.20218767E-05
  2.75221845E-05  4.85204229E-03  2.06065081E-03  1.02497975E-03  4.37503013E-04
 -3.04275747E-04 -2.09103481E-04 -1.48992068E-04 -1.20251803E-04 -1.19898345E-04
 -7.91359185E-05  4.92836733E-03  8.21673130E-05 -1.27220860E-04  1.96388732E-05
  3.44520318E-05  4.86259466E-03 -1.83363373E-03  1.40404957E-03  3.98724195E-04
 -2.87233447E-04 -2.46954614E-04 -1.65584370E-04  1.27161208E-04  1.20541816E-04
 -1.01828945E-04 -1.93931528E-04 -1.12503901E-04  1.31175572E-05 -9.80575066E-05
  6.07073546E-05  3.06652106E-03 -1.66754791E-05 -5.51887436E-04  7.19661560E-06
 -1.67048455E-04 -7.67469109E-04 -2.04656643E-04 -5.19799310E-05  5.61428627E-06
  3.59130374E-04  2.28764921E-04  2.47317432E-03 -1.34200939E-04  6.68349181E-05
 -2.21562747E-04 -3.31910809E-05 -1.78893744E-04 -7.41277392E-05 -1.32638747E-04
  1.18660271E-04 -1.64991891E-05  1.80977311E-04 -2.07585020E-04  4.55986552E-06
 -1.69175910E-04 -2.73093772E-05 -5.21810010E-03  7.73402440E-05  5.74433443E-05
 -7.54574145E-05 -6.94643399E-06  2.67406858E-03  1.46696749E-03 -8.38234418E-04
 -1.15063504E-04 -3.30019079E-04 -2.53145740E-04 -1.24429723E-04  1.20963323E-04
  1.00373478E-04 -5.07159598E-05 -1.25386226E-03 -3.30486098E-04 -1.06657777E-04
  5.17703835E-05  3.26040139E-05  1.07415721E-03  6.14380838E-04 -2.35020816E-04
 -2.38235360E-04  1.37030773E-06 -8.09295640E-05 -9.00961967E-05  3.82068105E-07
 -9.54738245E-06  2.42890308E-05  9.95720591E-01  2.85343361E-02 -2.95918066E-05
  6.66852398E-06  3.00983151E-05 -1.48755290E-02  5.50717697E-04 -2.37158237E-04
 -1.29008347E-04 -1.85114600E-03 -1.82836847E-03 -1.84355725E-03  4.46004703E-06
  2.17482108E-05 -1.61033963E-05 -4.58481876E-05 -2.56622508E-04 -5.57026942E-05
  7.36261771E-05  3.82702290E-06  8.13176486E-04  1.55926884E-04 -2.34605680E-04
  3.37232627E-05 -1.08619357E-04 -7.78094510E-05 -2.21898955E-04 -6.34763005E-05
 -4.53639145E-05 -8.47698337E-06 -1.35198157E-04 -3.08932479E-05 -6.74488971E-05
 -2.77955072E-04  1.51261312E-04  2.62637956E-03  1.03477463E-04  2.48071670E-03
  1.25543126E-04  2.57455592E-03 -9.74057815E-05 -7.96657528E-05 -8.44464003E-05
 -3.47655435E-04 -1.17250601E-05  3.75323977E-04 -4.78463870E-03  1.16510493E-04
 -6.30898731E-05 -6.44022229E-05 -5.89188464E-06  2.72786640E-03 -1.50431690E-03
 -6.50123145E-04 -2.51407514E-05 -3.72195513E-04 -2.30162188E-04 -1.19998101E-04
 -9.45775213E-05 -1.20535009E-04 -1.29454757E-05  9.95726715E-01  2.85829901E-02
  1.54814553E-04 -3.42428244E-06  1.97929086E-05 -1.49631716E-02 -7.09676087E-04
 -2.29567041E-04 -7.88351276E-05 -1.83851194E-03 -1.81263485E-03 -1.83494262E-03
 -6.80949959E-06 -3.01322687E-05 -1.13814970E-05  1.12233541E-03 -2.72431666E-04
  1.17968443E-04  3.62339127E-05  3.48005665E-05  1.06302137E-03 -6.56501613E-04
 -1.55702538E-04 -2.90068681E-04 -6.49698750E-06 -9.01756772E-05 -9.79159455E-05
 -1.70574924E-05  1.75461940E-05  1.68232885E-05 -2.18102839E-05 -1.82372924E-04
  6.37687210E-05  7.38008029E-05  1.74796592E-05  4.08261985E-04 -2.86380505E-04
 -3.98393651E-04 -8.26486052E-05 -4.87267969E-05  1.55696421E-05 -1.44465951E-04
  1.00433243E-04  4.01979913E-05 -1.58387606E-05 -1.42831278E-04 -6.38182129E-05
  1.18676183E-04  2.52816724E-03 -9.35270035E-05 -3.68028203E-04  5.70103792E-07
  3.58141782E-04 -6.71466948E-05 -2.80277925E-04  7.15910638E-05  2.09224456E-04
  1.64597056E-04  2.66806980E-03  1.34850569E-04  2.44846621E-03 -7.20283598E-02
  1.35781871E-01  4.82903190E-03  8.28809751E-02 -3.50543857E-02  3.78519539E-02
  7.01722867E-03 -1.02152690E-03  8.31786882E-03 -5.42994992E-03  1.91366690E-02
 -1.11172039E-03  1.85054677E-03 -5.69118289E-04 -1.11326928E-02 -1.66374846E-02
  2.96686130E-02  1.86368118E-02  1.42680182E-02  3.69601047E-03  2.78931581E-02
  7.07550724E-03  6.44722792E-03  5.84909428E-04  4.00496677E-03  1.10954528E-03
  1.75280422E-05  3.09016148E-03  1.16230745E-03  1.01513009E-03 -1.65069700E-02
  3.07716376E-02 -1.55615574E-02  1.65790221E-02  3.98538660E-03  1.77346889E-02
 -4.28022419E-03  4.90389399E-03 -1.93164494E-03  3.19802561E-03  1.86142930E-03
  1.60330158E-04 -3.15522270E-03 -9.83011234E-04  1.19115308E-03 -2.00760895E-01
  4.50317576E-01  5.55974922E-02 -4.06718175E-02  4.64113796E-02  4.35747038E-01
  3.37365227E-02 -2.66207544E-02  2.85891822E-02  1.60336993E-02  1.50639260E-02
  3.15787656E-03  7.42414919E-03  8.45174633E-03 -3.79378102E-03  2.56275123E-02
  7.14577808E-04  4.47073240E-03 -4.56666191E-04  6.99414565E-03  5.11552729E-04
  6.79140821E-03  4.44950568E-03  4.84021794E-03  7.59722278E-05  1.17193437E-01
 -2.77684919E-03  6.57658554E-03  1.38367097E-03  6.56303560E-03  1.57984943E-03
 -1.20691658E-01  2.33331228E-01 -8.87145283E-03 -9.43177018E-02 -1.41436679E-02
  1.91689975E-01  1.94700211E-03 -2.37813024E-02  1.60926502E-03  1.31103617E-02
 -6.56082451E-03  3.29423041E-03 -2.18506961E-03  1.04173659E-03  7.51123730E-03
 -1.09412915E-01  2.04392979E-01  5.30876456E-02  1.23198397E-02  1.55591297E-02
  1.73712358E-01  5.95276472E-03 -5.24491564E-03  4.33291779E-03  9.02801594E-03
  3.10226687E-03  3.59188477E-03  2.18000157E-03  2.35919894E-03  5.67338698E-04
 -1.12599501E-01  2.09925531E-01 -4.82739117E-02  1.89377033E-02  1.60124139E-02
  1.78126409E-01 -4.72096772E-03 -2.19202591E-03  2.49224736E-03  8.28384055E-03
  4.40442881E-03  3.86162311E-03 -3.14252659E-03 -2.09168549E-03  8.82458906E-04
  6.05920555E-02 -1.35518612E-01 -4.14300367E-02 -8.26695671E-02  1.49774408E-03
 -1.73445732E-01 -2.34660698E-02 -3.67436440E-02 -1.05711681E-03 -8.73699440E-03
  6.05221470E-03  1.20148950E-04 -5.87942700E-03 -3.67926188E-03 -5.66138093E-03
  6.93975089E-02  9.88025337E-03  6.52309681E-02  9.25211797E-03  6.49132392E-02
  1.16646113E-02  6.07022266E-02  1.09867994E-02  6.80037824E-02  1.18158106E-02
 -6.64646075E-02 -9.83071726E-03  6.26394462E-02  1.17116237E-02  5.78907739E-02
  9.27867643E-03  5.45861306E-03 -1.10316178E-02  1.64503771E-01 -1.64932002E-02
  7.20836244E-04 -1.21656476E-02  3.99988546E-02  3.76585991E-04  3.28309976E-03
 -1.42732198E-03  1.26544657E-03 -2.31378573E-04 -1.30658033E-02 -1.02356862E-02
  1.43864280E-03  1.34939059E-01 -2.51421845E-01  1.16379684E-02 -1.00802911E-02
 -4.56255150E-03 -2.52013175E-01  7.29759827E-03  4.12898820E-03 -1.09480284E-03
 -3.03854001E-03 -7.37004937E-03 -7.01864368E-03  1.84409001E-03  1.56498993E-03
  4.10879525E-05 -1.39437705E-01  2.58011769E-01  2.17623570E-02  2.75714484E-03
  2.66636350E-03  2.70919985E-01  6.01995731E-03 -9.63047310E-04  1.04352471E-04
  3.51576117E-03  6.94244549E-03  7.19781879E-03  3.18027186E-03  2.01421912E-03
 -5.80052927E-04  3.13777076E-03 -7.60804524E-03  5.22815208E-02  1.22597873E-02
 -1.23800635E-03 -8.96936826E-03  2.43443025E-02  5.25951518E-03 -9.63774950E-04
  3.41992605E-03 -1.71626671E-03 -7.13443240E-04 -2.05820396E-03  2.34162840E-03
  8.89934182E-04 -3.28910282E-03 -2.77096253E-03 -9.01793076E-02 -2.15021527E-02
  9.40996631E-02  2.33615527E-02  1.05782723E-01  3.31322690E-02  9.51795851E-02
  2.53747145E-02  2.24537224E-02  6.10466537E-03 -8.99716075E-02 -2.30437881E-02
 -9.94971813E-02 -2.74954664E-02 -1.23644609E-01  2.44949103E-01  2.79315153E-03
  6.52638795E-02  9.54842097E-02  2.69998637E-01  1.34716198E-02  3.18141160E-03
  4.74083526E-02 -9.44481929E-03  7.03656180E-04  1.34808470E-02 -2.10747471E-03
  7.52376813E-04 -4.63236368E-03  7.95304224E-02 -1.45669187E-01  1.07864776E-01
  7.00488958E-02  6.19433396E-02 -1.83263205E-01  3.17139915E-02  2.25588741E-02
  2.17597580E-02  6.72529733E-03 -7.22661294E-03 -8.86651623E-03  8.82941208E-03
  8.08791499E-03  4.73739000E-03  6.33363520E-02 -1.14946564E-01 -8.97885181E-02
  7.40599577E-02  6.18125974E-02 -1.62048413E-01 -2.31268380E-02  1.89467720E-02
  1.70078267E-02  3.84827744E-03 -3.03746474E-03 -7.34295536E-03 -9.99976994E-03
 -6.58791339E-03  5.25957372E-03  3.14682304E-02 -7.24011292E-02 -8.45109092E-02
 -1.92537987E-01  7.83136359E-02 -1.05676232E-01 -5.05779350E-02 -1.12078182E-01
  4.30782868E-02 -1.48892080E-02  1.11204298E-02  3.38941554E-03 -9.41646137E-03
 -2.73215876E-03 -1.35143428E-02  1.46110849E-01  6.13763752E-02 -9.03921570E-02
 -4.54505868E-02 -8.31176842E-02 -3.91053211E-02 -6.40894456E-02 -3.08570961E-02
 -7.26323862E-02 -3.65254423E-02 -9.28288967E-02 -3.84523802E-02 -9.61059536E-02
 -4.24426931E-02 -7.36514551E-02 -3.30095895E-02 -1.40442454E-02  2.34765029E-02
  5.99341104E-02 -1.06673052E-01  2.41314747E-01  5.86979341E-02  4.34606085E-02
 -2.58443133E-02  1.00730140E-01  1.67394488E-03 -1.32337619E-02  1.21310983E-02
  5.50863325E-03 -3.11871715E-03  1.33779424E-02 -1.28918938E-02  1.75572393E-02
 -4.24849631E-02 -9.34288425E-02  9.20819470E-02  5.11543279E-02 -1.08524101E-02
 -3.33378221E-02  4.14846018E-02 -1.83379598E-03  6.58711891E-03 -2.75716748E-03
 -2.77930188E-03  2.10173261E-03 -3.26842834E-03  1.27288745E-02 -2.19534911E-02
 -1.09573649E-02 -8.01043817E-04  1.19844536E-01 -5.12774071E-02 -2.61235623E-03
 -5.71999716E-03  4.81924393E-02  2.14720845E-03  2.28645017E-03 -6.94137537E-03
  1.24932998E-03 -4.27841770E-03  1.56181308E-03  2.58338099E-02 -5.94358804E-02
  2.46531028E-01  2.54213443E-01  1.33722721E-01 -1.03837583E-01  1.51019515E-01
  1.53981566E-01  8.38062657E-02  2.24072561E-02 -1.56567580E-02  4.56612829E-03
  9.91695828E-03  1.62615647E-02  6.90292315E-03  1.42964870E-01  8.55979516E-02
  8.03906789E-02  5.32375628E-02 -7.86766999E-02 -4.87588407E-02  6.69819374E-03