cyclobutane                                                             
Freq      RMP2-FC                                                     6-31G(d)            
Number of atoms                            I               12
Info1-9                                    I   N=           9
          23          22        1002           0           0         100
           6           2           1
Charge                                     I                0
Multiplicity                               I                1
Number of electrons                        I               32
Number of alpha electrons                  I               16
Number of beta electrons                   I               16
Number of basis functions                  I               76
Number of independent functions            I               76
Number of point charges in /Mol/           I                0
Number of translation vectors              I                0
Atomic numbers                             I   N=          12
           6           6           6           6           1           1
           1           1           1           1           1           1
Nuclear charges                            R   N=          12
  6.00000000E+00  6.00000000E+00  6.00000000E+00  6.00000000E+00  1.00000000E+00
  1.00000000E+00  1.00000000E+00  1.00000000E+00  1.00000000E+00  1.00000000E+00
  1.00000000E+00  1.00000000E+00
Current cartesian coordinates              R   N=          36
  1.45201234E+00  1.41374667E+00 -2.78771905E-01 -1.41376624E+00  1.45200082E+00
  2.78732369E-01  1.41373545E+00 -1.45199279E+00  2.78931891E-01 -1.45198153E+00
 -1.41375478E+00 -2.78892382E-01  1.82200335E+00  1.77385358E+00 -2.28160533E+00
  2.69115985E+00  2.62033228E+00  8.53317405E-01 -1.77401451E+00  1.82190851E+00
  2.28155577E+00 -2.62027259E+00  2.69119485E+00 -8.53390523E-01  2.62036747E+00
 -2.69121969E+00 -8.53020943E-01  1.77376045E+00 -1.82184203E+00  2.28180619E+00
 -2.69125480E+00 -2.62030753E+00  8.53094196E-01 -1.82174930E+00 -1.77391949E+00
 -2.28175660E+00
Force Field                                I                0
Int Atom Types                             I   N=          12
           0           0           0           0           0           0
           0           0           0           0           0           0
MM charges                                 R   N=          12
  0.00000000E+00  0.00000000E+00  0.00000000E+00  0.00000000E+00  0.00000000E+00
  0.00000000E+00  0.00000000E+00  0.00000000E+00  0.00000000E+00  0.00000000E+00
  0.00000000E+00  0.00000000E+00
Integer atomic weights                     I   N=          12
          12          12          12          12           1           1
           1           1           1           1           1           1
Real atomic weights                        R   N=          12
  1.20000000E+01  1.20000000E+01  1.20000000E+01  1.20000000E+01  1.00782504E+00
  1.00782504E+00  1.00782504E+00  1.00782504E+00  1.00782504E+00  1.00782504E+00
  1.00782504E+00  1.00782504E+00
Atom fragment info                         I   N=          12
           0           0           0           0           0           0
           0           0           0           0           0           0
Atom residue num                           I   N=          12
           0           0           0           0           0           0
           0           0           0           0           0           0
Nuclear spins                              I   N=          12
           0           0           0           0           1           1
           1           1           1           1           1           1
Nuclear ZEff                               R   N=          12
 -3.60000000E+00 -3.60000000E+00 -3.60000000E+00 -3.60000000E+00 -1.00000000E+00
 -1.00000000E+00 -1.00000000E+00 -1.00000000E+00 -1.00000000E+00 -1.00000000E+00
 -1.00000000E+00 -1.00000000E+00
Nuclear QMom                               R   N=          12
  0.00000000E+00  0.00000000E+00  0.00000000E+00  0.00000000E+00  0.00000000E+00
  0.00000000E+00  0.00000000E+00  0.00000000E+00  0.00000000E+00  0.00000000E+00
  0.00000000E+00  0.00000000E+00
Nuclear GFac                               R   N=          12
  0.00000000E+00  0.00000000E+00  0.00000000E+00  0.00000000E+00  2.79284600E+00
  2.79284600E+00  2.79284600E+00  2.79284600E+00  2.79284600E+00  2.79284600E+00
  2.79284600E+00  2.79284600E+00
MicOpt                                     I   N=          12
          -1          -1          -1          -1          -1          -1
          -1          -1          -1          -1          -1          -1
Number of contracted shells                I               32
Number of primitive shells                 I               76
Pure/Cartesian d shells                    I                1
Pure/Cartesian f shells                    I                0
Highest angular momentum                   I                2
Largest degree of contraction              I                6
Shell types                                I   N=          32
           0          -1          -1           2           0          -1
          -1           2           0          -1          -1           2
           0          -1          -1           2           0           0
           0           0           0           0           0           0
           0           0           0           0           0           0
           0           0
Number of primitives per shell             I   N=          32
           6           3           1           1           6           3
           1           1           6           3           1           1
           6           3           1           1           3           1
           3           1           3           1           3           1
           3           1           3           1           3           1
           3           1
Shell to atom map                          I   N=          32
           1           1           1           1           2           2
           2           2           3           3           3           3
           4           4           4           4           5           5
           6           6           7           7           8           8
           9           9          10          10          11          11
          12          12
Primitive exponents                        R   N=          76
  3.04752488E+03  4.57369518E+02  1.03948685E+02  2.92101553E+01  9.28666296E+00
  3.16392696E+00  7.86827235E+00  1.88128854E+00  5.44249258E-01  1.68714478E-01
  8.00000000E-01  3.04752488E+03  4.57369518E+02  1.03948685E+02  2.92101553E+01
  9.28666296E+00  3.16392696E+00  7.86827235E+00  1.88128854E+00  5.44249258E-01
  1.68714478E-01  8.00000000E-01  3.04752488E+03  4.57369518E+02  1.03948685E+02
  2.92101553E+01  9.28666296E+00  3.16392696E+00  7.86827235E+00  1.88128854E+00
  5.44249258E-01  1.68714478E-01  8.00000000E-01  3.04752488E+03  4.57369518E+02
  1.03948685E+02  2.92101553E+01  9.28666296E+00  3.16392696E+00  7.86827235E+00
  1.88128854E+00  5.44249258E-01  1.68714478E-01  8.00000000E-01  1.87311370E+01
  2.82539436E+00  6.40121692E-01  1.61277759E-01  1.87311370E+01  2.82539436E+00
  6.40121692E-01  1.61277759E-01  1.87311370E+01  2.82539436E+00  6.40121692E-01
  1.61277759E-01  1.87311370E+01  2.82539436E+00  6.40121692E-01  1.61277759E-01
  1.87311370E+01  2.82539436E+00  6.40121692E-01  1.61277759E-01  1.87311370E+01
  2.82539436E+00  6.40121692E-01  1.61277759E-01  1.87311370E+01  2.82539436E+00
  6.40121692E-01  1.61277759E-01  1.87311370E+01  2.82539436E+00  6.40121692E-01
  1.61277759E-01
Contraction coefficients                   R   N=          76
  1.83473713E-03  1.40373228E-02  6.88426223E-02  2.32184443E-01  4.67941348E-01
  3.62311985E-01 -1.19332420E-01 -1.60854152E-01  1.14345644E+00  1.00000000E+00
  1.00000000E+00  1.83473713E-03  1.40373228E-02  6.88426223E-02  2.32184443E-01
  4.67941348E-01  3.62311985E-01 -1.19332420E-01 -1.60854152E-01  1.14345644E+00
  1.00000000E+00  1.00000000E+00  1.83473713E-03  1.40373228E-02  6.88426223E-02
  2.32184443E-01  4.67941348E-01  3.62311985E-01 -1.19332420E-01 -1.60854152E-01
  1.14345644E+00  1.00000000E+00  1.00000000E+00  1.83473713E-03  1.40373228E-02
  6.88426223E-02  2.32184443E-01  4.67941348E-01  3.62311985E-01 -1.19332420E-01
 -1.60854152E-01  1.14345644E+00  1.00000000E+00  1.00000000E+00  3.34946043E-02
  2.34726953E-01  8.13757326E-01  1.00000000E+00  3.34946043E-02  2.34726953E-01
  8.13757326E-01  1.00000000E+00  3.34946043E-02  2.34726953E-01  8.13757326E-01
  1.00000000E+00  3.34946043E-02  2.34726953E-01  8.13757326E-01  1.00000000E+00
  3.34946043E-02  2.34726953E-01  8.13757326E-01  1.00000000E+00  3.34946043E-02
  2.34726953E-01  8.13757326E-01  1.00000000E+00  3.34946043E-02  2.34726953E-01
  8.13757326E-01  1.00000000E+00  3.34946043E-02  2.34726953E-01  8.13757326E-01
  1.00000000E+00
P(S=P) Contraction coefficients            R   N=          76
  0.00000000E+00  0.00000000E+00  0.00000000E+00  0.00000000E+00  0.00000000E+00
  0.00000000E+00  6.89990666E-02  3.16423961E-01  7.44308291E-01  1.00000000E+00
  0.00000000E+00  0.00000000E+00  0.00000000E+00  0.00000000E+00  0.00000000E+00
  0.00000000E+00  0.00000000E+00  6.89990666E-02  3.16423961E-01  7.44308291E-01
  1.00000000E+00  0.00000000E+00  0.00000000E+00  0.00000000E+00  0.00000000E+00
  0.00000000E+00  0.00000000E+00  0.00000000E+00  6.89990666E-02  3.16423961E-01
  7.44308291E-01  1.00000000E+00  0.00000000E+00  0.00000000E+00  0.00000000E+00
  0.00000000E+00  0.00000000E+00  0.00000000E+00  0.00000000E+00  6.89990666E-02
  3.16423961E-01  7.44308291E-01  1.00000000E+00  0.00000000E+00  0.00000000E+00
  0.00000000E+00  0.00000000E+00  0.00000000E+00  0.00000000E+00  0.00000000E+00
  0.00000000E+00  0.00000000E+00  0.00000000E+00  0.00000000E+00  0.00000000E+00
  0.00000000E+00  0.00000000E+00  0.00000000E+00  0.00000000E+00  0.00000000E+00
  0.00000000E+00  0.00000000E+00  0.00000000E+00  0.00000000E+00  0.00000000E+00
  0.00000000E+00  0.00000000E+00  0.00000000E+00  0.00000000E+00  0.00000000E+00
  0.00000000E+00  0.00000000E+00  0.00000000E+00  0.00000000E+00  0.00000000E+00
  0.00000000E+00
Coordinates of each shell                  R   N=          96
  1.45201234E+00  1.41374667E+00 -2.78771905E-01  1.45201234E+00  1.41374667E+00
 -2.78771905E-01  1.45201234E+00  1.41374667E+00 -2.78771905E-01  1.45201234E+00
  1.41374667E+00 -2.78771905E-01 -1.41376624E+00  1.45200082E+00  2.78732369E-01
 -1.41376624E+00  1.45200082E+00  2.78732369E-01 -1.41376624E+00  1.45200082E+00
  2.78732369E-01 -1.41376624E+00  1.45200082E+00  2.78732369E-01  1.41373545E+00
 -1.45199279E+00  2.78931891E-01  1.41373545E+00 -1.45199279E+00  2.78931891E-01
  1.41373545E+00 -1.45199279E+00  2.78931891E-01  1.41373545E+00 -1.45199279E+00
  2.78931891E-01 -1.45198153E+00 -1.41375478E+00 -2.78892382E-01 -1.45198153E+00
 -1.41375478E+00 -2.78892382E-01 -1.45198153E+00 -1.41375478E+00 -2.78892382E-01
 -1.45198153E+00 -1.41375478E+00 -2.78892382E-01  1.82200335E+00  1.77385358E+00
 -2.28160533E+00  1.82200335E+00  1.77385358E+00 -2.28160533E+00  2.69115985E+00
  2.62033228E+00  8.53317405E-01  2.69115985E+00  2.62033228E+00  8.53317405E-01
 -1.77401451E+00  1.82190851E+00  2.28155577E+00 -1.77401451E+00  1.82190851E+00
  2.28155577E+00 -2.62027259E+00  2.69119485E+00 -8.53390523E-01 -2.62027259E+00
  2.69119485E+00 -8.53390523E-01  2.62036747E+00 -2.69121969E+00 -8.53020943E-01
  2.62036747E+00 -2.69121969E+00 -8.53020943E-01  1.77376045E+00 -1.82184203E+00
  2.28180619E+00  1.77376045E+00 -1.82184203E+00  2.28180619E+00 -2.69125480E+00
 -2.62030753E+00  8.53094196E-01 -2.69125480E+00 -2.62030753E+00  8.53094196E-01
 -1.82174930E+00 -1.77391949E+00 -2.28175660E+00 -1.82174930E+00 -1.77391949E+00
 -2.28175660E+00
Constraint Structure                       R   N=          36
  1.45201234E+00  1.41374667E+00 -2.78771905E-01 -1.41376624E+00  1.45200082E+00
  2.78732369E-01  1.41373545E+00 -1.45199279E+00  2.78931891E-01 -1.45198153E+00
 -1.41375478E+00 -2.78892382E-01  1.82200335E+00  1.77385358E+00 -2.28160533E+00
  2.69115985E+00  2.62033228E+00  8.53317405E-01 -1.77401451E+00  1.82190851E+00
  2.28155577E+00 -2.62027259E+00  2.69119485E+00 -8.53390523E-01  2.62036747E+00
 -2.69121969E+00 -8.53020943E-01  1.77376045E+00 -1.82184203E+00  2.28180619E+00
 -2.69125480E+00 -2.62030753E+00  8.53094196E-01 -1.82174930E+00 -1.77391949E+00
 -2.28175660E+00
Num ILSW                                   I              100
ILSW                                       I   N=         100
           0           1           0           0           2           0
           0           0           0           0           0          -1
           0           0           0           0           0           0
           0           0           0           0           1           0
           1           0           0           0           0           0
           0           0      100000           0          -1           0
           0           0           0           0           0           0
           0           0           0           1           1           0
           0           0           1           0           0           0
           0           0           4          40           0           0
           0           0           0           0           0           0
           0           0           0           0           0           0
           0           0           0           0           0           0
           0           0           0           0           0           0
           0           0           0           0           0           0
           0           0           0           0           0           0
           0           0           0           0
Num RLSW                                   I               40
RLSW                                       R   N=          40
  1.00000000E+00  1.00000000E+00  1.00000000E+00  1.00000000E+00  1.00000000E+00
  0.00000000E+00  0.00000000E+00  1.00000000E+00  0.00000000E+00  0.00000000E+00
  0.00000000E+00  0.00000000E+00  1.00000000E+00  0.00000000E+00  0.00000000E+00
  0.00000000E+00  0.00000000E+00  1.00000000E+00  0.00000000E+00  0.00000000E+00
  0.00000000E+00  0.00000000E+00  1.00000000E+00  0.00000000E+00  0.00000000E+00
  0.00000000E+00  0.00000000E+00  1.00000000E+00  0.00000000E+00  0.00000000E+00
  0.00000000E+00  0.00000000E+00  0.00000000E+00  0.00000000E+00  0.00000000E+00
  0.00000000E+00  0.00000000E+00  0.00000000E+00  1.00000000E+00  1.00000000E+00
MxBond                                     I                4
NBond                                      I   N=          12
           4           4           4           4           1           1
           1           1           1           1           1           1
IBond                                      I   N=          48
           2           3           5           6           1           4
           7           8           1           4           9          10
           2           3          11          12           1           0
           0           0           1           0           0           0
           2           0           0           0           2           0
           0           0           3           0           0           0
           3           0           0           0           4           0
           0           0           4           0           0           0
RBond                                      R   N=          48
  1.00000000E+00  1.00000000E+00  1.00000000E+00  1.00000000E+00  1.00000000E+00
  1.00000000E+00  1.00000000E+00  1.00000000E+00  1.00000000E+00  1.00000000E+00
  1.00000000E+00  1.00000000E+00  1.00000000E+00  1.00000000E+00  1.00000000E+00
  1.00000000E+00  1.00000000E+00  0.00000000E+00  0.00000000E+00  0.00000000E+00
  1.00000000E+00  0.00000000E+00  0.00000000E+00  0.00000000E+00  1.00000000E+00
  0.00000000E+00  0.00000000E+00  0.00000000E+00  1.00000000E+00  0.00000000E+00
  0.00000000E+00  0.00000000E+00  1.00000000E+00  0.00000000E+00  0.00000000E+00
  0.00000000E+00  1.00000000E+00  0.00000000E+00  0.00000000E+00  0.00000000E+00
  1.00000000E+00  0.00000000E+00  0.00000000E+00  0.00000000E+00  1.00000000E+00
  0.00000000E+00  0.00000000E+00  0.00000000E+00
Virial Ratio                               R      2.000942438713584E+00
SCF Energy                                 R     -1.560964179995886E+02
MP2 Energy                                 R     -1.566179906495637E+02
Total Energy                               R     -1.566179906495637E+02
Post-SCF wavefunction norm                 R      1.533707381260726E+00
RMS Force                                  R      4.097885149232411E-07
RMS Density                                R      5.892663816288556E-10
External E-field                           R   N=          35
  0.00000000E+00  0.00000000E+00  0.00000000E+00  0.00000000E+00  0.00000000E+00
  0.00000000E+00  0.00000000E+00  0.00000000E+00  0.00000000E+00  0.00000000E+00
  0.00000000E+00  0.00000000E+00  0.00000000E+00  0.00000000E+00  0.00000000E+00
  0.00000000E+00  0.00000000E+00  0.00000000E+00  0.00000000E+00  0.00000000E+00
  0.00000000E+00  0.00000000E+00  0.00000000E+00  0.00000000E+00  0.00000000E+00
  0.00000000E+00  0.00000000E+00  0.00000000E+00  0.00000000E+00  0.00000000E+00
  0.00000000E+00  0.00000000E+00  0.00000000E+00  0.00000000E+00  0.00000000E+00
IOpCl                                      I                0
IROHF                                      I                0
Alpha Orbital Energies                     R   N=          76
 -1.12168804E+01 -1.12163320E+01 -1.12163320E+01 -1.12157848E+01 -1.12524357E+00
 -8.89179453E-01 -8.89179373E-01 -7.49010485E-01 -6.45262713E-01 -6.40232737E-01
 -5.32352826E-01 -5.32352746E-01 -4.81231290E-01 -4.50995158E-01 -4.35355377E-01
 -4.35355344E-01  2.36307633E-01  2.49268843E-01  2.89269129E-01  2.89269195E-01
  3.27489469E-01  3.52015695E-01  3.52015705E-01  3.69748642E-01  3.69748660E-01
  3.81093071E-01  4.25850487E-01  4.92348416E-01  7.12510029E-01  7.36889398E-01
  7.50200247E-01  7.50200454E-01  7.58417457E-01  8.92596359E-01  8.92596414E-01
  9.77058002E-01  9.88920642E-01  1.00054786E+00  1.05041968E+00  1.05041977E+00
  1.14047811E+00  1.14047818E+00  1.15539527E+00  1.16925248E+00  1.22283540E+00
  1.22363390E+00  1.22363396E+00  1.22557568E+00  1.34628332E+00  1.54752746E+00
  1.54752764E+00  1.68268899E+00  1.88083005E+00  1.92083889E+00  2.03274099E+00
  2.16470686E+00  2.16470729E+00  2.30418655E+00  2.30418671E+00  2.35709355E+00
  2.38577375E+00  2.41404597E+00  2.45151170E+00  2.45151184E+00  2.67580962E+00
  2.67580968E+00  2.75778026E+00  2.87073786E+00  2.87440733E+00  2.87440747E+00
  2.92329591E+00  3.19343913E+00  4.54278628E+00  4.76057718E+00  4.76057722E+00
  5.07194864E+00
Alpha MO coefficients                      R   N=        5776
  4.97774241E-01  1.42117075E-02 -1.56901389E-04 -1.52769145E-04 -3.54457998E-05
 -4.18738354E-03 -8.55918159E-05 -8.32749407E-05  4.71591398E-04 -1.15682611E-03
 -1.16011455E-03 -8.83982717E-04  7.14848777E-05  1.01149970E-04  9.85118749E-05
  4.97784674E-01  1.42120056E-02  1.52769245E-04 -1.56904324E-04  3.54509065E-05
 -4.18755296E-03  8.33044252E-05 -8.55461900E-05 -4.71595039E-04 -1.16014603E-03
 -1.15683491E-03 -8.83994409E-04 -7.14820627E-05  9.84867805E-05 -1.01167912E-04
  4.97768657E-01  1.42115478E-02 -1.52770845E-04  1.56901620E-04  3.54280771E-05
 -4.18729536E-03 -8.32827823E-05  8.55468965E-05 -4.71597622E-04 -1.16010112E-03
 -1.15680083E-03 -8.83993042E-04 -7.14957444E-05 -9.85202650E-05  1.01168865E-04
  4.97778853E-01  1.42118392E-02  1.56904348E-04  1.52771050E-04 -3.54331397E-05
 -4.18745793E-03  8.55029571E-05  8.33124226E-05  4.71601478E-04 -1.15680961E-03
 -1.16013228E-03 -8.84004421E-04  7.14928245E-05 -1.01186701E-04 -9.84952627E-05
 -8.90025919E-05  1.41924918E-03 -1.67770194E-04  9.92859670E-04 -8.89997147E-05
  1.41927992E-03 -1.67769634E-04  9.92878855E-04 -1.67770527E-04  9.92849461E-04
 -8.90040415E-05  1.41923307E-03 -1.67770064E-04  9.92868002E-04 -8.90013639E-05
  1.41926314E-03  2.93696298E-01  8.39324939E-03  2.18300595E-05 -1.37921467E-04
 -2.30566802E-05 -4.72375889E-03  1.59954207E-03 -8.02694321E-04  1.71590375E-04
 -3.03578111E-04 -7.04273225E-04 -4.64530463E-04  5.32131249E-07 -1.80454411E-05
  2.38029822E-05 -6.40010137E-01 -1.82902045E-02 -8.49893074E-05  1.62308333E-04
 -5.02588263E-05  1.02938972E-02  1.44690633E-03 -3.73766487E-04  3.73793035E-04
  1.00660249E-03  1.18965460E-03  1.01227736E-03  1.74379261E-05  4.17733360E-06
  1.52086281E-05  6.40013270E-01  1.82902963E-02 -8.49968503E-05  1.62311928E-04
  5.02452949E-05 -1.02937633E-02  1.44691974E-03 -3.73748569E-04 -3.73644275E-04
 -1.00662370E-03 -1.18967395E-03 -1.01228706E-03 -1.74375902E-05  4.17573484E-06
  1.52154894E-05 -2.93676130E-01 -8.39267598E-03  2.18329789E-05 -1.37915719E-04
  2.30621033E-05  4.72342928E-03  1.59953574E-03 -8.02723612E-04 -1.71390216E-04
  3.03547859E-04  7.04240146E-04  4.64494178E-04 -5.29991823E-07 -1.80679861E-05
  2.37929794E-05  7.85636403E-05  8.64153763E-04  1.44626135E-05  5.38497907E-04
 -1.71209292E-04 -1.88313071E-03 -3.15212330E-05 -1.17346205E-03  3.15131338E-05
  1.17345929E-03  1.71202255E-04  1.88314257E-03 -1.44624759E-05 -5.38448746E-04
 -7.85608118E-05 -8.64099352E-04 -6.40006918E-01 -1.82901150E-02  1.62306164E-04
  8.49929667E-05  5.02597274E-05  1.02937172E-02 -3.73723028E-04 -1.44690683E-03
 -3.73723259E-04  1.18966061E-03  1.00660791E-03  1.01227419E-03 -1.74364079E-05
 -1.52003208E-05  4.17569699E-06 -2.93689241E-01 -8.39304823E-03 -1.37917558E-04
 -2.18313184E-05 -2.30670134E-05  4.72369558E-03 -8.02706465E-04 -1.59954995E-03
  1.71463269E-04  7.04260216E-04  3.03563580E-04  4.64513913E-04  5.33219787E-07
 -2.37822212E-05 -1.80543652E-05  2.93683187E-01  8.39287747E-03 -1.37919541E-04
 -2.18315005E-05  2.30521561E-05 -4.72349666E-03 -8.02711797E-04 -1.59952920E-03
 -1.71518751E-04 -7.04253262E-04 -3.03562274E-04 -4.64510781E-04 -5.28957151E-07
 -2.38137122E-05 -1.80590634E-05  6.40016490E-01  1.82903859E-02  1.62313802E-04
  8.49935167E-05 -5.02445213E-05 -1.02939451E-02 -3.73790286E-04 -1.44692107E-03
  3.73714399E-04 -1.18966818E-03 -1.00661807E-03 -1.01229023E-03  1.74391375E-05
 -1.52237360E-05  4.17735796E-06 -1.71203626E-04 -1.88312455E-03 -3.15156757E-05
 -1.17344728E-03 -7.85647994E-05 -8.64134498E-04 -1.44646500E-05 -5.38483516E-04
  1.44602028E-05  5.38463179E-04  7.85598402E-05  8.64119723E-04  3.15186333E-05
  1.17347428E-03  1.71207947E-04  1.88314909E-03 -4.98092649E-01 -1.40786177E-02
  9.03203434E-05  8.79404108E-05  1.49467088E-05  1.35775801E-02 -1.61191923E-03
 -1.56944273E-03  7.03937424E-04  4.00933054E-04  4.10644054E-04  6.31542220E-04
 -2.10056760E-04  2.25005497E-05  2.19118649E-05  4.98082247E-01  1.40783204E-02
  8.79380040E-05 -9.03183106E-05  1.49483859E-05 -1.35774139E-02 -1.56946616E-03
  1.61188711E-03  7.03899360E-04 -4.10624913E-04 -4.00915217E-04 -6.31526799E-04
 -2.10057148E-04 -2.19025252E-05  2.24970509E-05  4.98097798E-01  1.40787648E-02
 -8.79431005E-05  9.03211524E-05  1.49372361E-05 -1.35776631E-02  1.56940062E-03
 -1.61189823E-03  7.04111833E-04 -4.10657682E-04 -4.00941404E-04 -6.31545898E-04
 -2.10054345E-04  2.19365892E-05 -2.25281471E-05 -4.98087632E-01 -1.40784742E-02
 -9.03188758E-05 -8.79410507E-05  1.49388848E-05  1.35774989E-02  1.61186303E-03
  1.56942702E-03  7.04073915E-04  4.00924180E-04  4.10639055E-04  6.31530899E-04
 -2.10054751E-04 -2.25245047E-05 -2.19273261E-05 -2.92912568E-04 -1.25032960E-03
 -2.37814105E-04 -1.51295515E-03  2.92909879E-04  1.25029915E-03  2.37813589E-04
  1.51293595E-03  2.37814303E-04  1.51296440E-03  2.92913990E-04  1.25034496E-03
 -2.37813768E-04 -1.51294581E-03 -2.92911217E-04 -1.25031505E-03 -1.04773586E-01
  1.92850591E-01 -5.64580372E-02 -5.49700648E-02  1.24194153E-02  1.43762727E-01
 -9.36791278E-03 -9.12123318E-03 -1.01513966E-03  7.94312879E-03  7.66556010E-03
 -1.02885645E-04  5.99740492E-03 -2.06780145E-03 -2.01354692E-03 -1.04773591E-01
  1.92850602E-01  5.49709283E-02 -5.64575384E-02 -1.24178770E-02  1.43762738E-01
  9.12115782E-03 -9.36796101E-03  1.01539569E-03  7.66580717E-03  7.94297921E-03
 -1.02983117E-04 -5.99746719E-03 -2.01316745E-03  2.06775902E-03 -1.04773560E-01
  1.92850540E-01 -5.49695230E-02  5.64571801E-02 -1.24256255E-02  1.43762703E-01
 -9.12127561E-03  9.36799500E-03  1.01411189E-03  7.66541519E-03  7.94287715E-03
 -1.02488073E-04 -5.99717998E-03  2.01433740E-03 -2.06869531E-03 -1.04773566E-01
  1.92850550E-01  5.64566263E-02  5.49704418E-02  1.24240907E-02  1.43762710E-01
  9.36803015E-03  9.12121011E-03 -1.01436575E-03  7.94272509E-03  7.66566468E-03
 -1.02585710E-04  5.99724234E-03  2.06865862E-03  2.01395233E-03  5.00267802E-02
  4.30137193E-03  4.19496702E-02  5.29636908E-03  5.00267852E-02  4.30137227E-03
  4.19496713E-02  5.29636992E-03  4.19496610E-02  5.29637078E-03  5.00267775E-02
  4.30136891E-03  4.19496638E-02  5.29637083E-03  5.00267796E-02  4.30136933E-03
 -9.83586334E-02  1.84366464E-01  8.42633545E-02 -4.24891590E-02 -4.22237951E-03
  2.00919806E-01  1.70171944E-02 -1.09239858E-02 -1.59523674E-03 -9.00424348E-03
  1.14188555E-02  7.87330335E-03  3.45572703E-03  3.36524261E-03 -1.10300693E-03
  9.69199903E-02 -1.81669827E-01  8.60026058E-02  4.14711556E-02 -4.16167190E-03
 -1.97981053E-01  1.74655068E-02  1.07177966E-02 -1.57217893E-03  9.31862785E-03
 -1.16979669E-02 -7.75809928E-03  2.77097411E-03 -3.41018412E-03 -1.06240043E-03
 -9.69200022E-02  1.81669854E-01  8.60021068E-02  4.14712774E-02  4.17003576E-03
  1.97981052E-01  1.74653253E-02  1.07178438E-02  1.57381523E-03 -9.31797203E-03
  1.16979129E-02  7.75749819E-03 -2.77095656E-03 -3.41229917E-03 -1.06283827E-03
  9.83586360E-02 -1.84366474E-01  8.42628670E-02 -4.24890485E-02  4.23299340E-03
 -2.00919788E-01  1.70170165E-02 -1.09239427E-02  1.59745071E-03  9.00359807E-03
 -1.14189104E-02 -7.87260116E-03 -3.45550735E-03  3.36751308E-03 -1.10326921E-03
  7.60792242E-02  2.55712865E-02  8.17939788E-02  2.92962132E-02 -7.49664540E-02
 -2.51972683E-02 -8.05976194E-02 -2.88677129E-02  8.05976219E-02  2.88677157E-02
  7.49664590E-02  2.51972685E-02 -8.17939760E-02 -2.92962141E-02 -7.60792255E-02
 -2.55712864E-02 -9.69199866E-02  1.81669827E-01 -4.14709573E-02  8.60023156E-02
 -4.16941129E-03  1.97981061E-01 -1.07177193E-02  1.74653995E-02 -1.57384764E-03
  1.16980453E-02 -9.31821738E-03  7.75760989E-03  2.77076179E-03 -1.06241223E-03
  3.41168784E-03 -9.83586246E-02  1.84366455E-01  4.24888406E-02  8.42631944E-02
  4.22883229E-03  2.00919808E-01  1.09238616E-02  1.70171338E-02  1.59670766E-03
  1.14189928E-02 -9.00400874E-03  7.87292924E-03 -3.45544788E-03 -1.10286587E-03
 -3.36629319E-03  9.83586414E-02 -1.84366480E-01  4.24892835E-02  8.42630392E-02
 -4.22655574E-03 -2.00919842E-01  1.09240436E-02  1.70170774E-02 -1.59598601E-03
 -1.14187772E-02  9.00383517E-03 -7.87297660E-03  3.45579092E-03 -1.10341816E-03
 -3.36647658E-03  9.69200024E-02 -1.81669851E-01 -4.14713910E-02  8.60024071E-02
  4.16230332E-03 -1.97981100E-01 -1.07178977E-02  1.74654331E-02  1.57214734E-03
 -1.16978381E-02  9.31838547E-03 -7.75798980E-03 -2.77117278E-03 -1.06283472E-03
  3.41080887E-03  7.49664422E-02  2.51972709E-02  8.05976293E-02  2.88677229E-02
  7.60792099E-02  2.55712882E-02  8.17939864E-02  2.92962237E-02 -8.17940036E-02
 -2.92962303E-02 -7.60792252E-02 -2.55712924E-02 -8.05976467E-02 -2.88677309E-02
 -7.49664558E-02 -2.51972749E-02 -7.88371813E-02  1.46405765E-01  7.09050368E-02
  6.90312031E-02 -8.95694479E-02  2.03429997E-01  2.11259606E-02  2.05669752E-02
 -3.63967246E-02 -4.11087773E-03 -4.53670690E-03  1.38269933E-02  9.21871169E-03
  3.76719977E-03  3.67005271E-03  7.88371800E-02 -1.46405763E-01  6.90375105E-02
 -7.09013317E-02 -8.95675255E-02 -2.03429997E-01  2.05695514E-02 -2.11244416E-02
 -3.63961527E-02  4.53714771E-03  4.11061471E-03 -1.38271707E-02  9.21859885E-03
 -3.66817670E-03  3.76870856E-03  7.88371835E-02 -1.46405773E-01 -6.90275216E-02
  7.08987224E-02 -8.95772496E-02 -2.03429984E-01 -2.05654920E-02  2.11233741E-02
 -3.63990481E-02  4.53644323E-03  4.11042581E-03 -1.38262763E-02  9.21912187E-03
  3.67027140E-03 -3.76828784E-03 -7.88371843E-02  1.46405775E-01 -7.08950551E-02
 -6.90337984E-02 -8.95753252E-02  2.03429989E-01 -2.11219052E-02 -2.05680213E-02
 -3.63984756E-02 -4.11015393E-03 -4.53689290E-03  1.38264543E-02  9.21900820E-03
 -3.76977488E-03 -3.66841573E-03  1.23284179E-01  5.97888989E-02  8.36332745E-02
  4.30145984E-02 -1.23284179E-01 -5.97888992E-02 -8.36332766E-02 -4.30146001E-02
 -8.36332749E-02 -4.30146016E-02 -1.23284169E-01 -5.97888958E-02  8.36332754E-02
  4.30146024E-02  1.23284174E-01  5.97888977E-02 -2.25889055E-02  4.28935566E-02
  6.84115150E-02  6.66225688E-02  1.89766307E-01  5.21769104E-02  3.56441447E-02
  3.47111472E-02  8.55871312E-02  2.08598449E-03  1.68147212E-03 -3.20096729E-03
  8.75886339E-03  4.16691651E-03  4.05734926E-03  2.25889094E-02 -4.28935650E-02
  6.66092863E-02 -6.84193651E-02  1.89768174E-01 -5.21769224E-02  3.47051559E-02
 -3.56476861E-02  8.55881078E-02 -1.68097958E-03 -2.08628196E-03  3.20077073E-03
  8.75873819E-03 -4.05739406E-03  4.16727228E-03  2.25889125E-02 -4.28935751E-02
 -6.66304132E-02  6.84249127E-02  1.89758795E-01 -5.21769201E-02 -3.47146865E-02
  3.56501840E-02  8.55832196E-02 -1.68176183E-03 -2.08649242E-03  3.20176353E-03
  8.75932074E-03  4.05651376E-03 -4.16612425E-03 -2.25889089E-02  4.28935676E-02
 -6.84326394E-02 -6.66170950E-02  1.89760672E-01  5.21769085E-02 -3.56536775E-02
 -3.47086757E-02  8.55841969E-02  2.08679004E-03  1.68126912E-03 -3.20157023E-03
  8.75919563E-03 -4.16649430E-03 -4.05654041E-03 -7.39829048E-02 -5.22596202E-02
  1.27370069E-01  8.17594210E-02  7.39829016E-02  5.22596155E-02 -1.27370098E-01