opt=Tight                                                               
Freq      RMP2-FC                                                     6-31G(d)            
Number of atoms                            I               12
Info1-9                                    I   N=           9
          21          21        1002           0           0         100
           6           2           1
Charge                                     I                0
Multiplicity                               I                1
Number of electrons                        I               40
Number of alpha electrons                  I               20
Number of beta electrons                   I               20
Number of basis functions                  I               89
Number of independent functions            I               89
Number of point charges in /Mol/           I                0
Number of translation vectors              I                0
Atomic numbers                             I   N=          12
           6           1           1           1           6           8
           7           1           6           1           1           1
Nuclear charges                            R   N=          12
  6.00000000E+00  1.00000000E+00  1.00000000E+00  1.00000000E+00  6.00000000E+00
  8.00000000E+00  7.00000000E+00  1.00000000E+00  6.00000000E+00  1.00000000E+00
  1.00000000E+00  1.00000000E+00
Current cartesian coordinates              R   N=          36
 -3.42114547E+00 -1.06885619E+00  2.08656664E-02 -3.29068095E+00 -3.00896000E+00
 -6.76056237E-01 -4.76769424E+00 -1.59570182E-02 -1.13033086E+00 -4.13338642E+00
 -1.10658618E+00  1.96055508E+00 -9.13833973E-01  3.14841743E-01 -3.17782714E-02
 -7.87233849E-01  2.64070981E+00 -4.98216026E-03  1.17274069E+00 -1.20925878E+00
 -4.71445828E-02  9.30448122E-01 -3.10250334E+00 -2.20584543E-02  3.71708537E+00
 -1.95518944E-01  2.87817261E-02  3.55238724E+00  1.84942109E+00 -1.42290903E-01
  4.65914722E+00 -6.51953740E-01  1.81239765E+00  4.84582943E+00 -9.27127522E-01
 -1.53956164E+00
Force Field                                I                0
Int Atom Types                             I   N=          12
           0           0           0           0           0           0
           0           0           0           0           0           0
MM charges                                 R   N=          12
  0.00000000E+00  0.00000000E+00  0.00000000E+00  0.00000000E+00  0.00000000E+00
  0.00000000E+00  0.00000000E+00  0.00000000E+00  0.00000000E+00  0.00000000E+00
  0.00000000E+00  0.00000000E+00
Integer atomic weights                     I   N=          12
          12           1           1           1          12          16
          14           1          12           1           1           1
Real atomic weights                        R   N=          12
  1.20000000E+01  1.00782504E+00  1.00782504E+00  1.00782504E+00  1.20000000E+01
  1.59949146E+01  1.40030740E+01  1.00782504E+00  1.20000000E+01  1.00782504E+00
  1.00782504E+00  1.00782504E+00
Atom fragment info                         I   N=          12
           0           0           0           0           0           0
           0           0           0           0           0           0
Atom residue num                           I   N=          12
           0           0           0           0           0           0
           0           0           0           0           0           0
Nuclear spins                              I   N=          12
           0           1           1           1           0           0
           2           1           0           1           1           1
Nuclear ZEff                               R   N=          12
 -3.60000000E+00 -1.00000000E+00 -1.00000000E+00 -1.00000000E+00 -3.60000000E+00
 -5.60000000E+00 -4.55000000E+00 -1.00000000E+00 -3.60000000E+00 -1.00000000E+00
 -1.00000000E+00 -1.00000000E+00
Nuclear QMom                               R   N=          12
  0.00000000E+00  0.00000000E+00  0.00000000E+00  0.00000000E+00  0.00000000E+00
  0.00000000E+00  2.04400000E+00  0.00000000E+00  0.00000000E+00  0.00000000E+00
  0.00000000E+00  0.00000000E+00
Nuclear GFac                               R   N=          12
  0.00000000E+00  2.79284600E+00  2.79284600E+00  2.79284600E+00  0.00000000E+00
  0.00000000E+00  4.03761000E-01  2.79284600E+00  0.00000000E+00  2.79284600E+00
  2.79284600E+00  2.79284600E+00
MicOpt                                     I   N=          12
          -1          -1          -1          -1          -1          -1
          -1          -1          -1          -1          -1          -1
Number of contracted shells                I               34
Number of primitive shells                 I               83
Pure/Cartesian d shells                    I                1
Pure/Cartesian f shells                    I                0
Highest angular momentum                   I                2
Largest degree of contraction              I                6
Shell types                                I   N=          34
           0          -1          -1           2           0           0
           0           0           0           0           0          -1
          -1           2           0          -1          -1           2
           0          -1          -1           2           0           0
           0          -1          -1           2           0           0
           0           0           0           0
Number of primitives per shell             I   N=          34
           6           3           1           1           3           1
           3           1           3           1           6           3
           1           1           6           3           1           1
           6           3           1           1           3           1
           6           3           1           1           3           1
           3           1           3           1
Shell to atom map                          I   N=          34
           1           1           1           1           2           2
           3           3           4           4           5           5
           5           5           6           6           6           6
           7           7           7           7           8           8
           9           9           9           9          10          10
          11          11          12          12
Primitive exponents                        R   N=          83
  3.04752488E+03  4.57369518E+02  1.03948685E+02  2.92101553E+01  9.28666296E+00
  3.16392696E+00  7.86827235E+00  1.88128854E+00  5.44249258E-01  1.68714478E-01
  8.00000000E-01  1.87311370E+01  2.82539436E+00  6.40121692E-01  1.61277759E-01
  1.87311370E+01  2.82539436E+00  6.40121692E-01  1.61277759E-01  1.87311370E+01
  2.82539436E+00  6.40121692E-01  1.61277759E-01  3.04752488E+03  4.57369518E+02
  1.03948685E+02  2.92101553E+01  9.28666296E+00  3.16392696E+00  7.86827235E+00
  1.88128854E+00  5.44249258E-01  1.68714478E-01  8.00000000E-01  5.48467166E+03
  8.25234946E+02  1.88046958E+02  5.29645000E+01  1.68975704E+01  5.79963534E+00
  1.55396162E+01  3.59993359E+00  1.01376175E+00  2.70005823E-01  8.00000000E-01
  4.17351146E+03  6.27457911E+02  1.42902093E+02  4.02343293E+01  1.28202129E+01
  4.39043701E+00  1.16263619E+01  2.71627981E+00  7.72218397E-01  2.12031498E-01
  8.00000000E-01  1.87311370E+01  2.82539436E+00  6.40121692E-01  1.61277759E-01
  3.04752488E+03  4.57369518E+02  1.03948685E+02  2.92101553E+01  9.28666296E+00
  3.16392696E+00  7.86827235E+00  1.88128854E+00  5.44249258E-01  1.68714478E-01
  8.00000000E-01  1.87311370E+01  2.82539436E+00  6.40121692E-01  1.61277759E-01
  1.87311370E+01  2.82539436E+00  6.40121692E-01  1.61277759E-01  1.87311370E+01
  2.82539436E+00  6.40121692E-01  1.61277759E-01
Contraction coefficients                   R   N=          83
  1.83473713E-03  1.40373228E-02  6.88426223E-02  2.32184443E-01  4.67941348E-01
  3.62311985E-01 -1.19332420E-01 -1.60854152E-01  1.14345644E+00  1.00000000E+00
  1.00000000E+00  3.34946043E-02  2.34726953E-01  8.13757326E-01  1.00000000E+00
  3.34946043E-02  2.34726953E-01  8.13757326E-01  1.00000000E+00  3.34946043E-02
  2.34726953E-01  8.13757326E-01  1.00000000E+00  1.83473713E-03  1.40373228E-02
  6.88426223E-02  2.32184443E-01  4.67941348E-01  3.62311985E-01 -1.19332420E-01
 -1.60854152E-01  1.14345644E+00  1.00000000E+00  1.00000000E+00  1.83107443E-03
  1.39501722E-02  6.84450781E-02  2.32714336E-01  4.70192898E-01  3.58520853E-01
 -1.10777550E-01 -1.48026263E-01  1.13076702E+00  1.00000000E+00  1.00000000E+00
  1.83477216E-03  1.39946270E-02  6.85865518E-02  2.32240873E-01  4.69069948E-01
  3.60455199E-01 -1.14961182E-01 -1.69117479E-01  1.14585195E+00  1.00000000E+00
  1.00000000E+00  3.34946043E-02  2.34726953E-01  8.13757326E-01  1.00000000E+00
  1.83473713E-03  1.40373228E-02  6.88426223E-02  2.32184443E-01  4.67941348E-01
  3.62311985E-01 -1.19332420E-01 -1.60854152E-01  1.14345644E+00  1.00000000E+00
  1.00000000E+00  3.34946043E-02  2.34726953E-01  8.13757326E-01  1.00000000E+00
  3.34946043E-02  2.34726953E-01  8.13757326E-01  1.00000000E+00  3.34946043E-02
  2.34726953E-01  8.13757326E-01  1.00000000E+00
P(S=P) Contraction coefficients            R   N=          83
  0.00000000E+00  0.00000000E+00  0.00000000E+00  0.00000000E+00  0.00000000E+00
  0.00000000E+00  6.89990666E-02  3.16423961E-01  7.44308291E-01  1.00000000E+00
  0.00000000E+00  0.00000000E+00  0.00000000E+00  0.00000000E+00  0.00000000E+00
  0.00000000E+00  0.00000000E+00  0.00000000E+00  0.00000000E+00  0.00000000E+00
  0.00000000E+00  0.00000000E+00  0.00000000E+00  0.00000000E+00  0.00000000E+00
  0.00000000E+00  0.00000000E+00  0.00000000E+00  0.00000000E+00  6.89990666E-02
  3.16423961E-01  7.44308291E-01  1.00000000E+00  0.00000000E+00  0.00000000E+00
  0.00000000E+00  0.00000000E+00  0.00000000E+00  0.00000000E+00  0.00000000E+00
  7.08742682E-02  3.39752839E-01  7.27158577E-01  1.00000000E+00  0.00000000E+00
  0.00000000E+00  0.00000000E+00  0.00000000E+00  0.00000000E+00  0.00000000E+00
  0.00000000E+00  6.75797439E-02  3.23907296E-01  7.40895140E-01  1.00000000E+00
  0.00000000E+00  0.00000000E+00  0.00000000E+00  0.00000000E+00  0.00000000E+00
  0.00000000E+00  0.00000000E+00  0.00000000E+00  0.00000000E+00  0.00000000E+00
  0.00000000E+00  6.89990666E-02  3.16423961E-01  7.44308291E-01  1.00000000E+00
  0.00000000E+00  0.00000000E+00  0.00000000E+00  0.00000000E+00  0.00000000E+00
  0.00000000E+00  0.00000000E+00  0.00000000E+00  0.00000000E+00  0.00000000E+00
  0.00000000E+00  0.00000000E+00  0.00000000E+00
Coordinates of each shell                  R   N=         102
 -3.42114547E+00 -1.06885619E+00  2.08656664E-02 -3.42114547E+00 -1.06885619E+00
  2.08656664E-02 -3.42114547E+00 -1.06885619E+00  2.08656664E-02 -3.42114547E+00
 -1.06885619E+00  2.08656664E-02 -3.29068095E+00 -3.00896000E+00 -6.76056237E-01
 -3.29068095E+00 -3.00896000E+00 -6.76056237E-01 -4.76769424E+00 -1.59570182E-02
 -1.13033086E+00 -4.76769424E+00 -1.59570182E-02 -1.13033086E+00 -4.13338642E+00
 -1.10658618E+00  1.96055508E+00 -4.13338642E+00 -1.10658618E+00  1.96055508E+00
 -9.13833973E-01  3.14841743E-01 -3.17782714E-02 -9.13833973E-01  3.14841743E-01
 -3.17782714E-02 -9.13833973E-01  3.14841743E-01 -3.17782714E-02 -9.13833973E-01
  3.14841743E-01 -3.17782714E-02 -7.87233849E-01  2.64070981E+00 -4.98216026E-03
 -7.87233849E-01  2.64070981E+00 -4.98216026E-03 -7.87233849E-01  2.64070981E+00
 -4.98216026E-03 -7.87233849E-01  2.64070981E+00 -4.98216026E-03  1.17274069E+00
 -1.20925878E+00 -4.71445828E-02  1.17274069E+00 -1.20925878E+00 -4.71445828E-02
  1.17274069E+00 -1.20925878E+00 -4.71445828E-02  1.17274069E+00 -1.20925878E+00
 -4.71445828E-02  9.30448122E-01 -3.10250334E+00 -2.20584543E-02  9.30448122E-01
 -3.10250334E+00 -2.20584543E-02  3.71708537E+00 -1.95518944E-01  2.87817261E-02
  3.71708537E+00 -1.95518944E-01  2.87817261E-02  3.71708537E+00 -1.95518944E-01
  2.87817261E-02  3.71708537E+00 -1.95518944E-01  2.87817261E-02  3.55238724E+00
  1.84942109E+00 -1.42290903E-01  3.55238724E+00  1.84942109E+00 -1.42290903E-01
  4.65914722E+00 -6.51953740E-01  1.81239765E+00  4.65914722E+00 -6.51953740E-01
  1.81239765E+00  4.84582943E+00 -9.27127522E-01 -1.53956164E+00  4.84582943E+00
 -9.27127522E-01 -1.53956164E+00
Constraint Structure                       R   N=          36
 -3.42114547E+00 -1.06885619E+00  2.08656664E-02 -3.29068095E+00 -3.00896000E+00
 -6.76056237E-01 -4.76769424E+00 -1.59570182E-02 -1.13033086E+00 -4.13338642E+00
 -1.10658618E+00  1.96055508E+00 -9.13833973E-01  3.14841743E-01 -3.17782714E-02
 -7.87233849E-01  2.64070981E+00 -4.98216026E-03  1.17274069E+00 -1.20925878E+00
 -4.71445828E-02  9.30448122E-01 -3.10250334E+00 -2.20584543E-02  3.71708537E+00
 -1.95518944E-01  2.87817261E-02  3.55238724E+00  1.84942109E+00 -1.42290903E-01
  4.65914722E+00 -6.51953740E-01  1.81239765E+00  4.84582943E+00 -9.27127522E-01
 -1.53956164E+00
Num ILSW                                   I              100
ILSW                                       I   N=         100
           0           1           0           0           2           0
           0           0           0           0           0          -1
           0           0           0           0           0           0
           0           0           0           0           1           0
           1           0           0           0           0           0
           0           0      100000           0          -1           0
           0           0           0           0           0           0
           0           0           0           1           1           0
           0           0           1           0           0           0
           0           0           4          40           0           0
           0           0           0           0           0           0
           0           0           0           0           0           0
           0           0           0           0           0           0
           0           0           0           0           0           0
           0           0           0           0           0           0
           0           0           0           0           0           0
           0           0           0           0
Num RLSW                                   I               40
RLSW                                       R   N=          40
  1.00000000E+00  1.00000000E+00  1.00000000E+00  1.00000000E+00  1.00000000E+00
  0.00000000E+00  0.00000000E+00  1.00000000E+00  0.00000000E+00  0.00000000E+00
  0.00000000E+00  0.00000000E+00  1.00000000E+00  0.00000000E+00  0.00000000E+00
  0.00000000E+00  0.00000000E+00  1.00000000E+00  0.00000000E+00  0.00000000E+00
  0.00000000E+00  0.00000000E+00  1.00000000E+00  0.00000000E+00  0.00000000E+00
  0.00000000E+00  0.00000000E+00  1.00000000E+00  0.00000000E+00  0.00000000E+00
  0.00000000E+00  0.00000000E+00  0.00000000E+00  0.00000000E+00  0.00000000E+00
  0.00000000E+00  0.00000000E+00  0.00000000E+00  1.00000000E+00  1.00000000E+00
MxBond                                     I                4
NBond                                      I   N=          12
           4           1           1           1           3           1
           3           1           4           1           1           1
IBond                                      I   N=          48
           2           3           4           5           1           0
           0           0           1           0           0           0
           1           0           0           0           1           6
           7           0           5           0           0           0
           5           8           9           0           7           0
           0           0           7          10          11          12
           9           0           0           0           9           0
           0           0           9           0           0           0
RBond                                      R   N=          48
  1.00000000E+00  1.00000000E+00  1.00000000E+00  1.00000000E+00  1.00000000E+00
  0.00000000E+00  0.00000000E+00  0.00000000E+00  1.00000000E+00  0.00000000E+00
  0.00000000E+00  0.00000000E+00  1.00000000E+00  0.00000000E+00  0.00000000E+00
  0.00000000E+00  1.00000000E+00  2.00000000E+00  1.41000000E+00  0.00000000E+00
  2.00000000E+00  0.00000000E+00  0.00000000E+00  0.00000000E+00  1.41000000E+00
  1.00000000E+00  1.00000000E+00  0.00000000E+00  1.00000000E+00  0.00000000E+00
  0.00000000E+00  0.00000000E+00  1.00000000E+00  1.00000000E+00  1.00000000E+00
  1.00000000E+00  1.00000000E+00  0.00000000E+00  0.00000000E+00  0.00000000E+00
  1.00000000E+00  0.00000000E+00  0.00000000E+00  0.00000000E+00  1.00000000E+00
  0.00000000E+00  0.00000000E+00  0.00000000E+00
Virial Ratio                               R      2.002679565269844E+00
SCF Energy                                 R     -2.470031410085113E+02
MP2 Energy                                 R     -2.477295329861103E+02
Total Energy                               R     -2.477295329861103E+02
Post-SCF wavefunction norm                 R      1.566945233554456E+00
RMS Force                                  R      1.027229483981275E-08
RMS Density                                R      2.379844150441245E-09
External E-field                           R   N=          35
  0.00000000E+00  0.00000000E+00  0.00000000E+00  0.00000000E+00  0.00000000E+00
  0.00000000E+00  0.00000000E+00  0.00000000E+00  0.00000000E+00  0.00000000E+00
  0.00000000E+00  0.00000000E+00  0.00000000E+00  0.00000000E+00  0.00000000E+00
  0.00000000E+00  0.00000000E+00  0.00000000E+00  0.00000000E+00  0.00000000E+00
  0.00000000E+00  0.00000000E+00  0.00000000E+00  0.00000000E+00  0.00000000E+00
  0.00000000E+00  0.00000000E+00  0.00000000E+00  0.00000000E+00  0.00000000E+00
  0.00000000E+00  0.00000000E+00  0.00000000E+00  0.00000000E+00  0.00000000E+00
IOpCl                                      I                0
IROHF                                      I                0
Alpha Orbital Energies                     R   N=          89
 -2.05154708E+01 -1.55891651E+01 -1.13510128E+01 -1.12570441E+01 -1.12368939E+01
 -1.36362124E+00 -1.22283706E+00 -1.01498346E+00 -9.27842445E-01 -7.84201353E-01
 -6.85782530E-01 -6.45001937E-01 -6.27578928E-01 -5.84484823E-01 -5.73594384E-01
 -5.51966167E-01 -5.40785992E-01 -4.98473217E-01 -4.12956977E-01 -3.83481699E-01
  1.99443251E-01  2.15569991E-01  2.64837226E-01  2.83231979E-01  3.04229281E-01
  3.22766496E-01  3.27026221E-01  3.40882976E-01  3.74518100E-01  4.21543216E-01
  4.92525250E-01  5.98543281E-01  7.27566985E-01  7.34956748E-01  7.48345648E-01
  7.59135073E-01  8.09031057E-01  8.34787285E-01  9.08014865E-01  9.48014372E-01
  9.57086184E-01  9.99595686E-01  1.03053394E+00  1.06036598E+00  1.10841211E+00
  1.12849755E+00  1.15954936E+00  1.17663950E+00  1.18806904E+00  1.20238101E+00
  1.21988640E+00  1.22735851E+00  1.31048888E+00  1.35679850E+00  1.44315920E+00
  1.54634835E+00  1.60447812E+00  1.63055342E+00  1.65066677E+00  1.69090783E+00
  1.82693764E+00  1.94605750E+00  2.04627675E+00  2.11965112E+00  2.12223843E+00
  2.15839705E+00  2.20206824E+00  2.21807193E+00  2.29643372E+00  2.38250343E+00
  2.41864000E+00  2.52638389E+00  2.55205432E+00  2.59506543E+00  2.65111278E+00
  2.67439564E+00  2.70681680E+00  2.74561755E+00  2.88741260E+00  2.99474676E+00
  3.01512396E+00  3.23267178E+00  3.34709565E+00  3.50241758E+00  4.35301351E+00
  4.46742026E+00  4.58282499E+00  4.68206173E+00  4.90584360E+00
Alpha MO coefficients                      R   N=        7921
  7.65877210E-07  2.11492801E-05 -6.90668973E-06 -2.57659722E-05  1.24135359E-06
 -1.74521666E-04 -1.38776230E-04 -3.42499871E-05 -6.33154141E-06  1.96282234E-05
 -4.99816722E-05 -1.76245214E-05 -3.37030336E-05 -9.88691052E-07  8.48199076E-07
  1.32902174E-05 -2.69657967E-05  1.32580041E-05 -4.69717180E-05  1.66597653E-05
 -2.75818969E-05 -3.20030370E-06  5.03553912E-04  3.63442709E-06 -9.62308157E-06
 -6.82515122E-07 -1.82909661E-04 -1.33038856E-04 -5.67881177E-04  3.44395225E-07
 -4.24545156E-05 -7.52372454E-04 -4.79983467E-05 -3.26049794E-05 -2.04773469E-06
 -9.33077404E-06  9.94689192E-01  2.09765378E-02 -4.99361902E-05 -1.53195998E-03
 -1.85597324E-05  4.47630520E-03  2.64444708E-05  7.98326543E-05 -1.95375387E-06
 -3.90326617E-03 -3.66602826E-03 -4.10718576E-03  1.91620897E-05  2.46382230E-06
  6.39038555E-06 -3.42213650E-06 -2.19695468E-05 -3.19548990E-06 -3.27884109E-05
 -7.03863876E-07 -1.12665968E-05  9.30567917E-05  5.29692458E-05  4.16848968E-06
  9.09496963E-05 -7.87120916E-05 -3.73510906E-05  2.61938258E-05  1.98092980E-06
 -4.87170829E-10  3.00289497E-05 -1.31367556E-05 -6.79010998E-06 -8.73223883E-06
  2.14013060E-05  9.06810728E-06  3.97056323E-06  1.06401963E-04  4.76470381E-05
  7.42275720E-05 -1.53262537E-05 -4.54424069E-05 -1.96046938E-05 -9.94098180E-06
 -1.94628214E-05 -2.21163649E-06 -6.26479325E-07  1.37896340E-05 -1.65064472E-04
 -5.69231127E-06 -4.93269572E-06 -8.31643520E-06 -1.72389600E-05 -6.93962841E-06
 -2.68765439E-05 -3.43736710E-05 -7.42150216E-06 -8.45733660E-06  2.25816313E-04
 -9.95206858E-05  3.33545943E-04  4.51307267E-05 -6.57352479E-05  2.54611095E-05
 -2.37460540E-05  2.29469944E-05  6.67346822E-06 -1.47484253E-05  1.57748017E-05
  8.46521646E-05 -2.43572875E-05 -5.40608114E-05 -1.73979103E-06 -7.89118573E-05
  1.91735146E-05  1.79264464E-04  1.83306655E-04 -1.17926053E-04  3.01671583E-07
  1.39459896E-03  1.22395439E-03 -7.58964718E-04 -6.97489692E-06 -6.46315186E-05
 -1.20959776E-04 -6.23481904E-05  4.59297689E-05  2.87028865E-06 -5.17787384E-07
 -3.68606620E-06 -5.04906829E-05  3.61360795E-06  1.53446997E-05  1.77290168E-06
  2.19794606E-04 -2.96373146E-04 -2.52586687E-05 -6.27594607E-06 -9.68278679E-06
 -1.32557282E-05 -6.60536532E-05  7.32382214E-05  1.81687618E-06  1.57664753E-06
  9.94950400E-01  2.52656736E-02 -4.16880119E-05  1.51178912E-05  6.77421938E-05
 -3.09672601E-03  2.37584357E-04 -7.26038996E-04 -5.01616883E-05 -3.50873815E-03
 -3.48707619E-03 -3.33849350E-03 -2.86544637E-05 -4.82291754E-06 -1.66842506E-06
  2.25198547E-04  2.43079800E-04 -1.65689778E-06  1.65253058E-04 -2.52651697E-04
 -1.01063643E-04 -2.54538434E-06  1.09397869E-03 -4.35853358E-04  1.93148166E-05
 -2.41767073E-05 -5.94484058E-05 -9.53150315E-05 -5.48393983E-05 -2.44392257E-05
 -2.99036719E-07 -4.37049203E-06 -7.69004642E-05 -2.23623459E-04 -7.88563255E-05
 -2.14276315E-05 -7.25495184E-05 -3.99546818E-05  2.57025298E-03  7.92522716E-05
 -4.78373398E-05 -2.25824660E-05  3.12246329E-05  4.61594686E-03  2.41139949E-03
  5.22329741E-04 -2.31859807E-04 -3.93469372E-04 -2.84865515E-04 -1.16352139E-04
 -2.13703944E-04 -4.38613460E-06  2.82516098E-05 -2.12014314E-04 -8.26916738E-05
 -1.31106345E-04  2.68301631E-04 -1.91717847E-04  4.34374669E-04  9.95862342E-01
  2.61865909E-02  4.83138004E-04 -3.28509642E-05  6.96052263E-06 -7.31009899E-03
  2.78937187E-03  4.63402019E-03 -1.22406001E-05 -1.29818927E-03 -6.69536588E-04
 -2.27150750E-03 -1.42999945E-04 -1.29832145E-05  1.32618123E-05 -2.10858509E-04
  7.80856839E-04  2.61281189E-05 -3.00653094E-04 -4.69337432E-06 -4.11803468E-03
 -3.93971010E-04  1.91946518E-03  4.43035925E-05  3.03538102E-04  9.78868094E-05
  5.00686899E-04  7.93174485E-05 -3.79709502E-08 -1.30686088E-05 -2.76494225E-04
  2.86886972E-04  1.54840076E-04  8.37677266E-05  2.23794174E-06  8.16725346E-04
 -1.04044648E-03 -2.13379888E-03 -1.00459682E-05 -5.54149401E-04 -3.54636523E-04
  1.18086155E-04  3.21191848E-04 -4.84908307E-06 -9.65814611E-06 -3.23766989E-04
 -7.02084200E-04 -6.62809715E-05 -1.56476837E-04 -1.52439709E-04 -9.74995645E-05
 -5.10012307E-06  1.09856954E-03 -7.27292620E-04  3.90326066E-04 -3.71237961E-05
  2.67346854E-04  2.54703571E-05 -2.03366570E-05  1.02188733E-05  1.44273437E-05
 -9.89253238E-06 -1.26814743E-04 -3.84137863E-04 -2.06389373E-05  1.01293122E-04
 -3.71535854E-06  1.07793793E-04  3.95516062E-05 -1.47577629E-04  9.83180273E-05
  1.88405326E-05  4.31112222E-06  2.18663793E-03  6.68311555E-04  5.82902138E-04
 -5.66651916E-05 -7.11114005E-06 -1.57797735E-05 -2.10127567E-05  2.82902090E-05
  4.57361970E-06 -1.55325606E-05 -2.56895089E-05 -2.65735474E-06 -8.26807688E-05
 -1.30602534E-04 -5.66839798E-05 -5.54448587E-05  7.79305802E-05 -1.27104105E-04
 -1.23828646E-04 -8.67414508E-05 -5.42987123E-06  7.65903745E-04  2.84543929E-03
  1.38956910E-03  2.10088195E-06  1.56081242E-04  1.51883838E-04 -6.05608887E-05
 -6.67600939E-05  6.57669046E-06  4.69453162E-06  5.59904260E-05  2.40660255E-04
  2.62377974E-05  4.19573084E-05 -5.74199975E-06 -1.85085125E-03 -5.19594042E-04
  4.11178826E-04  2.52947696E-05  1.71593094E-04  1.08687224E-04  1.12442951E-04
  5.93564778E-05  8.40195448E-06 -1.75883125E-06 -1.86714734E-04  3.09068084E-04
  6.07195713E-05  7.97614836E-05 -2.96372978E-06  1.05482975E-03  5.62917650E-04
 -1.34233198E-03  2.93162298E-05 -6.51546960E-04 -1.54588432E-04  2.21431681E-05
 -1.79977252E-04 -1.73399256E-05 -1.32927979E-05 -2.95376877E-04 -3.38691542E-04
  9.95757025E-01  2.80191542E-02 -7.54711778E-04 -3.49665288E-04 -1.21191408E-05
 -1.30594855E-02  2.22711472E-04  8.64587834E-05 -4.75262206E-05 -1.68585738E-03
 -1.78112418E-03 -1.76398653E-03  1.82388020E-05  3.74908984E-06  2.31268902E-06
  1.54324783E-04  2.30941398E-03  8.75707294E-05  2.52850648E-03  7.36640166E-05
  2.47326444E-03  9.95709066E-01  2.87374531E-02  1.98466646E-04  2.67947936E-05
  5.97797669E-05 -1.56493615E-02 -8.92104370E-04 -6.25190432E-04 -1.09687339E-04
 -1.90087075E-03 -1.88908463E-03 -1.86810510E-03 -2.12344533E-05  5.70467303E-06
  8.81464317E-07  1.36984190E-04  2.45529704E-03  1.75358209E-04  2.52417438E-03
  1.47897044E-04  2.65511207E-03 -2.90411209E-03  2.43460345E-05 -3.51507094E-05
 -5.39211702E-05  2.37266976E-06  2.95762639E-03 -2.54679741E-03 -1.00906086E-03
 -9.45917597E-06 -5.00272740E-04 -3.65740286E-04 -1.37777224E-04 -1.43734405E-04
  4.28842499E-07 -9.83092906E-07 -3.77381468E-05 -2.35879319E-04  3.74178007E-05
  2.63395974E-05 -1.06431220E-05  8.54862569E-04  2.44414220E-04 -3.81219072E-04
  3.95685901E-05 -9.27801609E-05  2.46265168E-05 -2.30553802E-04 -2.22800190E-05
 -1.55720143E-05 -4.83963401E-06 -2.42038202E-05 -2.06426589E-04  1.09279145E-04
  1.07796771E-05 -1.39839909E-05  5.93207723E-04 -8.00120995E-04  2.69161301E-04
  6.15242214E-05  1.61472762E-05  3.25927984E-05 -1.51441442E-04 -6.82207989E-05
 -1.38852912E-05 -3.18625288E-06 -8.60190502E-05  4.12108137E-05 -8.74385960E-05
 -9.57746032E-05 -2.05503670E-05 -1.47832202E-05  4.70360044E-06  6.68282248E-04
 -3.06671804E-04 -1.35842889E-04 -4.86908312E-05  1.11722255E-05 -1.51188588E-05
 -3.90702071E-05  4.91305595E-06  3.32546497E-06  5.84281849E-06 -3.06450148E-05
  8.61282125E-05 -1.62851231E-05 -3.14129489E-05 -2.71241184E-05 -5.56034142E-05
 -2.06118657E-02  4.01749172E-02  2.39956515E-02  1.71938424E-02 -4.33572444E-04
  1.76496776E-04 -7.51599862E-03  3.23936955E-03  4.88435493E-04  5.30032289E-03
  2.46837830E-03  9.19477695E-05  4.92408291E-03 -1.57998586E-06 -3.33587140E-04
  7.67772495E-03  1.73880992E-03  9.02767503E-03 -9.53608121E-05  8.04246344E-03
  6.34499859E-04 -1.24676478E-01  2.42595174E-01  3.45735604E-02  1.31114966E-01
  1.97112183E-03  6.63718865E-02 -2.18747678E-02 -3.48416174E-02 -2.55169927E-05
 -1.11190581E-02  2.72998688E-02 -1.89130459E-02 -6.91201823E-04 -6.47268519E-05
  5.44552447E-04 -1.76772002E-01  3.84506005E-01 -2.77048571E-03 -1.24764227E-01
 -1.27515613E-03  3.74732061E-01  3.22468096E-03 -5.60391499E-02 -7.18511026E-04
 -3.74661147E-03  1.65421809E-02 -3.37525318E-03 -2.91698408E-06 -8.68229306E-06
  2.57822199E-04 -6.32132893E-02  1.31605837E-01 -2.82756197E-02  3.25199843E-02
  1.28086159E-03  1.18180263E-01 -2.79947191E-03  2.36090744E-02  6.00175925E-04
  5.96320301E-03  7.37229301E-03 -3.30849937E-03 -5.28610960E-03 -2.46698882E-05
  1.09073855E-04  2.78322916E-02  1.33016984E-03 -1.92879486E-02  3.50282407E-02
 -2.40335145E-02 -3.69083845E-03 -7.29327735E-04  7.96029130E-03  1.87819477E-03
 -2.04374907E-03  7.59297663E-04  5.11077549E-03  7.44460352E-05 -1.45772974E-03
  1.54673900E-03  1.96529849E-04  2.00550362E-05  1.10299999E-02  6.80619862E-03
  6.22930948E-03 -2.91497964E-04  6.13978760E-03  3.02394863E-04 -1.31621927E-02
  2.49268254E-02  1.69583921E-02 -5.62101270E-03 -3.77965540E-04  1.05008341E-02
  4.45730900E-03 -1.07389412E-02  4.91011635E-04  3.19322380E-03 -8.19200715E-04
 -3.37181961E-04 -2.54561033E-04 -3.77697928E-04  6.27839752E-04  9.91064755E-03
  1.76105330E-03  3.01100373E-03  5.99419729E-04  5.48062988E-03  9.80681086E-05
 -2.58224191E-02  5.55827908E-02  8.57418456E-02 -1.67913681E-01 -1.21132727E-03
  1.01992835E-03 -2.31638729E-02  1.34155478E-03 -7.56577731E-06  1.75314909E-02
 -1.21997777E-02 -1.70608497E-03 -1.55224671E-02 -9.44626961E-05 -2.90499152E-04
  8.90030450E-02 -1.96200024E-01  1.68826077E-02  3.57123528E-02  5.08545605E-04
 -1.93457499E-01  1.17037759E-02  1.28964435E-02  2.02826729E-04 -2.41437559E-04
 -4.78840975E-03  1.12274838E-03 -2.98019666E-03 -4.14620011E-05 -1.00671679E-04
 -1.75301434E-01  3.60934177E-01 -6.68925294E-03  6.14142608E-03  3.44473509E-03
  3.95458704E-01 -8.02937122E-03  8.94853608E-03  1.93277344E-03  1.19642675E-02
  1.32108028E-02 -1.04137122E-02  1.74382113E-03  3.04154901E-04 -5.30637090E-05
  1.05838888E-01  2.38783996E-03 -7.17158836E-02  1.34715404E-01 -7.32856848E-02
 -2.87565736E-02 -2.23515465E-03  6.85341058E-02  5.31213536E-03 -3.06107179E-03
  3.44898639E-04  1.41281847E-02  8.83191877E-04 -2.70108799E-03  7.79854682E-03
  5.22848975E-04  2.28101770E-04  3.04328830E-02  3.17450415E-03  2.97091488E-02
  6.64677715E-04  2.99525382E-02  1.19526879E-03 -1.57762658E-01  2.94119935E-01
  3.96812873E-02  1.36262577E-02  7.17446305E-04  2.87396446E-01  8.60802615E-03