173_123-Tribromopropane Gaussian SP Calculation on node58.bme.utexas.edu
Freq      RMP2-FC                                                     6-31G(d)            
Number of atoms                            I               11
Info1-9                                    I   N=           9
          22          21        1002           0           0         100
           6           2           1
Charge                                     I                0
Multiplicity                               I                1
Number of electrons                        I              128
Number of alpha electrons                  I               64
Number of beta electrons                   I               64
Number of basis functions                  I              145
Number of independent functions            I              145
Number of point charges in /Mol/           I                0
Number of translation vectors              I                0
Atomic numbers                             I   N=          11
          35          35          35           6           6           6
           1           1           1           1           1
Nuclear charges                            R   N=          11
  3.50000000E+01  3.50000000E+01  3.50000000E+01  6.00000000E+00  6.00000000E+00
  6.00000000E+00  1.00000000E+00  1.00000000E+00  1.00000000E+00  1.00000000E+00
  1.00000000E+00
Current cartesian coordinates              R   N=          33
 -1.11447076E-05  2.90553952E+00  1.74278403E-01 -5.42290883E+00 -9.17684873E-01
 -4.41963528E-01  5.42291719E+00 -9.17677942E-01 -4.41963672E-01  2.57740763E-06
 -7.94057007E-01  8.53312085E-02 -2.34921864E+00 -1.80053763E+00  1.39336305E+00
  2.34922783E+00 -1.80052492E+00  1.39336819E+00  5.53556706E-06 -1.30315256E+00
 -1.91423356E+00 -2.54367006E+00 -1.02756235E+00  3.29395409E+00 -2.30086258E+00
 -3.86361285E+00  1.46582066E+00  2.54367730E+00 -1.02753965E+00  3.29395540E+00
  2.30087661E+00 -3.86359984E+00  1.46583665E+00
Force Field                                I                0
Int Atom Types                             I   N=          11
           0           0           0           0           0           0
           0           0           0           0           0
MM charges                                 R   N=          11
  0.00000000E+00  0.00000000E+00  0.00000000E+00  0.00000000E+00  0.00000000E+00
  0.00000000E+00  0.00000000E+00  0.00000000E+00  0.00000000E+00  0.00000000E+00
  0.00000000E+00
Integer atomic weights                     I   N=          11
          79          79          79          12          12          12
           1           1           1           1           1
Real atomic weights                        R   N=          11
  7.89183361E+01  7.89183361E+01  7.89183361E+01  1.20000000E+01  1.20000000E+01
  1.20000000E+01  1.00782504E+00  1.00782504E+00  1.00782504E+00  1.00782504E+00
  1.00782504E+00
Atom fragment info                         I   N=          11
           0           0           0           0           0           0
           0           0           0           0           0
Atom residue num                           I   N=          11
           0           0           0           0           0           0
           0           0           0           0           0
Nuclear spins                              I   N=          11
           3           3           3           0           0           0
           1           1           1           1           1
Nuclear ZEff                               R   N=          11
 -2.45000000E+01 -2.45000000E+01 -2.45000000E+01 -3.60000000E+00 -3.60000000E+00
 -3.60000000E+00 -1.00000000E+00 -1.00000000E+00 -1.00000000E+00 -1.00000000E+00
 -1.00000000E+00
Nuclear QMom                               R   N=          11
  3.13000000E+01  3.13000000E+01  3.13000000E+01  0.00000000E+00  0.00000000E+00
  0.00000000E+00  0.00000000E+00  0.00000000E+00  0.00000000E+00  0.00000000E+00
  0.00000000E+00
Nuclear GFac                               R   N=          11
  2.10639900E+00  2.10639900E+00  2.10639900E+00  0.00000000E+00  0.00000000E+00
  0.00000000E+00  2.79284600E+00  2.79284600E+00  2.79284600E+00  2.79284600E+00
  2.79284600E+00
MicOpt                                     I   N=          11
          -1          -1          -1          -1          -1          -1
          -1          -1          -1          -1          -1
Number of contracted shells                I               58
Number of primitive shells                 I              146
Pure/Cartesian d shells                    I                1
Pure/Cartesian f shells                    I                0
Highest angular momentum                   I                2
Largest degree of contraction              I                8
Shell types                                I   N=          58
           0           0           0           0           0           0
           1           1           1           1           2           2
           0           0           0           0           0           0
           1           1           1           1           2           2
           0           0           0           0           0           0
           1           1           1           1           2           2
           0          -1          -1           2           0          -1
          -1           2           0          -1          -1           2
           0           0           0           0           0           0
           0           0           0           0
Number of primitives per shell             I   N=          58
           8           2           1           1           1           1
           6           3           1           1           5           1
           8           2           1           1           1           1
           6           3           1           1           5           1
           8           2           1           1           1           1
           6           3           1           1           5           1
           6           3           1           1           6           3
           1           1           6           3           1           1
           3           1           3           1           3           1
           3           1           3           1
Shell to atom map                          I   N=          58
           1           1           1           1           1           1
           1           1           1           1           1           1
           2           2           2           2           2           2
           2           2           2           2           2           2
           3           3           3           3           3           3
           3           3           3           3           3           3
           4           4           4           4           5           5
           5           5           6           6           6           6
           7           7           8           8           9           9
          10          10          11          11
Primitive exponents                        R   N=         146
  5.74300000E+05  8.90700000E+04  2.02100000E+04  5.73600000E+03  1.89900000E+03
  6.98700000E+02  2.77800000E+02  1.15200000E+02  3.59700000E+01  1.55000000E+01
  4.77100000E+00  2.07700000E+00  4.21100000E-01  1.61000000E-01  4.40600000E+03
  1.04200000E+03  3.32100000E+02  1.21900000E+02  4.92400000E+01  2.11600000E+01
  8.83600000E+00  3.82900000E+00  1.64300000E+00  4.65000000E-01  1.42700000E-01
  1.08400000E+02  3.07100000E+01  1.06600000E+01  3.85100000E+00  1.31700000E+00
  3.38000000E-01  5.74300000E+05  8.90700000E+04  2.02100000E+04  5.73600000E+03
  1.89900000E+03  6.98700000E+02  2.77800000E+02  1.15200000E+02  3.59700000E+01
  1.55000000E+01  4.77100000E+00  2.07700000E+00  4.21100000E-01  1.61000000E-01
  4.40600000E+03  1.04200000E+03  3.32100000E+02  1.21900000E+02  4.92400000E+01
  2.11600000E+01  8.83600000E+00  3.82900000E+00  1.64300000E+00  4.65000000E-01
  1.42700000E-01  1.08400000E+02  3.07100000E+01  1.06600000E+01  3.85100000E+00
  1.31700000E+00  3.38000000E-01  5.74300000E+05  8.90700000E+04  2.02100000E+04
  5.73600000E+03  1.89900000E+03  6.98700000E+02  2.77800000E+02  1.15200000E+02
  3.59700000E+01  1.55000000E+01  4.77100000E+00  2.07700000E+00  4.21100000E-01
  1.61000000E-01  4.40600000E+03  1.04200000E+03  3.32100000E+02  1.21900000E+02
  4.92400000E+01  2.11600000E+01  8.83600000E+00  3.82900000E+00  1.64300000E+00
  4.65000000E-01  1.42700000E-01  1.08400000E+02  3.07100000E+01  1.06600000E+01
  3.85100000E+00  1.31700000E+00  3.38000000E-01  3.04752488E+03  4.57369518E+02
  1.03948685E+02  2.92101553E+01  9.28666296E+00  3.16392696E+00  7.86827235E+00
  1.88128854E+00  5.44249258E-01  1.68714478E-01  8.00000000E-01  3.04752488E+03
  4.57369518E+02  1.03948685E+02  2.92101553E+01  9.28666296E+00  3.16392696E+00
  7.86827235E+00  1.88128854E+00  5.44249258E-01  1.68714478E-01  8.00000000E-01
  3.04752488E+03  4.57369518E+02  1.03948685E+02  2.92101553E+01  9.28666296E+00
  3.16392696E+00  7.86827235E+00  1.88128854E+00  5.44249258E-01  1.68714478E-01
  8.00000000E-01  1.87311370E+01  2.82539436E+00  6.40121692E-01  1.61277759E-01
  1.87311370E+01  2.82539436E+00  6.40121692E-01  1.61277759E-01  1.87311370E+01
  2.82539436E+00  6.40121692E-01  1.61277759E-01  1.87311370E+01  2.82539436E+00
  6.40121692E-01  1.61277759E-01  1.87311370E+01  2.82539436E+00  6.40121692E-01
  1.61277759E-01
Contraction coefficients                   R   N=         146
  2.10682753E-04  1.61271721E-03  8.36010959E-03  3.40275588E-02  1.08515001E-01
  2.67396944E-01  4.29567221E-01  2.86993117E-01  2.77772914E-01  7.47057636E-01
  1.00000000E+00  1.00000000E+00  1.00000000E+00  1.00000000E+00  1.39552623E-03
  1.23748283E-02  6.10175241E-02  2.26775547E-01  4.05975875E-01  4.50692322E-01
  2.92018585E-01  5.30220862E-01  2.75287404E-01  1.00000000E+00  1.00000000E+00
  2.15879371E-02  1.34176036E-01  3.67870647E-01  4.91895206E-01  2.68321979E-01
  1.00000000E+00  2.10682753E-04  1.61271721E-03  8.36010959E-03  3.40275588E-02
  1.08515001E-01  2.67396944E-01  4.29567221E-01  2.86993117E-01  2.77772914E-01
  7.47057636E-01  1.00000000E+00  1.00000000E+00  1.00000000E+00  1.00000000E+00
  1.39552623E-03  1.23748283E-02  6.10175241E-02  2.26775547E-01  4.05975875E-01
  4.50692322E-01  2.92018585E-01  5.30220862E-01  2.75287404E-01  1.00000000E+00
  1.00000000E+00  2.15879371E-02  1.34176036E-01  3.67870647E-01  4.91895206E-01
  2.68321979E-01  1.00000000E+00  2.10682753E-04  1.61271721E-03  8.36010959E-03
  3.40275588E-02  1.08515001E-01  2.67396944E-01  4.29567221E-01  2.86993117E-01
  2.77772914E-01  7.47057636E-01  1.00000000E+00  1.00000000E+00  1.00000000E+00
  1.00000000E+00  1.39552623E-03  1.23748283E-02  6.10175241E-02  2.26775547E-01
  4.05975875E-01  4.50692322E-01  2.92018585E-01  5.30220862E-01  2.75287404E-01
  1.00000000E+00  1.00000000E+00  2.15879371E-02  1.34176036E-01  3.67870647E-01
  4.91895206E-01  2.68321979E-01  1.00000000E+00  1.83473713E-03  1.40373228E-02
  6.88426223E-02  2.32184443E-01  4.67941348E-01  3.62311985E-01 -1.19332420E-01
 -1.60854152E-01  1.14345644E+00  1.00000000E+00  1.00000000E+00  1.83473713E-03
  1.40373228E-02  6.88426223E-02  2.32184443E-01  4.67941348E-01  3.62311985E-01
 -1.19332420E-01 -1.60854152E-01  1.14345644E+00  1.00000000E+00  1.00000000E+00
  1.83473713E-03  1.40373228E-02  6.88426223E-02  2.32184443E-01  4.67941348E-01
  3.62311985E-01 -1.19332420E-01 -1.60854152E-01  1.14345644E+00  1.00000000E+00
  1.00000000E+00  3.34946043E-02  2.34726953E-01  8.13757326E-01  1.00000000E+00
  3.34946043E-02  2.34726953E-01  8.13757326E-01  1.00000000E+00  3.34946043E-02
  2.34726953E-01  8.13757326E-01  1.00000000E+00  3.34946043E-02  2.34726953E-01
  8.13757326E-01  1.00000000E+00  3.34946043E-02  2.34726953E-01  8.13757326E-01
  1.00000000E+00
P(S=P) Contraction coefficients            R   N=         146
  0.00000000E+00  0.00000000E+00  0.00000000E+00  0.00000000E+00  0.00000000E+00
  0.00000000E+00  0.00000000E+00  0.00000000E+00  0.00000000E+00  0.00000000E+00
  0.00000000E+00  0.00000000E+00  0.00000000E+00  0.00000000E+00  0.00000000E+00
  0.00000000E+00  0.00000000E+00  0.00000000E+00  0.00000000E+00  0.00000000E+00
  0.00000000E+00  0.00000000E+00  0.00000000E+00  0.00000000E+00  0.00000000E+00
  0.00000000E+00  0.00000000E+00  0.00000000E+00  0.00000000E+00  0.00000000E+00
  0.00000000E+00  0.00000000E+00  0.00000000E+00  0.00000000E+00  0.00000000E+00
  0.00000000E+00  0.00000000E+00  0.00000000E+00  0.00000000E+00  0.00000000E+00
  0.00000000E+00  0.00000000E+00  0.00000000E+00  0.00000000E+00  0.00000000E+00
  0.00000000E+00  0.00000000E+00  0.00000000E+00  0.00000000E+00  0.00000000E+00
  0.00000000E+00  0.00000000E+00  0.00000000E+00  0.00000000E+00  0.00000000E+00
  0.00000000E+00  0.00000000E+00  0.00000000E+00  0.00000000E+00  0.00000000E+00
  0.00000000E+00  0.00000000E+00  0.00000000E+00  0.00000000E+00  0.00000000E+00
  0.00000000E+00  0.00000000E+00  0.00000000E+00  0.00000000E+00  0.00000000E+00
  0.00000000E+00  0.00000000E+00  0.00000000E+00  0.00000000E+00  0.00000000E+00
  0.00000000E+00  0.00000000E+00  0.00000000E+00  0.00000000E+00  0.00000000E+00
  0.00000000E+00  0.00000000E+00  0.00000000E+00  0.00000000E+00  0.00000000E+00
  0.00000000E+00  0.00000000E+00  0.00000000E+00  0.00000000E+00  0.00000000E+00
  0.00000000E+00  0.00000000E+00  0.00000000E+00  0.00000000E+00  0.00000000E+00
  0.00000000E+00  0.00000000E+00  0.00000000E+00  0.00000000E+00  6.89990666E-02
  3.16423961E-01  7.44308291E-01  1.00000000E+00  0.00000000E+00  0.00000000E+00
  0.00000000E+00  0.00000000E+00  0.00000000E+00  0.00000000E+00  0.00000000E+00
  6.89990666E-02  3.16423961E-01  7.44308291E-01  1.00000000E+00  0.00000000E+00
  0.00000000E+00  0.00000000E+00  0.00000000E+00  0.00000000E+00  0.00000000E+00
  0.00000000E+00  6.89990666E-02  3.16423961E-01  7.44308291E-01  1.00000000E+00
  0.00000000E+00  0.00000000E+00  0.00000000E+00  0.00000000E+00  0.00000000E+00
  0.00000000E+00  0.00000000E+00  0.00000000E+00  0.00000000E+00  0.00000000E+00
  0.00000000E+00  0.00000000E+00  0.00000000E+00  0.00000000E+00  0.00000000E+00
  0.00000000E+00  0.00000000E+00  0.00000000E+00  0.00000000E+00  0.00000000E+00
  0.00000000E+00
Coordinates of each shell                  R   N=         174
 -1.11447076E-05  2.90553952E+00  1.74278403E-01 -1.11447076E-05  2.90553952E+00
  1.74278403E-01 -1.11447076E-05  2.90553952E+00  1.74278403E-01 -1.11447076E-05
  2.90553952E+00  1.74278403E-01 -1.11447076E-05  2.90553952E+00  1.74278403E-01
 -1.11447076E-05  2.90553952E+00  1.74278403E-01 -1.11447076E-05  2.90553952E+00
  1.74278403E-01 -1.11447076E-05  2.90553952E+00  1.74278403E-01 -1.11447076E-05
  2.90553952E+00  1.74278403E-01 -1.11447076E-05  2.90553952E+00  1.74278403E-01
 -1.11447076E-05  2.90553952E+00  1.74278403E-01 -1.11447076E-05  2.90553952E+00
  1.74278403E-01 -5.42290883E+00 -9.17684873E-01 -4.41963528E-01 -5.42290883E+00
 -9.17684873E-01 -4.41963528E-01 -5.42290883E+00 -9.17684873E-01 -4.41963528E-01
 -5.42290883E+00 -9.17684873E-01 -4.41963528E-01 -5.42290883E+00 -9.17684873E-01
 -4.41963528E-01 -5.42290883E+00 -9.17684873E-01 -4.41963528E-01 -5.42290883E+00
 -9.17684873E-01 -4.41963528E-01 -5.42290883E+00 -9.17684873E-01 -4.41963528E-01
 -5.42290883E+00 -9.17684873E-01 -4.41963528E-01 -5.42290883E+00 -9.17684873E-01
 -4.41963528E-01 -5.42290883E+00 -9.17684873E-01 -4.41963528E-01 -5.42290883E+00
 -9.17684873E-01 -4.41963528E-01  5.42291719E+00 -9.17677942E-01 -4.41963672E-01
  5.42291719E+00 -9.17677942E-01 -4.41963672E-01  5.42291719E+00 -9.17677942E-01
 -4.41963672E-01  5.42291719E+00 -9.17677942E-01 -4.41963672E-01  5.42291719E+00
 -9.17677942E-01 -4.41963672E-01  5.42291719E+00 -9.17677942E-01 -4.41963672E-01
  5.42291719E+00 -9.17677942E-01 -4.41963672E-01  5.42291719E+00 -9.17677942E-01
 -4.41963672E-01  5.42291719E+00 -9.17677942E-01 -4.41963672E-01  5.42291719E+00
 -9.17677942E-01 -4.41963672E-01  5.42291719E+00 -9.17677942E-01 -4.41963672E-01
  5.42291719E+00 -9.17677942E-01 -4.41963672E-01  2.57740763E-06 -7.94057007E-01
  8.53312085E-02  2.57740763E-06 -7.94057007E-01  8.53312085E-02  2.57740763E-06
 -7.94057007E-01  8.53312085E-02  2.57740763E-06 -7.94057007E-01  8.53312085E-02
 -2.34921864E+00 -1.80053763E+00  1.39336305E+00 -2.34921864E+00 -1.80053763E+00
  1.39336305E+00 -2.34921864E+00 -1.80053763E+00  1.39336305E+00 -2.34921864E+00
 -1.80053763E+00  1.39336305E+00  2.34922783E+00 -1.80052492E+00  1.39336819E+00
  2.34922783E+00 -1.80052492E+00  1.39336819E+00  2.34922783E+00 -1.80052492E+00
  1.39336819E+00  2.34922783E+00 -1.80052492E+00  1.39336819E+00  5.53556706E-06
 -1.30315256E+00 -1.91423356E+00  5.53556706E-06 -1.30315256E+00 -1.91423356E+00
 -2.54367006E+00 -1.02756235E+00  3.29395409E+00 -2.54367006E+00 -1.02756235E+00
  3.29395409E+00 -2.30086258E+00 -3.86361285E+00  1.46582066E+00 -2.30086258E+00
 -3.86361285E+00  1.46582066E+00  2.54367730E+00 -1.02753965E+00  3.29395540E+00
  2.54367730E+00 -1.02753965E+00  3.29395540E+00  2.30087661E+00 -3.86359984E+00
  1.46583665E+00  2.30087661E+00 -3.86359984E+00  1.46583665E+00
Constraint Structure                       R   N=          33
 -1.11447076E-05  2.90553952E+00  1.74278403E-01 -5.42290883E+00 -9.17684873E-01
 -4.41963528E-01  5.42291719E+00 -9.17677942E-01 -4.41963672E-01  2.57740763E-06
 -7.94057007E-01  8.53312085E-02 -2.34921864E+00 -1.80053763E+00  1.39336305E+00
  2.34922783E+00 -1.80052492E+00  1.39336819E+00  5.53556706E-06 -1.30315256E+00
 -1.91423356E+00 -2.54367006E+00 -1.02756235E+00  3.29395409E+00 -2.30086258E+00
 -3.86361285E+00  1.46582066E+00  2.54367730E+00 -1.02753965E+00  3.29395540E+00
  2.30087661E+00 -3.86359984E+00  1.46583665E+00
Num ILSW                                   I              100
ILSW                                       I   N=         100
           0           1           0           0           2           0
           0           0           0           0           0          -1
           0           0           0           0           0           0
           0           0           0           0           1           0
           1           0           0           0           0           0
           0           0      100000           0          -1           0
           0           0           0           0           0           0
           0           0           0           1           1           0
           0           0           1           0           0           0
           0           0           4          40           0           0
           0           0           0           0           0           0
           0           0           0           0           0           0
           0           0           0           0           0           0
           0           0           0           0           0           0
           0           0           0           0           0           0
           0           0           0           0           0           0
           0           0           0           0
Num RLSW                                   I               40
RLSW                                       R   N=          40
  1.00000000E+00  1.00000000E+00  1.00000000E+00  1.00000000E+00  1.00000000E+00
  0.00000000E+00  0.00000000E+00  1.00000000E+00  0.00000000E+00  0.00000000E+00
  0.00000000E+00  0.00000000E+00  1.00000000E+00  0.00000000E+00  0.00000000E+00
  0.00000000E+00  0.00000000E+00  1.00000000E+00  0.00000000E+00  0.00000000E+00
  0.00000000E+00  0.00000000E+00  1.00000000E+00  0.00000000E+00  0.00000000E+00
  0.00000000E+00  0.00000000E+00  1.00000000E+00  0.00000000E+00  0.00000000E+00
  0.00000000E+00  0.00000000E+00  0.00000000E+00  0.00000000E+00  0.00000000E+00
  0.00000000E+00  0.00000000E+00  0.00000000E+00  1.00000000E+00  1.00000000E+00
MxBond                                     I                4
NBond                                      I   N=          11
           1           1           1           4           4           4
           1           1           1           1           1
IBond                                      I   N=          44
           4           0           0           0           5           0
           0           0           6           0           0           0
           1           5           6           7           2           4
           8           9           3           4          10          11
           4           0           0           0           5           0
           0           0           5           0           0           0
           6           0           0           0           6           0
           0           0
RBond                                      R   N=          44
  1.00000000E+00  0.00000000E+00  0.00000000E+00  0.00000000E+00  1.00000000E+00
  0.00000000E+00  0.00000000E+00  0.00000000E+00  1.00000000E+00  0.00000000E+00
  0.00000000E+00  0.00000000E+00  1.00000000E+00  1.00000000E+00  1.00000000E+00
  1.00000000E+00  1.00000000E+00  1.00000000E+00  1.00000000E+00  1.00000000E+00
  1.00000000E+00  1.00000000E+00  1.00000000E+00  1.00000000E+00  1.00000000E+00
  0.00000000E+00  0.00000000E+00  0.00000000E+00  1.00000000E+00  0.00000000E+00
  0.00000000E+00  0.00000000E+00  1.00000000E+00  0.00000000E+00  0.00000000E+00
  0.00000000E+00  1.00000000E+00  0.00000000E+00  0.00000000E+00  0.00000000E+00
  1.00000000E+00  0.00000000E+00  0.00000000E+00  0.00000000E+00
Virial Ratio                               R      2.004474113445833E+00
SCF Energy                                 R     -7.826183973729054E+03
MP2 Energy                                 R     -7.826919123420977E+03
Total Energy                               R     -7.826919123420977E+03
Post-SCF wavefunction norm                 R      1.610164572567377E+00
RMS Force                                  R      3.276487555906486E-07
RMS Density                                R      9.937983375955248E-10
External E-field                           R   N=          35
  0.00000000E+00  0.00000000E+00  0.00000000E+00  0.00000000E+00  0.00000000E+00
  0.00000000E+00  0.00000000E+00  0.00000000E+00  0.00000000E+00  0.00000000E+00
  0.00000000E+00  0.00000000E+00  0.00000000E+00  0.00000000E+00  0.00000000E+00
  0.00000000E+00  0.00000000E+00  0.00000000E+00  0.00000000E+00  0.00000000E+00
  0.00000000E+00  0.00000000E+00  0.00000000E+00  0.00000000E+00  0.00000000E+00
  0.00000000E+00  0.00000000E+00  0.00000000E+00  0.00000000E+00  0.00000000E+00
  0.00000000E+00  0.00000000E+00  0.00000000E+00  0.00000000E+00  0.00000000E+00
IOpCl                                      I                0
IROHF                                      I                0
Alpha Orbital Energies                     R   N=         145
 -4.90066444E+02 -4.90066431E+02 -4.90064026E+02 -6.44785939E+01 -6.44784761E+01
 -6.44756984E+01 -5.86175710E+01 -5.86174990E+01 -5.86158088E+01 -5.86158083E+01
 -5.86157391E+01 -5.86157383E+01 -5.86144737E+01 -5.86127319E+01 -5.86126692E+01
 -1.13327528E+01 -1.13226041E+01 -1.13225776E+01 -9.72671433E+00 -9.72668544E+00
 -9.72347387E+00 -7.47593559E+00 -7.47593382E+00 -7.47249551E+00 -7.46704174E+00
 -7.46704140E+00 -7.46682747E+00 -7.46682723E+00 -7.46372352E+00 -7.46352301E+00
 -3.21470181E+00 -3.21469972E+00 -3.21124385E+00 -3.21060686E+00 -3.21060654E+00
 -3.21038449E+00 -3.21038426E+00 -3.20720481E+00 -3.20699781E+00 -3.20008894E+00
 -3.20008873E+00 -3.20008670E+00 -3.20008644E+00 -3.19681178E+00 -3.19681056E+00
 -1.16346153E+00 -1.06990643E+00 -1.01742750E+00 -9.62074142E-01 -8.92870223E-01
 -8.23545174E-01 -6.87613990E-01 -6.40006208E-01 -6.25893121E-01 -6.04927186E-01
 -5.26739352E-01 -4.95407351E-01 -4.91890853E-01 -4.24694184E-01 -4.23460345E-01
 -4.13526698E-01 -4.06611948E-01 -4.03467023E-01 -3.91511005E-01  1.09528291E-01
  1.54271038E-01  1.91007799E-01  2.10439352E-01  2.51841509E-01  2.61823750E-01
  2.82439048E-01  2.92439888E-01  3.38822768E-01  3.40676998E-01  3.83765051E-01
  4.41052079E-01  4.62701671E-01  5.50841231E-01  5.68788952E-01  5.76425591E-01
  5.91770970E-01  6.09457498E-01  6.24769211E-01  6.28731619E-01  6.30178681E-01
  6.43071281E-01  6.51956145E-01  6.57832464E-01  6.82365963E-01  6.84055905E-01
  6.92348914E-01  6.94150328E-01  7.09035486E-01  7.19657789E-01  7.20638722E-01
  7.31634565E-01  7.59026442E-01  7.79110087E-01  8.44766138E-01  8.47160657E-01
  9.11318729E-01  9.50945327E-01  9.90534533E-01  1.03425079E+00  1.05384366E+00
  1.08426272E+00  1.10510089E+00  1.12685218E+00  1.13381887E+00  1.14619914E+00
  1.14728468E+00  1.16699337E+00  1.19281100E+00  1.27558848E+00  1.40310504E+00
  1.46596433E+00  1.63522606E+00  1.75273044E+00  1.79260395E+00  1.85340729E+00
  1.85880959E+00  1.86108982E+00  1.92915020E+00  2.02081441E+00  2.14877730E+00
  2.19271420E+00  2.22703813E+00  2.29253662E+00  2.30157798E+00  2.41822777E+00
  2.51568419E+00  2.54216720E+00  2.66340480E+00  2.69340388E+00  2.87899528E+00
  3.00004113E+00  4.48936650E+00  4.63039393E+00  4.84788177E+00  9.28766404E+00
  9.28990519E+00  9.32426687E+00  7.47125721E+01  7.47137852E+01  7.54090588E+01
Alpha MO coefficients                      R   N=       21025
 -1.13956598E-02 -4.34861893E-04  6.98115149E-04  7.53002513E-04 -3.27352607E-04
  2.16396594E-03 -2.47370208E-08  1.71523357E-06  9.24846576E-07  9.28912680E-08
 -6.75552766E-06 -3.46406200E-06 -5.90470059E-07  8.52711002E-05  2.36611482E-05
  1.26964626E-06 -4.74927515E-04 -9.68121759E-05 -7.37351508E-04 -7.28294435E-04
 -7.01136647E-04  5.47012207E-08  8.74231639E-09 -5.38011038E-06 -4.42564590E-04
 -4.60504100E-04 -6.90857073E-04 -3.34995608E-07 -5.57902821E-08  4.79293042E-05
  7.01233980E-01  2.31729214E-02 -3.13415957E-02 -3.37418762E-02 -1.85312079E-02
 -1.40548051E-02  1.44078303E-05 -1.12694435E-06  5.65780626E-06 -4.31813119E-05
  8.68373641E-07 -1.48165185E-05  1.82234747E-04 -6.95237348E-07  6.26560423E-05
 -3.90433589E-04  5.63465691E-05 -2.02799049E-04  3.12191422E-02  3.12181830E-02
  3.12186119E-02  5.47820304E-07  3.40141546E-06 -2.78107595E-06  7.80720999E-03
  7.81567884E-03  7.80297813E-03  8.20711793E-06 -3.80197576E-05  2.61891760E-05
  7.05742590E-01  2.33217912E-02 -3.15427232E-02 -3.39583313E-02 -1.86496331E-02
 -1.41458017E-02 -1.45010458E-05 -1.13301797E-06  5.70098373E-06  4.34620768E-05
  8.69811690E-07 -1.49366424E-05 -1.83496046E-04 -6.85924264E-07  6.31631293E-05
  3.93378626E-04  5.67047423E-05 -2.04113551E-04  3.14194457E-02  3.14184311E-02
  3.14188443E-02 -5.52478934E-07 -3.41909137E-06 -2.80138007E-06  7.85711245E-03
  7.86599774E-03  7.85337275E-03 -8.25436140E-06  3.81965217E-05  2.63661400E-05
  1.18000289E-05 -1.13767603E-04  1.57096850E-07 -3.83858937E-06 -9.58405063E-06
  2.03160984E-04  2.12049205E-06 -4.60679018E-04  4.42824294E-04  2.04974455E-04
  2.75555072E-05  8.36026955E-05 -1.37206277E-07  6.71328161E-08 -2.30225646E-05
  1.15456141E-05  6.13577556E-05  1.87810272E-04 -2.78857980E-05  9.04492836E-05
 -2.35198982E-04 -5.14172039E-04 -4.41808984E-05 -3.02231616E-05 -9.17817017E-05
 -4.55155903E-06 -2.35696547E-05 -1.10362446E-05  6.73286946E-07  1.89653834E-05
  1.16761580E-05  6.18407538E-05 -1.88986418E-04 -2.80343542E-05  9.12650215E-05
 -2.38596325E-04  5.17354624E-04 -4.49522123E-05 -3.13315118E-05 -9.21033637E-05
 -4.40569343E-06 -2.36957460E-05  1.10570654E-05 -5.85188604E-07  1.91289891E-05
 -7.37911978E-05  5.18283195E-04  3.41617382E-05  1.92024347E-04  2.42849592E-05
  1.83088505E-04  3.44676539E-05  1.94530132E-04  2.42961279E-05  1.84862888E-04
 -3.68681429E-05 -1.40594831E-06  2.25532988E-06  2.43424096E-06 -1.03914922E-06
  6.94523392E-06  7.69630822E-06  5.46315755E-09  2.95649051E-09 -2.89041185E-05
 -2.15230115E-08 -1.10745586E-08  1.84029910E-04  2.73040470E-07  7.57482697E-08
 -3.96493078E-04 -1.52280314E-06 -3.10153995E-07 -2.38193909E-06 -2.35284715E-06
 -2.26589495E-06 -1.70806268E-05 -2.72599845E-06 -1.72197187E-08 -1.42206820E-06
 -1.48068123E-06 -2.21862965E-06  1.04804960E-04  1.74201370E-05  1.53456244E-07
  7.05784652E-01  2.33044985E-02 -3.14854591E-02 -3.38849305E-02 -1.85384750E-02
 -1.42465158E-02  1.45978294E-05 -9.44411060E-07  6.75580787E-06 -4.39727017E-05
  1.95941825E-07 -1.87953879E-05  1.97533266E-04  1.60771353E-06  7.93576003E-05
 -4.61311234E-04  5.59377750E-05 -2.05899836E-04  3.13565520E-02  3.13478873E-02
  3.13454221E-02  7.38753891E-07  2.78246711E-06 -3.18080341E-06  7.81241491E-03
  7.87743866E-03  7.88939729E-03  7.37353975E-06 -2.78065053E-05  2.77383849E-05
 -7.01276318E-01 -2.31555160E-02  3.12839577E-02  3.36679976E-02  1.84193407E-02
  1.41561382E-02  1.45051455E-05  9.37198111E-07 -6.71941758E-06 -4.36948751E-05
 -1.90514005E-07  1.87000553E-05  1.96360142E-04 -1.61139024E-06 -7.89543774E-05
 -4.58795575E-04 -5.55764312E-05  2.04595620E-04 -3.11558376E-02 -3.11471792E-02
 -3.11447115E-02  7.35150453E-07  2.76055168E-06  3.16291593E-06 -7.76221932E-03
 -7.82718648E-03 -7.83922518E-03  7.32114855E-06 -2.75618308E-05 -2.75699388E-05
  3.79384948E-08 -3.64133582E-07 -4.92009836E-05 -1.21916955E-08 -3.05537433E-08
  6.48457077E-07 -6.60532798E-04 -1.47650808E-06  1.41683809E-06  6.56594346E-07
  8.90444038E-08  2.68273221E-07  4.29261810E-05 -2.08895355E-05 -7.37783438E-08
  2.03974465E-05  7.54510686E-05  1.84176017E-04 -2.32218490E-05  1.27582548E-04
 -5.30101128E-04 -4.98392780E-04 -1.20916044E-04 -1.73647363E-04 -5.04470347E-05
  2.27087197E-05 -1.96913524E-05 -3.31538232E-06 -1.37206381E-05  2.55904771E-05
 -2.03232113E-05 -7.50574531E-05  1.82968551E-04  2.30424798E-05 -1.27000410E-04
  5.28589710E-04 -4.95088493E-04  1.20629826E-04  1.73447972E-04  4.98580866E-05
 -2.27377342E-05  1.95398690E-05 -3.24424837E-06 -1.37247458E-05 -2.54682357E-05
 -2.36606103E-07  1.66004476E-06  4.78414850E-05  3.92064706E-04  1.80647184E-06