
    -----------------------------------------------------------------------
          Psi4: An Open-Source Ab Initio Electronic Structure Package
                               Psi4 1.4a3.dev225 

                         Git: Rev {master} 7105e37 


    D. G. A. Smith, L. A. Burns, A. C. Simmonett, R. M. Parrish,
    M. C. Schieber, R. Galvelis, P. Kraus, H. Kruse, R. Di Remigio,
    A. Alenaizan, A. M. James, S. Lehtola, J. P. Misiewicz, M. Scheurer,
    R. A. Shaw, J. B. Schriber, Y. Xie, Z. L. Glick, D. A. Sirianni,
    J. S. O'Brien, J. M. Waldrop, A. Kumar, E. G. Hohenstein,
    B. P. Pritchard, B. R. Brooks, H. F. Schaefer III, A. Yu. Sokolov,
    K. Patkowski, A. E. DePrince III, U. Bozkaya, R. A. King,
    F. A. Evangelista, J. M. Turney, T. D. Crawford, C. D. Sherrill,
    J. Chem. Phys. 152(18) 184108 (2020). https://doi.org/10.1063/5.0006002

                            Additional Code Authors
    E. T. Seidl, C. L. Janssen, E. F. Valeev, M. L. Leininger,
    J. F. Gonthier, R. M. Richard, H. R. McAlexander, M. Saitow, X. Wang,
    P. Verma, and M. H. Lechner

             Previous Authors, Complete List of Code Contributors,
                       and Citations for Specific Modules
    https://github.com/psi4/psi4/blob/master/codemeta.json
    https://github.com/psi4/psi4/graphs/contributors
    http://psicode.org/psi4manual/master/introduction.html#citing-psifour

    -----------------------------------------------------------------------


    Psi4 started on: Sunday, 28 February 2021 03:04PM

    Process ID: 217070
    Host:       c404-052.stampede2.tacc.utexas.edu
    PSIDATADIR: /home1/07844/xy3866/miniconda3/envs/p4env/share/psi4
    Memory:     500.0 MiB
    Threads:    32
    
  ==> Input File <==

--------------------------------------------------------------------------
#psi4
#
memory 32 gb

molecule  {
0 1
 Cl        1.0239510     2.3134080    -0.0075990
  O       -2.5545530    -1.5411200    -0.0264400
  N       -1.1683820     0.3068610    -0.0163620
  C        0.1096870    -0.2710340    -0.0061280
  C        1.2343910     0.5769770    -0.0015960
  C        0.3284730    -1.6588570    -0.0015270
  C        2.5300300     0.0689490     0.0091910
  C        1.6277130    -2.1636760     0.0089260
  C        2.7021163    -1.1125575     0.0134368
  C       -2.3977350    -0.3210840    -0.0173950
  C       -3.5624210     0.6474400     0.0363070
  H       -0.5282050    -2.3191560    -0.0064230
  H       -1.1804810     1.3202100    -0.0131680
  H        3.3690000     0.7589460     0.0128930
  H        1.7714720    -3.2410880     0.0123870
  H        3.7417620    -1.7087950     0.0220870
  H       -3.7187230     0.9816890     1.0666350
  H       -4.4568090     0.1237200    -0.3002800
  H       -3.3965620     1.5279900    -0.5904610
units angstrom
no_reorient  #important for SAPT in psi4, default
symmetry c1  #important for SAPT in psi4, default
}

set PROPERTIES_ORIGIN ["COM"]
properties('MP2/aug-cc-pvtz', properties = ['dipole'])
--------------------------------------------------------------------------

  Memory set to  29.802 GiB by Python driver.
    SCF Algorithm Type (re)set to DF.

*** tstart() called on c404-052.stampede2.tacc.utexas.edu
*** at Sun Feb 28 15:04:54 2021

   => Loading Basis Set <=

    Name: AUG-CC-PVTZ
    Role: ORBITAL
    Keyword: BASIS
    atoms 1     entry CL         line   988 file /home1/07844/xy3866/miniconda3/envs/p4env/share/psi4/basis/aug-cc-pvtz.gbs 
    atoms 2     entry O          line   331 file /home1/07844/xy3866/miniconda3/envs/p4env/share/psi4/basis/aug-cc-pvtz.gbs 
    atoms 3     entry N          line   285 file /home1/07844/xy3866/miniconda3/envs/p4env/share/psi4/basis/aug-cc-pvtz.gbs 
    atoms 4-11  entry C          line   239 file /home1/07844/xy3866/miniconda3/envs/p4env/share/psi4/basis/aug-cc-pvtz.gbs 
    atoms 12-19 entry H          line    40 file /home1/07844/xy3866/miniconda3/envs/p4env/share/psi4/basis/aug-cc-pvtz.gbs 


         ---------------------------------------------------------
                                   SCF
               by Justin Turney, Rob Parrish, Andy Simmonett
                          and Daniel G. A. Smith
                              RHF Reference
                       32 Threads,  30517 MiB Core
         ---------------------------------------------------------

  ==> Geometry <==

    Molecular point group: c1
    Full point group: C1

    Geometry (in Angstrom), charge = 0, multiplicity = 1:

       Center              X                  Y                   Z               Mass       
    ------------   -----------------  -----------------  -----------------  -----------------
         CL           0.994253914544     2.271039407979    -0.006309811415    34.968852682000
         O           -2.584250085456    -1.583488592021    -0.025150811415    15.994914619570
         N           -1.198079085456     0.264492407979    -0.015072811415    14.003074004430
         C            0.079989914544    -0.313402592021    -0.004838811415    12.000000000000
         C            1.204693914544     0.534608407979    -0.000306811415    12.000000000000
         C            0.298775914544    -1.701225592021    -0.000237811415    12.000000000000
         C            2.500332914544     0.026580407979     0.010480188585    12.000000000000
         C            1.598015914544    -2.206044592021     0.010215188585    12.000000000000
         C            2.672419214544    -1.154926092021     0.014725988585    12.000000000000
         C           -2.427432085456    -0.363452592021    -0.016105811415    12.000000000000
         C           -3.592118085456     0.605071407979     0.037596188585    12.000000000000
         H           -0.557902085456    -2.361524592021    -0.005133811415     1.007825032230
         H           -1.210178085456     1.277841407979    -0.011878811415     1.007825032230
         H            3.339302914544     0.716577407979     0.014182188585     1.007825032230
         H            1.741774914544    -3.283456592021     0.013676188585     1.007825032230
         H            3.712064914544    -1.751163592021     0.023376188585     1.007825032230
         H           -3.748420085456     0.939320407979     1.067924188585     1.007825032230
         H           -4.486506085456     0.081351407979    -0.298990811415     1.007825032230
         H           -3.426259085456     1.485621407979    -0.589171811415     1.007825032230

  Running in c1 symmetry.

  Rotational constants: A =      0.04617  B =      0.02489  C =      0.01622 [cm^-1]
  Rotational constants: A =   1384.15742  B =    746.06410  C =    486.29228 [MHz]
  Nuclear repulsion =  659.052163051340699

  Charge       = 0
  Multiplicity = 1
  Electrons    = 88
  Nalpha       = 44
  Nbeta        = 44

  ==> Algorithm <==

  SCF Algorithm Type is DF.
  DIIS enabled.
  MOM disabled.
  Fractional occupation disabled.
  Guess Type is SAD.
  Energy threshold   = 1.00e-10
  Density threshold  = 1.00e-10
  Integral threshold = 1.00e-12

  ==> Primary Basis <==

  Basis Set: AUG-CC-PVTZ
    Blend: AUG-CC-PVTZ
    Number of shells: 228
    Number of basis functions: 694
    Number of Cartesian functions: 809
    Spherical Harmonics?: true
    Max angular momentum: 3

   => Loading Basis Set <=

    Name: (AUG-CC-PVTZ AUX)
    Role: JKFIT
    Keyword: DF_BASIS_SCF
    atoms 1     entry CL         line   816 file /home1/07844/xy3866/miniconda3/envs/p4env/share/psi4/basis/aug-cc-pvtz-jkfit.gbs 
    atoms 2     entry O          line   286 file /home1/07844/xy3866/miniconda3/envs/p4env/share/psi4/basis/aug-cc-pvtz-jkfit.gbs 
    atoms 3     entry N          line   224 file /home1/07844/xy3866/miniconda3/envs/p4env/share/psi4/basis/aug-cc-pvtz-jkfit.gbs 
    atoms 4-11  entry C          line   162 file /home1/07844/xy3866/miniconda3/envs/p4env/share/psi4/basis/aug-cc-pvtz-jkfit.gbs 
    atoms 12-19 entry H          line    70 file /home1/07844/xy3866/miniconda3/envs/p4env/share/psi4/basis/aug-cc-pvtz-jkfit.gbs 

  ==> Integral Setup <==

  DFHelper Memory: AOs need 5.157 GiB; user supplied 22.352 GiB. Using in-core AOs.

  ==> MemDFJK: Density-Fitted J/K Matrices <==

    J tasked:                   Yes
    K tasked:                   Yes
    wK tasked:                   No
    OpenMP threads:              32
    Memory [MiB]:             22888
    Algorithm:                 Core
    Schwarz Cutoff:           1E-12
    Mask sparsity (%):      11.6474
    Fitting Condition:        1E-10

   => Auxiliary Basis Set <=

  Basis Set: (AUG-CC-PVTZ AUX)
    Blend: AUG-CC-PVTZ-JKFIT
    Number of shells: 454
    Number of basis functions: 1554
    Number of Cartesian functions: 1930
    Spherical Harmonics?: true
    Max angular momentum: 4

  Minimum eigenvalue in the overlap matrix is 6.6232144259E-07.
  Reciprocal condition number of the overlap matrix is 3.6338466876E-08.
    Using symmetric orthogonalization.

  ==> Pre-Iterations <==

  SCF Guess: Superposition of Atomic Densities via on-the-fly atomic UHF (no occupation information).

   -------------------------
    Irrep   Nso     Nmo    
   -------------------------
     A        694     694 
   -------------------------
    Total     694     694
   -------------------------

  ==> Iterations <==

                           Total Energy        Delta E     RMS |[F,P]|

   @DF-RHF iter SAD:  -896.15495780080494   -8.96155e+02   0.00000e+00 
   @DF-RHF iter   1:  -896.18362837085579   -2.86706e-02   1.17413e-03 DIIS
   @DF-RHF iter   2:  -896.44576687176516   -2.62139e-01   6.79498e-04 DIIS
   @DF-RHF iter   3:  -896.53779306845331   -9.20262e-02   1.33536e-04 DIIS
   @DF-RHF iter   4:  -896.54299157857588   -5.19851e-03   6.06361e-05 DIIS
   @DF-RHF iter   5:  -896.54406527675610   -1.07370e-03   1.35308e-05 DIIS
   @DF-RHF iter   6:  -896.54418522479671   -1.19948e-04   6.49132e-06 DIIS
   @DF-RHF iter   7:  -896.54422536187826   -4.01371e-05   2.80154e-06 DIIS
   @DF-RHF iter   8:  -896.54423578052717   -1.04186e-05   1.18593e-06 DIIS
   @DF-RHF iter   9:  -896.54423767052822   -1.89000e-06   5.07096e-07 DIIS
   @DF-RHF iter  10:  -896.54423790769295   -2.37165e-07   2.07350e-07 DIIS
   @DF-RHF iter  11:  -896.54423794801141   -4.03185e-08   7.75415e-08 DIIS
   @DF-RHF iter  12:  -896.54423795386776   -5.85635e-09   3.61856e-08 DIIS
   @DF-RHF iter  13:  -896.54423795512957   -1.26181e-09   1.34077e-08 DIIS
   @DF-RHF iter  14:  -896.54423795534922   -2.19643e-10   6.92289e-09 DIIS
   @DF-RHF iter  15:  -896.54423795538628   -3.70619e-11   2.34598e-09 DIIS
   @DF-RHF iter  16:  -896.54423795539140   -5.11591e-12   8.27775e-10 DIIS
   @DF-RHF iter  17:  -896.54423795539265   -1.25056e-12   4.01723e-10 DIIS
   @DF-RHF iter  18:  -896.54423795538969    2.95586e-12   1.48305e-10 DIIS
   @DF-RHF iter  19:  -896.54423795539219   -2.50111e-12   8.07260e-11 DIIS
  Energy and wave function converged.


  ==> Post-Iterations <==

    Orbital Energies [Eh]
    ---------------------

    Doubly Occupied:                                                      

       1A   -104.855144     2A    -20.535277     3A    -15.613504  
       4A    -11.372143     5A    -11.308591     6A    -11.304304  
       7A    -11.258438     8A    -11.248513     9A    -11.241736  
      10A    -11.238775    11A    -11.228382    12A    -10.578906  
      13A     -8.045759    14A     -8.044039    15A     -8.043942  
      16A     -1.390818    17A     -1.271769    18A     -1.192555  
      19A     -1.130111    20A     -1.063022    21A     -1.016676  
      22A     -0.976632    23A     -0.858148    24A     -0.844476  
      25A     -0.784325    26A     -0.739568    27A     -0.690312  
      28A     -0.663311    29A     -0.648655    30A     -0.634114  
      31A     -0.624436    32A     -0.604738    33A     -0.589419  
      34A     -0.578315    35A     -0.569137    36A     -0.532615  
      37A     -0.532182    38A     -0.490087    39A     -0.481258  
      40A     -0.463608    41A     -0.460274    42A     -0.430511  
      43A     -0.362162    44A     -0.312750  

    Virtual:                                                              

      45A      0.025800    46A      0.029197    47A      0.037086  
      48A      0.043215    49A      0.046478    50A      0.048803  
      51A      0.062027    52A      0.070554    53A      0.084261  
      54A      0.086043    55A      0.088651    56A      0.094041  
      57A      0.099276    58A      0.102591    59A      0.106421  
      60A      0.108811    61A      0.113704    62A      0.118744  
      63A      0.120884    64A      0.121091    65A      0.126185  
      66A      0.128760    67A      0.134579    68A      0.138733  
      69A      0.140570    70A      0.144762    71A      0.153035  
      72A      0.158076    73A      0.158415    74A      0.160773  
      75A      0.166370    76A      0.172909    77A      0.175084  
      78A      0.176247    79A      0.187641    80A      0.188863  
      81A      0.195574    82A      0.200965    83A      0.209571  
      84A      0.212385    85A      0.217250    86A      0.225517  
      87A      0.229140    88A      0.235228    89A      0.245499  
      90A      0.248447    91A      0.252961    92A      0.258648  
      93A      0.265689    94A      0.272650    95A      0.273845  
      96A      0.277130    97A      0.279757    98A      0.281192  
      99A      0.291949   100A      0.298964   101A      0.307849  
     102A      0.310889   103A      0.315499   104A      0.319849  
     105A      0.323509   106A      0.326578   107A      0.330291  
     108A      0.331636   109A      0.336211   110A      0.340903  
     111A      0.352442   112A      0.353152   113A      0.357730  
     114A      0.361378   115A      0.365367   116A      0.378799  
     117A      0.381090   118A      0.386716   119A      0.388320  
     120A      0.390062   121A      0.400991   122A      0.405574  
     123A      0.410052   124A      0.416396   125A      0.421260  
     126A      0.425495   127A      0.428084   128A      0.430921  
     129A      0.432845   130A      0.438283   131A      0.445293  
     132A      0.447313   133A      0.451541   134A      0.455918  
     135A      0.464303   136A      0.466482   137A      0.469688  
     138A      0.478794   139A      0.482329   140A      0.487537  
     141A      0.489184   142A      0.495346   143A      0.501620  
     144A      0.502894   145A      0.505752   146A      0.508843  
     147A      0.511875   148A      0.515770   149A      0.519653  
     150A      0.521391   151A      0.524276   152A      0.533341  
     153A      0.537143   154A      0.543622   155A      0.548288  
     156A      0.550639   157A      0.557322   158A      0.571524  
     159A      0.576042   160A      0.578418   161A      0.587396  
     162A      0.591689   163A      0.601777   164A      0.607600  
     165A      0.612648   166A      0.626852   167A      0.631805  
     168A      0.635162   169A      0.636899   170A      0.645290  
     171A      0.651617   172A      0.657598   173A      0.667384  
     174A      0.668913   175A      0.675733   176A      0.686748  
     177A      0.695301   178A      0.699984   179A      0.709736  
     180A      0.711735   181A      0.716674   182A      0.727706  
     183A      0.736049   184A      0.746515   185A      0.748573  
     186A      0.751524   187A      0.763671   188A      0.766308  
     189A      0.778013   190A      0.784382   191A      0.789147  
     192A      0.791579   193A      0.800044   194A      0.810957  
     195A      0.821613   196A      0.823345   197A      0.829194  
     198A      0.835828   199A      0.847201   200A      0.848914  
     201A      0.856619   202A      0.866020   203A      0.870100  
     204A      0.876036   205A      0.882075   206A      0.886065  
     207A      0.887106   208A      0.888901   209A      0.892775  
     210A      0.898008   211A      0.910157   212A      0.913266  
     213A      0.921235   214A      0.923119   215A      0.931720  
     216A      0.935673   217A      0.937464   218A      0.942582  
     219A      0.951281   220A      0.951478   221A      0.958941  
     222A      0.964720   223A      0.971704   224A      0.977226  
     225A      0.982675   226A      0.989188   227A      0.991852  
     228A      0.997652   229A      1.000173   230A      1.009073  
     231A      1.024482   232A      1.028154   233A      1.030541  
     234A      1.034808   235A      1.041471   236A      1.048031  
     237A      1.055014   238A      1.057807   239A      1.062551  
     240A      1.064985   241A      1.067462   242A      1.073119  
     243A      1.082027   244A      1.084604   245A      1.086248  
     246A      1.095463   247A      1.097322   248A      1.099744  
     249A      1.107717   250A      1.112968   251A      1.123227  
     252A      1.124451   253A      1.131399   254A      1.135049  
     255A      1.144150   256A      1.152499   257A      1.157337  
     258A      1.162777   259A      1.164134   260A      1.169499  
     261A      1.176686   262A      1.186382   263A      1.189158  
     264A      1.197258   265A      1.199137   266A      1.210132  
     267A      1.214202   268A      1.215441   269A      1.229241  
     270A      1.233054   271A      1.238947   272A      1.243791  
     273A      1.256659   274A      1.258648   275A      1.271144  
     276A      1.276647   277A      1.279132   278A      1.290383  
     279A      1.292713   280A      1.300041   281A      1.304258  
     282A      1.316739   283A      1.325856   284A      1.333748  
     285A      1.344235   286A      1.356580   287A      1.364243  
     288A      1.368318   289A      1.380014   290A      1.385144  
     291A      1.396914   292A      1.403946   293A      1.414097  
     294A      1.420455   295A      1.422009   296A      1.439892  
     297A      1.445595   298A      1.453289   299A      1.460292  
     300A      1.472896   301A      1.477236   302A      1.483411  
     303A      1.489501   304A      1.492799   305A      1.504632  
     306A      1.514505   307A      1.515915   308A      1.530653  
     309A      1.536752   310A      1.548811   311A      1.551460  
     312A      1.570302   313A      1.578071   314A      1.585448  
     315A      1.593544   316A      1.600036   317A      1.612569  
     318A      1.617246   319A      1.619420   320A      1.628729  
     321A      1.643304   322A      1.657348   323A      1.664982  
     324A      1.671329   325A      1.679583   326A      1.687128  
     327A      1.695532   328A      1.703821   329A      1.708484  
     330A      1.716421   331A      1.728212   332A      1.744604  
     333A      1.746420   334A      1.758408   335A      1.766816  
     336A      1.769034   337A      1.781176   338A      1.782143  
     339A      1.795885   340A      1.801254   341A      1.815386  
     342A      1.823901   343A      1.832095   344A      1.839934  
     345A      1.852702   346A      1.856423   347A      1.865047  
     348A      1.870582   349A      1.875662   350A      1.890149  
     351A      1.894094   352A      1.900198   353A      1.923393  
     354A      1.924502   355A      1.940331   356A      1.943358  
     357A      1.946153   358A      1.953117   359A      1.966206  
     360A      1.986039   361A      1.986952   362A      1.993994  
     363A      2.000434   364A      2.005797   365A      2.013501  
     366A      2.025204   367A      2.031909   368A      2.042111  
     369A      2.051491   370A      2.060614   371A      2.068260  
     372A      2.090438   373A      2.099523   374A      2.109642  
     375A      2.111497   376A      2.130638   377A      2.134992  
     378A      2.148308   379A      2.156631   380A      2.162411  
     381A      2.166065   382A      2.177117   383A      2.187192  
     384A      2.206071   385A      2.215389   386A      2.227352  
     387A      2.227604   388A      2.248713   389A      2.263439  
     390A      2.277491   391A      2.291500   392A      2.310770  
     393A      2.321084   394A      2.335738   395A      2.342409  
     396A      2.353363   397A      2.356969   398A      2.362970  
     399A      2.363875   400A      2.398487   401A      2.407063  
     402A      2.417119   403A      2.438897   404A      2.470391  
     405A      2.480300   406A      2.495720   407A      2.501780  
     408A      2.511260   409A      2.522721   410A      2.534029  
     411A      2.541479   412A      2.562494   413A      2.580719  
     414A      2.592410   415A      2.599120   416A      2.613645  
     417A      2.616984   418A      2.629038   419A      2.654717  
     420A      2.673046   421A      2.691259   422A      2.710622  
     423A      2.720329   424A      2.735231   425A      2.742377  
     426A      2.758356   427A      2.762842   428A      2.768838  
     429A      2.812419   430A      2.814357   431A      2.845593  
     432A      2.866786   433A      2.882289   434A      2.892921  
     435A      2.903834   436A      2.942376   437A      2.961154  
     438A      2.968874   439A      2.991916   440A      3.023783  
     441A      3.043588   442A      3.061682   443A      3.084709  
     444A      3.093196   445A      3.115856   446A      3.133624  
     447A      3.146114   448A      3.173586   449A      3.177359  
     450A      3.196962   451A      3.205853   452A      3.227248  
     453A      3.243601   454A      3.246179   455A      3.255962  
     456A      3.262367   457A      3.271901   458A      3.286044  
     459A      3.298956   460A      3.303965   461A      3.317151  
     462A      3.327769   463A      3.329566   464A      3.354338  
     465A      3.365993   466A      3.390191   467A      3.399039  
     468A      3.411739   469A      3.423813   470A      3.444440  
     471A      3.452019   472A      3.464027   473A      3.473080  
     474A      3.492288   475A      3.498663   476A      3.501151  
     477A      3.509486   478A      3.522126   479A      3.547687  
     480A      3.554719   481A      3.562753   482A      3.572689  
     483A      3.575224   484A      3.588949   485A      3.597602  
     486A      3.604777   487A      3.613451   488A      3.626450  
     489A      3.632190   490A      3.649254   491A      3.658975  
     492A      3.666465   493A      3.680925   494A      3.693464  
     495A      3.710147   496A      3.718391   497A      3.731493  
     498A      3.748618   499A      3.757300   500A      3.764752  
     501A      3.771076   502A      3.783405   503A      3.814856  
     504A      3.829699   505A      3.837794   506A      3.842728  
     507A      3.874024   508A      3.874758   509A      3.880917  
     510A      3.897415   511A      3.903596   512A      3.916555  
     513A      3.919103   514A      3.924018   515A      3.932606  
     516A      3.945339   517A      3.953802   518A      3.957065  
     519A      3.966928   520A      3.982808   521A      3.990322  
     522A      4.012524   523A      4.023513   524A      4.045460  
     525A      4.054855   526A      4.063133   527A      4.074421  
     528A      4.085650   529A      4.095940   530A      4.098643  
     531A      4.117527   532A      4.125666   533A      4.129722  
     534A      4.140785   535A      4.152288   536A      4.164413  
     537A      4.186480   538A      4.196616   539A      4.204134  
     540A      4.217486   541A      4.228079   542A      4.231980  
     543A      4.248543   544A      4.259700   545A      4.259909  
     546A      4.273642   547A      4.291046   548A      4.311223  
     549A      4.320101   550A      4.346045   551A      4.354133  
     552A      4.361352   553A      4.368224   554A      4.375791  
     555A      4.396613   556A      4.398572   557A      4.402895  
     558A      4.421847   559A      4.436787   560A      4.439773  
     561A      4.444956   562A      4.465279   563A      4.470284  
     564A      4.496526   565A      4.502203   566A      4.506755  
     567A      4.527218   568A      4.547139   569A      4.553280  
     570A      4.563186   571A      4.574497   572A      4.578923  
     573A      4.595321   574A      4.626709   575A      4.659530  
     576A      4.679716   577A      4.696675   578A      4.703047  
     579A      4.730039   580A      4.749329   581A      4.762654  
     582A      4.790429   583A      4.791608   584A      4.801591  
     585A      4.823370   586A      4.827286   587A      4.839600  
     588A      4.857323   589A      4.874581   590A      4.919311  
     591A      4.937701   592A      4.949468   593A      4.953698  
     594A      4.980648   595A      4.992484   596A      5.002099  
     597A      5.021551   598A      5.031962   599A      5.063126  
     600A      5.072207   601A      5.081189   602A      5.092962  
     603A      5.099889   604A      5.117283   605A      5.142659  
     606A      5.146302   607A      5.168038   608A      5.176484  
     609A      5.195656   610A      5.216146   611A      5.228796  
     612A      5.253968   613A      5.273040   614A      5.295537  
     615A      5.304113   616A      5.310601   617A      5.320128  
     618A      5.337234   619A      5.380815   620A      5.387133  
     621A      5.423619   622A      5.449148   623A      5.463413  
     624A      5.468867   625A      5.485106   626A      5.509118  
     627A      5.557589   628A      5.584827   629A      5.591527  
     630A      5.604929   631A      5.632129   632A      5.665598  
     633A      5.676020   634A      5.722182   635A      5.744690  
     636A      5.755687   637A      5.804391   638A      5.806729  
     639A      5.863796   640A      5.875585   641A      5.923977  
     642A      5.958296   643A      5.972775   644A      5.992833  
     645A      6.056386   646A      6.084170   647A      6.110006  
     648A      6.124050   649A      6.149023   650A      6.162883  
     651A      6.190673   652A      6.223939   653A      6.279399  
     654A      6.294164   655A      6.391898   656A      6.425229  
     657A      6.465512   658A      6.522410   659A      6.584101  
     660A      6.669847   661A      6.715028   662A      6.726792  
     663A      6.781664   664A      6.796873   665A      6.829087  
     666A      6.891988   667A      6.915873   668A      6.988243  
     669A      7.026551   670A      7.035331   671A      7.124464  
     672A      7.198812   673A      7.217981   674A      7.230626  
     675A      7.349861   676A      7.426798   677A      7.445287  
     678A      7.671801   679A      7.706982   680A      7.718338  
     681A      7.789845   682A      7.943717   683A      8.099582  
     684A      8.891494   685A     15.658730   686A     15.983822  
     687A     16.894246   688A     17.839324   689A     18.510076  
     690A     18.641935   691A     20.146209   692A     20.782134  
     693A     20.934144   694A     21.256051  

    Final Occupation by Irrep:
              A 
    DOCC [    44 ]

  @DF-RHF Final Energy:  -896.54423795539219

   => Energetics <=

    Nuclear Repulsion Energy =            659.0521630513406990
    One-Electron Energy =               -2537.4859232030830754
    Two-Electron Energy =                 981.8895221963500717
    Total Energy =                       -896.5442379553921910

Computation Completed

*** tstop() called on c404-052.stampede2.tacc.utexas.edu at Sun Feb 28 15:05:40 2021
Module time:
	user time   =     841.65 seconds =      14.03 minutes
	system time =      58.12 seconds =       0.97 minutes
	total time  =         46 seconds =       0.77 minutes
Total time:
	user time   =     841.65 seconds =      14.03 minutes
	system time =      58.12 seconds =       0.97 minutes
	total time  =         46 seconds =       0.77 minutes
   => Loading Basis Set <=

    Name: (AUG-CC-PVTZ AUX)
    Role: RIFIT
    Keyword: DF_BASIS_MP2
    atoms 1     entry CL         line   742 file /home1/07844/xy3866/miniconda3/envs/p4env/share/psi4/basis/aug-cc-pvtz-ri.gbs 
    atoms 2     entry O          line   264 file /home1/07844/xy3866/miniconda3/envs/p4env/share/psi4/basis/aug-cc-pvtz-ri.gbs 
    atoms 3     entry N          line   206 file /home1/07844/xy3866/miniconda3/envs/p4env/share/psi4/basis/aug-cc-pvtz-ri.gbs 
    atoms 4-11  entry C          line   148 file /home1/07844/xy3866/miniconda3/envs/p4env/share/psi4/basis/aug-cc-pvtz-ri.gbs 
    atoms 12-19 entry H          line    30 file /home1/07844/xy3866/miniconda3/envs/p4env/share/psi4/basis/aug-cc-pvtz-ri.gbs 


*** tstart() called on c404-052.stampede2.tacc.utexas.edu
*** at Sun Feb 28 15:05:41 2021


  //>>>>>>>>>>>>>>>>>>>>>>>>>>>>>>>>>>>//
  //               DFMP2               //
  //<<<<<<<<<<<<<<<<<<<<<<<<<<<<<<<<<<<//

	 --------------------------------------------------------
	                          DF-MP2                         
	      2nd-Order Density-Fitted Moller-Plesset Theory     
	              RMP2 Wavefunction,  32 Threads             
	                                                         
	        Rob Parrish, Justin Turney, Andy Simmonett,      
	           Ed Hohenstein, and C. David Sherrill          
	 --------------------------------------------------------

   => Auxiliary Basis Set <=

  Basis Set: (AUG-CC-PVTZ AUX)
    Blend: AUG-CC-PVTZ-RI
    Number of shells: 429
    Number of basis functions: 1575
    Number of Cartesian functions: 1991
    Spherical Harmonics?: true
    Max angular momentum: 4

	 --------------------------------------------------------
	                 NBF =   694, NAUX =  1575
	 --------------------------------------------------------
	   CLASS    FOCC     OCC    AOCC    AVIR     VIR    FVIR
	   PAIRS       0      44      44     650     650       0
	 --------------------------------------------------------

  DFHelper Memory: AOs need 5.384 GiB; user supplied 22.352 GiB. Using in-core AOs.


         ------------------------------------------------------------
                                     CPHF                           
                                  Rob Parrish                       
         ------------------------------------------------------------

  ==> Geometry <==

    Molecular point group: c1
    Full point group: C1

    Geometry (in Angstrom), charge = 0, multiplicity = 1:

       Center              X                  Y                   Z               Mass       
    ------------   -----------------  -----------------  -----------------  -----------------
         CL           0.994253914544     2.271039407979    -0.006309811415    34.968852682000
         O           -2.584250085456    -1.583488592021    -0.025150811415    15.994914619570
         N           -1.198079085456     0.264492407979    -0.015072811415    14.003074004430
         C            0.079989914544    -0.313402592021    -0.004838811415    12.000000000000
         C            1.204693914544     0.534608407979    -0.000306811415    12.000000000000
         C            0.298775914544    -1.701225592021    -0.000237811415    12.000000000000
         C            2.500332914544     0.026580407979     0.010480188585    12.000000000000
         C            1.598015914544    -2.206044592021     0.010215188585    12.000000000000
         C            2.672419214544    -1.154926092021     0.014725988585    12.000000000000
         C           -2.427432085456    -0.363452592021    -0.016105811415    12.000000000000
         C           -3.592118085456     0.605071407979     0.037596188585    12.000000000000
         H           -0.557902085456    -2.361524592021    -0.005133811415     1.007825032230
         H           -1.210178085456     1.277841407979    -0.011878811415     1.007825032230
         H            3.339302914544     0.716577407979     0.014182188585     1.007825032230
         H            1.741774914544    -3.283456592021     0.013676188585     1.007825032230
         H            3.712064914544    -1.751163592021     0.023376188585     1.007825032230
         H           -3.748420085456     0.939320407979     1.067924188585     1.007825032230
         H           -4.486506085456     0.081351407979    -0.298990811415     1.007825032230
         H           -3.426259085456     1.485621407979    -0.589171811415     1.007825032230

  Nuclear repulsion =  659.052163051340699
  Reference energy  = -896.544237955392191

  ==> Basis Set <==

  Basis Set: AUG-CC-PVTZ
    Blend: AUG-CC-PVTZ
    Number of shells: 228
    Number of basis functions: 694
    Number of Cartesian functions: 809
    Spherical Harmonics?: true
    Max angular momentum: 3

  ==> CGRSolver (by Rob Parrish) <==

   Number of roots    =         1
   Preconditioning    =    JACOBI
   Convergence cutoff =     1E-06
   Maximum iterations =       100

  ==> CPHFRHamiltonian (by Rob Parrish) <== 

  ==> MemDFJK: Density-Fitted J/K Matrices <==

    J tasked:                   Yes
    K tasked:                   Yes
    wK tasked:                   No
    OpenMP threads:              32
    Memory [MiB]:             22888
    Algorithm:                 Core
    Schwarz Cutoff:           1E-12
    Mask sparsity (%):       7.5725
    Fitting Condition:        1E-10

   => Auxiliary Basis Set <=

  Basis Set: (AUG-CC-PVTZ AUX)
    Blend: AUG-CC-PVTZ-JKFIT
    Number of shells: 454
    Number of basis functions: 1554
    Number of Cartesian functions: 1930
    Spherical Harmonics?: true
    Max angular momentum: 4

  ==> CPHF Iterations <==

  => Iterations <=

             Iter  Converged  Remaining    Residual
  CGR           1          0          1   1.191E-01
  CGR           2          0          1   3.866E-02
  CGR           3          0          1   2.057E-02
  CGR           4          0          1   7.932E-03
  CGR           5          0          1   3.399E-03
  CGR           6          0          1   1.492E-03
  CGR           7          0          1   4.971E-04
  CGR           8          0          1   2.334E-04
  CGR           9          0          1   9.923E-05
  CGR          10          0          1   4.454E-05
  CGR          11          0          1   1.452E-05
  CGR          12          0          1   4.934E-06
  CGR          13          0          1   1.801E-06
  CGR          14          1          0   6.145E-07

    CGRSolver converged.

	-----------------------------------------------------------
	 ==================> DF-MP2 Energies <==================== 
	-----------------------------------------------------------
	 Reference Energy          =    -896.5442379553921910 [Eh]
	 Singles Energy            =      -0.0000000000000000 [Eh]
	 Same-Spin Energy          =      -0.5334077319874684 [Eh]
	 Opposite-Spin Energy      =      -1.6219438645279771 [Eh]
	 Correlation Energy        =      -2.1553515965154455 [Eh]
	 Total Energy              =    -898.6995895519075930 [Eh]
	-----------------------------------------------------------
	 ================> DF-SCS-MP2 Energies <================== 
	-----------------------------------------------------------
	 SCS Same-Spin Scale       =       0.3333333333333333 [-]
	 SCS Opposite-Spin Scale   =       1.2000000000000000 [-]
	 SCS Same-Spin Energy      =      -0.1778025773291561 [Eh]
	 SCS Opposite-Spin Energy  =      -1.9463326374335725 [Eh]
	 SCS Correlation Energy    =      -2.1241352147627288 [Eh]
	 SCS Total Energy          =    -898.6683731701549505 [Eh]
	-----------------------------------------------------------



Properties will be evaluated at  -0.000000,  -0.000000,  -0.000000 [a0]

Properties computed using the MP2 density matrix

  Nuclear Dipole Moment: [e a0]
     X:    -5.2653      Y:    -4.8017      Z:     0.2063

  Electronic Dipole Moment: [e a0]
     X:     5.4845      Y:     5.5224      Z:    -0.1714

  Dipole Moment: [e a0]
     X:     0.2192      Y:     0.7207      Z:     0.0349     Total:     0.7541

  Dipole Moment: [D]
     X:     0.5572      Y:     1.8318      Z:     0.0888     Total:     1.9167


*** tstop() called on c404-052.stampede2.tacc.utexas.edu at Sun Feb 28 15:10:59 2021
Module time:
	user time   =    2503.87 seconds =      41.73 minutes
	system time =      80.15 seconds =       1.34 minutes
	total time  =        318 seconds =       5.30 minutes
Total time:
	user time   =    3346.48 seconds =      55.77 minutes
	system time =     138.29 seconds =       2.30 minutes
	total time  =        365 seconds =       6.08 minutes

    Psi4 stopped on: Sunday, 28 February 2021 03:10PM
    Psi4 wall time for execution: 0:06:05.72

*** Psi4 exiting successfully. Buy a developer a beer!
