
    -----------------------------------------------------------------------
          Psi4: An Open-Source Ab Initio Electronic Structure Package
                               Psi4 1.4a3.dev225 

                         Git: Rev {master} 7105e37 


    D. G. A. Smith, L. A. Burns, A. C. Simmonett, R. M. Parrish,
    M. C. Schieber, R. Galvelis, P. Kraus, H. Kruse, R. Di Remigio,
    A. Alenaizan, A. M. James, S. Lehtola, J. P. Misiewicz, M. Scheurer,
    R. A. Shaw, J. B. Schriber, Y. Xie, Z. L. Glick, D. A. Sirianni,
    J. S. O'Brien, J. M. Waldrop, A. Kumar, E. G. Hohenstein,
    B. P. Pritchard, B. R. Brooks, H. F. Schaefer III, A. Yu. Sokolov,
    K. Patkowski, A. E. DePrince III, U. Bozkaya, R. A. King,
    F. A. Evangelista, J. M. Turney, T. D. Crawford, C. D. Sherrill,
    J. Chem. Phys. 152(18) 184108 (2020). https://doi.org/10.1063/5.0006002

                            Additional Code Authors
    E. T. Seidl, C. L. Janssen, E. F. Valeev, M. L. Leininger,
    J. F. Gonthier, R. M. Richard, H. R. McAlexander, M. Saitow, X. Wang,
    P. Verma, and M. H. Lechner

             Previous Authors, Complete List of Code Contributors,
                       and Citations for Specific Modules
    https://github.com/psi4/psi4/blob/master/codemeta.json
    https://github.com/psi4/psi4/graphs/contributors
    http://psicode.org/psi4manual/master/introduction.html#citing-psifour

    -----------------------------------------------------------------------


    Psi4 started on: Sunday, 28 February 2021 05:06AM

    Process ID: 131953
    Host:       c404-052.stampede2.tacc.utexas.edu
    PSIDATADIR: /home1/07844/xy3866/miniconda3/envs/p4env/share/psi4
    Memory:     500.0 MiB
    Threads:    32
    
  ==> Input File <==

--------------------------------------------------------------------------
#psi4
#
memory 32 gb

molecule  {
0 1
 Cl        1.0239510     2.3134080    -0.0075990
  O       -2.5545530    -1.5411200    -0.0264400
  N       -1.1683820     0.3068610    -0.0163620
  C        0.1096870    -0.2710340    -0.0061280
  C        1.2343910     0.5769770    -0.0015960
  C        0.3284730    -1.6588570    -0.0015270
  C        2.5300300     0.0689490     0.0091910
  C        1.6277130    -2.1636760     0.0089260
  C        2.7309420    -1.3104680     0.0141480
  C       -2.3285014    -0.2192848    -0.1174680
  C       -3.5624210     0.6474400     0.0363070
  H       -0.5282050    -2.3191560    -0.0064230
  H       -1.1804810     1.3202100    -0.0131680
  H        3.3690000     0.7589460     0.0128930
  H        1.7714720    -3.2410880     0.0123870
  H        3.7417620    -1.7087950     0.0220870
  H       -3.7187230     0.9816890     1.0666350
  H       -4.4568090     0.1237200    -0.3002800
  H       -3.3965620     1.5279900    -0.5904610
units angstrom
no_reorient  #important for SAPT in psi4, default
symmetry c1  #important for SAPT in psi4, default
}

set PROPERTIES_ORIGIN ["COM"]
properties('MP2/aug-cc-pvtz', properties = ['dipole'])
--------------------------------------------------------------------------

  Memory set to  29.802 GiB by Python driver.
    SCF Algorithm Type (re)set to DF.

*** tstart() called on c404-052.stampede2.tacc.utexas.edu
*** at Sun Feb 28 05:06:46 2021

   => Loading Basis Set <=

    Name: AUG-CC-PVTZ
    Role: ORBITAL
    Keyword: BASIS
    atoms 1     entry CL         line   988 file /home1/07844/xy3866/miniconda3/envs/p4env/share/psi4/basis/aug-cc-pvtz.gbs 
    atoms 2     entry O          line   331 file /home1/07844/xy3866/miniconda3/envs/p4env/share/psi4/basis/aug-cc-pvtz.gbs 
    atoms 3     entry N          line   285 file /home1/07844/xy3866/miniconda3/envs/p4env/share/psi4/basis/aug-cc-pvtz.gbs 
    atoms 4-11  entry C          line   239 file /home1/07844/xy3866/miniconda3/envs/p4env/share/psi4/basis/aug-cc-pvtz.gbs 
    atoms 12-19 entry H          line    40 file /home1/07844/xy3866/miniconda3/envs/p4env/share/psi4/basis/aug-cc-pvtz.gbs 


         ---------------------------------------------------------
                                   SCF
               by Justin Turney, Rob Parrish, Andy Simmonett
                          and Daniel G. A. Smith
                              RHF Reference
                       32 Threads,  30517 MiB Core
         ---------------------------------------------------------

  ==> Geometry <==

    Molecular point group: c1
    Full point group: C1

    Geometry (in Angstrom), charge = 0, multiplicity = 1:

       Center              X                  Y                   Z               Mass       
    ------------   -----------------  -----------------  -----------------  -----------------
         CL           0.987292336791     2.277862690298     0.000744235436    34.968852682000
         O           -2.591211663209    -1.576665309702    -0.018096764564    15.994914619570
         N           -1.205040663209     0.271315690298    -0.008018764564    14.003074004430
         C            0.073028336791    -0.306579309702     0.002215235436    12.000000000000
         C            1.197732336791     0.541431690298     0.006747235436    12.000000000000
         C            0.291814336791    -1.694402309702     0.006816235436    12.000000000000
         C            2.493371336791     0.033403690298     0.017534235436    12.000000000000
         C            1.591054336791    -2.199221309702     0.017269235436    12.000000000000
         C            2.694283336791    -1.346013309702     0.022491235436    12.000000000000
         C           -2.365160063209    -0.254830109702    -0.109124764564    12.000000000000
         C           -3.599079663209     0.611894690298     0.044650235436    12.000000000000
         H           -0.564863663209    -2.354701309702     0.001920235436     1.007825032230
         H           -1.217139663209     1.284664690298    -0.004824764564     1.007825032230
         H            3.332341336791     0.723400690298     0.021236235436     1.007825032230
         H            1.734813336791    -3.276633309702     0.020730235436     1.007825032230
         H            3.705103336791    -1.744340309702     0.030430235436     1.007825032230
         H           -3.755381663209     0.946143690298     1.074978235436     1.007825032230
         H           -4.493467663209     0.088174690298    -0.291936764564     1.007825032230
         H           -3.433220663209     1.492444690298    -0.582117764564     1.007825032230

  Running in c1 symmetry.

  Rotational constants: A =      0.04533  B =      0.02501  C =      0.01617 [cm^-1]
  Rotational constants: A =   1358.93135  B =    749.86462  C =    484.85775 [MHz]
  Nuclear repulsion =  656.707178080396375

  Charge       = 0
  Multiplicity = 1
  Electrons    = 88
  Nalpha       = 44
  Nbeta        = 44

  ==> Algorithm <==

  SCF Algorithm Type is DF.
  DIIS enabled.
  MOM disabled.
  Fractional occupation disabled.
  Guess Type is SAD.
  Energy threshold   = 1.00e-10
  Density threshold  = 1.00e-10
  Integral threshold = 1.00e-12

  ==> Primary Basis <==

  Basis Set: AUG-CC-PVTZ
    Blend: AUG-CC-PVTZ
    Number of shells: 228
    Number of basis functions: 694
    Number of Cartesian functions: 809
    Spherical Harmonics?: true
    Max angular momentum: 3

   => Loading Basis Set <=

    Name: (AUG-CC-PVTZ AUX)
    Role: JKFIT
    Keyword: DF_BASIS_SCF
    atoms 1     entry CL         line   816 file /home1/07844/xy3866/miniconda3/envs/p4env/share/psi4/basis/aug-cc-pvtz-jkfit.gbs 
    atoms 2     entry O          line   286 file /home1/07844/xy3866/miniconda3/envs/p4env/share/psi4/basis/aug-cc-pvtz-jkfit.gbs 
    atoms 3     entry N          line   224 file /home1/07844/xy3866/miniconda3/envs/p4env/share/psi4/basis/aug-cc-pvtz-jkfit.gbs 
    atoms 4-11  entry C          line   162 file /home1/07844/xy3866/miniconda3/envs/p4env/share/psi4/basis/aug-cc-pvtz-jkfit.gbs 
    atoms 12-19 entry H          line    70 file /home1/07844/xy3866/miniconda3/envs/p4env/share/psi4/basis/aug-cc-pvtz-jkfit.gbs 

  ==> Integral Setup <==

  DFHelper Memory: AOs need 5.156 GiB; user supplied 22.352 GiB. Using in-core AOs.

  ==> MemDFJK: Density-Fitted J/K Matrices <==

    J tasked:                   Yes
    K tasked:                   Yes
    wK tasked:                   No
    OpenMP threads:              32
    Memory [MiB]:             22888
    Algorithm:                 Core
    Schwarz Cutoff:           1E-12
    Mask sparsity (%):      11.6619
    Fitting Condition:        1E-10

   => Auxiliary Basis Set <=

  Basis Set: (AUG-CC-PVTZ AUX)
    Blend: AUG-CC-PVTZ-JKFIT
    Number of shells: 454
    Number of basis functions: 1554
    Number of Cartesian functions: 1930
    Spherical Harmonics?: true
    Max angular momentum: 4

  Minimum eigenvalue in the overlap matrix is 6.9053104085E-07.
  Reciprocal condition number of the overlap matrix is 3.7912468137E-08.
    Using symmetric orthogonalization.

  ==> Pre-Iterations <==

  SCF Guess: Superposition of Atomic Densities via on-the-fly atomic UHF (no occupation information).

   -------------------------
    Irrep   Nso     Nmo    
   -------------------------
     A        694     694 
   -------------------------
    Total     694     694
   -------------------------

  ==> Iterations <==

                           Total Energy        Delta E     RMS |[F,P]|

   @DF-RHF iter SAD:  -895.99848657061091   -8.95998e+02   0.00000e+00 
   @DF-RHF iter   1:  -896.22250808357080   -2.24022e-01   1.14692e-03 DIIS
   @DF-RHF iter   2:  -896.45935752257719   -2.36849e-01   7.43378e-04 DIIS
   @DF-RHF iter   3:  -896.56500252431476   -1.05645e-01   1.63918e-04 DIIS
   @DF-RHF iter   4:  -896.57158651544250   -6.58399e-03   6.32676e-05 DIIS
   @DF-RHF iter   5:  -896.57278320480305   -1.19669e-03   1.18463e-05 DIIS
   @DF-RHF iter   6:  -896.57285384305567   -7.06383e-05   4.60070e-06 DIIS
   @DF-RHF iter   7:  -896.57286832231534   -1.44793e-05   1.84853e-06 DIIS
   @DF-RHF iter   8:  -896.57287125599373   -2.93368e-06   8.55768e-07 DIIS
   @DF-RHF iter   9:  -896.57287206042736   -8.04434e-07   4.45253e-07 DIIS
   @DF-RHF iter  10:  -896.57287229544283   -2.35015e-07   1.83236e-07 DIIS
   @DF-RHF iter  11:  -896.57287234411865   -4.86758e-08   6.41262e-08 DIIS
   @DF-RHF iter  12:  -896.57287234798900   -3.87035e-09   2.28508e-08 DIIS
   @DF-RHF iter  13:  -896.57287234835530   -3.66299e-10   7.85150e-09 DIIS
   @DF-RHF iter  14:  -896.57287234840067   -4.53610e-11   3.85639e-09 DIIS
   @DF-RHF iter  15:  -896.57287234841033   -9.66338e-12   1.69430e-09 DIIS
   @DF-RHF iter  16:  -896.57287234841374   -3.41061e-12   6.72522e-10 DIIS
   @DF-RHF iter  17:  -896.57287234841397   -2.27374e-13   3.12784e-10 DIIS
   @DF-RHF iter  18:  -896.57287234841419   -2.27374e-13   1.21407e-10 DIIS
   @DF-RHF iter  19:  -896.57287234841374    4.54747e-13   5.18473e-11 DIIS
  Energy and wave function converged.


  ==> Post-Iterations <==

    Orbital Energies [Eh]
    ---------------------

    Doubly Occupied:                                                      

       1A   -104.863887     2A    -20.506667     3A    -15.632380  
       4A    -11.365217     5A    -11.318916     6A    -11.315695  
       7A    -11.262421     8A    -11.253324     9A    -11.252046  
      10A    -11.248456    11A    -11.246904    12A    -10.587696  
      13A     -8.054553    14A     -8.052788    15A     -8.052690  
      16A     -1.359238    17A     -1.258017    18A     -1.193822  
      19A     -1.132295    20A     -1.054564    21A     -1.013568  
      22A     -0.992072    23A     -0.891429    24A     -0.840176  
      25A     -0.801483    26A     -0.750881    27A     -0.685646  
      28A     -0.670527    29A     -0.641652    30A     -0.638663  
      31A     -0.623755    32A     -0.598321    33A     -0.583313  
      34A     -0.576035    35A     -0.545501    36A     -0.541501  
      37A     -0.530535    38A     -0.518028    39A     -0.481548  
      40A     -0.477313    41A     -0.423047    42A     -0.411852  
      43A     -0.349928    44A     -0.330459  

    Virtual:                                                              

      45A      0.026026    46A      0.027263    47A      0.036317  
      48A      0.043876    49A      0.045645    50A      0.049283  
      51A      0.061922    52A      0.070867    53A      0.081452  
      54A      0.084592    55A      0.086827    56A      0.092062  
      57A      0.094536    58A      0.099228    59A      0.106065  
      60A      0.108572    61A      0.111300    62A      0.115209  
      63A      0.119497    64A      0.123788    65A      0.124896  
      66A      0.130827    67A      0.132815    68A      0.136006  
      69A      0.139291    70A      0.145547    71A      0.150002  
      72A      0.155924    73A      0.157193    74A      0.159286  
      75A      0.165023    76A      0.171861    77A      0.175057  
      78A      0.177969    79A      0.184975    80A      0.189027  
      81A      0.192344    82A      0.197925    83A      0.207312  
      84A      0.207930    85A      0.213858    86A      0.224774  
      87A      0.228268    88A      0.232320    89A      0.242514  
      90A      0.246809    91A      0.252823    92A      0.260030  
      93A      0.265151    94A      0.271207    95A      0.274546  
      96A      0.280120    97A      0.282690    98A      0.285095  
      99A      0.294754   100A      0.297803   101A      0.306531  
     102A      0.310525   103A      0.316156   104A      0.319375  
     105A      0.323716   106A      0.326093   107A      0.329026  
     108A      0.332686   109A      0.335645   110A      0.338776  
     111A      0.347811   112A      0.351239   113A      0.358947  
     114A      0.361539   115A      0.366869   116A      0.373930  
     117A      0.380815   118A      0.381993   119A      0.386163  
     120A      0.389525   121A      0.402791   122A      0.404064  
     123A      0.410348   124A      0.414757   125A      0.421973  
     126A      0.423618   127A      0.425126   128A      0.428896  
     129A      0.433954   130A      0.436869   131A      0.441689  
     132A      0.451346   133A      0.455104   134A      0.461675  
     135A      0.467436   136A      0.472572   137A      0.473547  
     138A      0.478539   139A      0.482869   140A      0.485817  
     141A      0.489308   142A      0.490652   143A      0.496985  
     144A      0.498262   145A      0.501906   146A      0.507500  
     147A      0.510799   148A      0.514692   149A      0.520179  
     150A      0.523630   151A      0.526318   152A      0.532821  
     153A      0.533679   154A      0.540594   155A      0.541311  
     156A      0.553739   157A      0.560349   158A      0.563485  
     159A      0.572101   160A      0.575362   161A      0.589050  
     162A      0.591075   163A      0.597200   164A      0.606646  
     165A      0.616141   166A      0.620716   167A      0.632833  
     168A      0.635914   169A      0.644710   170A      0.648672  
     171A      0.650016   172A      0.657333   173A      0.664220  
     174A      0.673221   175A      0.675320   176A      0.689303  
     177A      0.691991   178A      0.698624   179A      0.700802  
     180A      0.703745   181A      0.714765   182A      0.724254  
     183A      0.736847   184A      0.745245   185A      0.746091  
     186A      0.751510   187A      0.757948   188A      0.762241  
     189A      0.772540   190A      0.777928   191A      0.786109  
     192A      0.793244   193A      0.796219   194A      0.812641  
     195A      0.822608   196A      0.826819   197A      0.828796  
     198A      0.835996   199A      0.843653   200A      0.851167  
     201A      0.852899   202A      0.860765   203A      0.866009  
     204A      0.872687   205A      0.881849   206A      0.883890  
     207A      0.886626   208A      0.889767   209A      0.892743  
     210A      0.900394   211A      0.900794   212A      0.906224  
     213A      0.916716   214A      0.920192   215A      0.924352  
     216A      0.928840   217A      0.931983   218A      0.935878  
     219A      0.945467   220A      0.950725   221A      0.952020  
     222A      0.954978   223A      0.959556   224A      0.965397  
     225A      0.978988   226A      0.987781   227A      0.992046  
     228A      0.993105   229A      1.002830   230A      1.004078  
     231A      1.016173   232A      1.018624   233A      1.028934  
     234A      1.030557   235A      1.037832   236A      1.042638  
     237A      1.043997   238A      1.050257   239A      1.061878  
     240A      1.064913   241A      1.067271   242A      1.069428  
     243A      1.075851   244A      1.081426   245A      1.084907  
     246A      1.089763   247A      1.096048   248A      1.096924  
     249A      1.105990   250A      1.110346   251A      1.117287  
     252A      1.127838   253A      1.130638   254A      1.133952  
     255A      1.139283   256A      1.148974   257A      1.150678  
     258A      1.154036   259A      1.164588   260A      1.170156  
     261A      1.177572   262A      1.185202   263A      1.189873  
     264A      1.196788   265A      1.201380   266A      1.206778  
     267A      1.212322   268A      1.216820   269A      1.229197  
     270A      1.230219   271A      1.243842   272A      1.245860  
     273A      1.248970   274A      1.253791   275A      1.257520  
     276A      1.273179   277A      1.278089   278A      1.282643  
     279A      1.288383   280A      1.290883   281A      1.300290  
     282A      1.308661   283A      1.319658   284A      1.329680  
     285A      1.340812   286A      1.353229   287A      1.362179  
     288A      1.363623   289A      1.373810   290A      1.383223  
     291A      1.388402   292A      1.400399   293A      1.409774  
     294A      1.415556   295A      1.423117   296A      1.428836  
     297A      1.444572   298A      1.450033   299A      1.454994  
     300A      1.462845   301A      1.474448   302A      1.477328  
     303A      1.485134   304A      1.500293   305A      1.503559  
     306A      1.516297   307A      1.520124   308A      1.532942  
     309A      1.536720   310A      1.545666   311A      1.553432  
     312A      1.565758   313A      1.568991   314A      1.578185  
     315A      1.582727   316A      1.594967   317A      1.601326  
     318A      1.611874   319A      1.618595   320A      1.627413  
     321A      1.641436   322A      1.660136   323A      1.663741  
     324A      1.669110   325A      1.679399   326A      1.686119  
     327A      1.690349   328A      1.698929   329A      1.706293  
     330A      1.714097   331A      1.725576   332A      1.738140  
     333A      1.745955   334A      1.754680   335A      1.761291  
     336A      1.765253   337A      1.779306   338A      1.781641  
     339A      1.784628   340A      1.795323   341A      1.807186  
     342A      1.822659   343A      1.832758   344A      1.851594  
     345A      1.852190   346A      1.863797   347A      1.865811  
     348A      1.876611   349A      1.879138   350A      1.888090  
     351A      1.903617   352A      1.909751   353A      1.915721  
     354A      1.928225   355A      1.936872   356A      1.942227  
     357A      1.950263   358A      1.958056   359A      1.964891  
     360A      1.972974   361A      1.983143   362A      1.985619  
     363A      1.997415   364A      2.003400   365A      2.020661  
     366A      2.032298   367A      2.034409   368A      2.043389  
     369A      2.053009   370A      2.057507   371A      2.068497  
     372A      2.079770   373A      2.095741   374A      2.100949  
     375A      2.113941   376A      2.116328   377A      2.135372  
     378A      2.152468   379A      2.163228   380A      2.166687  
     381A      2.172486   382A      2.180075   383A      2.183706  
     384A      2.194152   385A      2.201703   386A      2.213578  
     387A      2.228080   388A      2.252065   389A      2.269401  
     390A      2.285582   391A      2.291858   392A      2.305617  
     393A      2.311953   394A      2.334584   395A      2.336165  
     396A      2.352506   397A      2.356607   398A      2.370728  
     399A      2.379648   400A      2.390124   401A      2.411292  
     402A      2.428217   403A      2.445688   404A      2.458231  
     405A      2.482454   406A      2.495670   407A      2.498441  
     408A      2.505466   409A      2.513146   410A      2.530480  
     411A      2.538227   412A      2.555949   413A      2.575325  
     414A      2.588660   415A      2.594499   416A      2.605519  
     417A      2.636465   418A      2.639844   419A      2.644148  
     420A      2.671896   421A      2.693211   422A      2.703873  
     423A      2.716397   424A      2.720760   425A      2.749387  
     426A      2.758888   427A      2.777279   428A      2.782553  
     429A      2.796736   430A      2.811580   431A      2.832065  
     432A      2.853546   433A      2.864370   434A      2.886925  
     435A      2.904189   436A      2.936581   437A      2.963794  
     438A      2.977212   439A      2.999679   440A      3.009631  
     441A      3.026029   442A      3.046380   443A      3.063084  
     444A      3.073431   445A      3.088392   446A      3.134086  
     447A      3.140637   448A      3.142295   449A      3.176206  
     450A      3.180363   451A      3.192626   452A      3.205141  
     453A      3.221154   454A      3.234570   455A      3.244110  
     456A      3.250063   457A      3.261031   458A      3.268738  
     459A      3.281554   460A      3.291451   461A      3.294244  
     462A      3.322100   463A      3.341275   464A      3.342041  
     465A      3.362652   466A      3.375071   467A      3.384292  
     468A      3.396381   469A      3.411923   470A      3.420459  
     471A      3.434832   472A      3.446441   473A      3.462129  
     474A      3.472048   475A      3.491009   476A      3.492936  
     477A      3.503556   478A      3.518221   479A      3.536835  
     480A      3.547120   481A      3.549801   482A      3.562990  
     483A      3.574301   484A      3.582774   485A      3.588551  
     486A      3.590771   487A      3.598032   488A      3.628769  
     489A      3.635534   490A      3.646142   491A      3.655192  
     492A      3.671694   493A      3.677732   494A      3.687192  
     495A      3.694453   496A      3.701503   497A      3.720465  
     498A      3.727657   499A      3.737898   500A      3.746913  
     501A      3.754693   502A      3.775163   503A      3.794065  
     504A      3.811913   505A      3.833962   506A      3.845213  
     507A      3.862918   508A      3.872427   509A      3.879496  
     510A      3.891607   511A      3.899234   512A      3.910662  
     513A      3.912146   514A      3.921081   515A      3.928231  
     516A      3.937457   517A      3.950884   518A      3.957404  
     519A      3.961964   520A      3.978096   521A      3.986503  
     522A      4.004827   523A      4.029321   524A      4.038604  
     525A      4.044192   526A      4.060424   527A      4.067689  
     528A      4.082240   529A      4.087586   530A      4.099384  
     531A      4.111990   532A      4.128317   533A      4.133383  
     534A      4.138349   535A      4.148356   536A      4.156741  
     537A      4.173330   538A      4.183324   539A      4.196125  
     540A      4.208405   541A      4.230335   542A      4.239594  
     543A      4.248238   544A      4.249519   545A      4.256190  
     546A      4.290874   547A      4.300614   548A      4.312742  
     549A      4.323356   550A      4.328444   551A      4.353569  
     552A      4.359055   553A      4.370295   554A      4.380455  
     555A      4.386046   556A      4.396005   557A      4.401433  
     558A      4.414669   559A      4.419819   560A      4.434151  
     561A      4.439879   562A      4.452582   563A      4.473703  
     564A      4.499786   565A      4.505350   566A      4.505719  
     567A      4.516095   568A      4.536213   569A      4.552423  
     570A      4.561540   571A      4.579381   572A      4.595464  
     573A      4.602782   574A      4.612542   575A      4.669736  
     576A      4.687105   577A      4.698139   578A      4.711279  
     579A      4.722582   580A      4.735769   581A      4.743869  
     582A      4.748372   583A      4.778632   584A      4.783787  
     585A      4.808986   586A      4.816959   587A      4.827037  
     588A      4.854676   589A      4.880765   590A      4.898452  
     591A      4.910328   592A      4.939697   593A      4.942982  
     594A      4.951412   595A      4.975338   596A      5.002252  
     597A      5.015883   598A      5.024395   599A      5.037815  
     600A      5.073961   601A      5.092742   602A      5.105705  
     603A      5.110228   604A      5.119323   605A      5.131333  
     606A      5.140066   607A      5.145703   608A      5.163219  
     609A      5.181541   610A      5.193793   611A      5.207155  
     612A      5.245464   613A      5.251866   614A      5.256793  
     615A      5.279792   616A      5.293674   617A      5.310348  
     618A      5.321717   619A      5.341726   620A      5.353050  
     621A      5.378537   622A      5.406426   623A      5.432498  
     624A      5.447404   625A      5.496433   626A      5.506011  
     627A      5.545133   628A      5.561336   629A      5.602811  
     630A      5.627988   631A      5.643509   632A      5.651217  
     633A      5.672467   634A      5.686562   635A      5.711231  
     636A      5.751820   637A      5.778353   638A      5.813786  
     639A      5.855577   640A      5.907143   641A      5.938854  
     642A      5.968750   643A      5.990819   644A      6.058357  
     645A      6.080609   646A      6.093621   647A      6.126070  
     648A      6.131795   649A      6.151514   650A      6.176300  
     651A      6.187093   652A      6.191333   653A      6.269911  
     654A      6.331032   655A      6.348477   656A      6.424726  
     657A      6.449270   658A      6.501946   659A      6.584253  
     660A      6.644813   661A      6.705062   662A      6.753446  
     663A      6.768076   664A      6.823884   665A      6.836224  
     666A      6.874976   667A      6.984280   668A      6.993795  
     669A      7.021626   670A      7.039639   671A      7.084759  
     672A      7.130049   673A      7.154166   674A      7.234425  
     675A      7.352998   676A      7.424680   677A      7.439580  
     678A      7.615618   679A      7.676254   680A      7.711182  
     681A      7.787567   682A      7.971653   683A      8.088319  
     684A      8.800051   685A     14.505120   686A     16.010053  
     687A     16.329529   688A     17.548300   689A     18.024886  
     690A     18.861785   691A     19.642760   692A     20.131810  
     693A     20.323631   694A     21.418200  

    Final Occupation by Irrep:
              A 
    DOCC [    44 ]

  @DF-RHF Final Energy:  -896.57287234841374

   => Energetics <=

    Nuclear Repulsion Energy =            656.7071780803963748
    One-Electron Energy =               -2532.7024795911634101
    Two-Electron Energy =                 979.4224291623534100
    Total Energy =                       -896.5728723484137390

Computation Completed

*** tstop() called on c404-052.stampede2.tacc.utexas.edu at Sun Feb 28 05:07:32 2021
Module time:
	user time   =     841.03 seconds =      14.02 minutes
	system time =      58.18 seconds =       0.97 minutes
	total time  =         46 seconds =       0.77 minutes
Total time:
	user time   =     841.03 seconds =      14.02 minutes
	system time =      58.18 seconds =       0.97 minutes
	total time  =         46 seconds =       0.77 minutes
   => Loading Basis Set <=

    Name: (AUG-CC-PVTZ AUX)
    Role: RIFIT
    Keyword: DF_BASIS_MP2
    atoms 1     entry CL         line   742 file /home1/07844/xy3866/miniconda3/envs/p4env/share/psi4/basis/aug-cc-pvtz-ri.gbs 
    atoms 2     entry O          line   264 file /home1/07844/xy3866/miniconda3/envs/p4env/share/psi4/basis/aug-cc-pvtz-ri.gbs 
    atoms 3     entry N          line   206 file /home1/07844/xy3866/miniconda3/envs/p4env/share/psi4/basis/aug-cc-pvtz-ri.gbs 
    atoms 4-11  entry C          line   148 file /home1/07844/xy3866/miniconda3/envs/p4env/share/psi4/basis/aug-cc-pvtz-ri.gbs 
    atoms 12-19 entry H          line    30 file /home1/07844/xy3866/miniconda3/envs/p4env/share/psi4/basis/aug-cc-pvtz-ri.gbs 


*** tstart() called on c404-052.stampede2.tacc.utexas.edu
*** at Sun Feb 28 05:07:33 2021


  //>>>>>>>>>>>>>>>>>>>>>>>>>>>>>>>>>>>//
  //               DFMP2               //
  //<<<<<<<<<<<<<<<<<<<<<<<<<<<<<<<<<<<//

	 --------------------------------------------------------
	                          DF-MP2                         
	      2nd-Order Density-Fitted Moller-Plesset Theory     
	              RMP2 Wavefunction,  32 Threads             
	                                                         
	        Rob Parrish, Justin Turney, Andy Simmonett,      
	           Ed Hohenstein, and C. David Sherrill          
	 --------------------------------------------------------

   => Auxiliary Basis Set <=

  Basis Set: (AUG-CC-PVTZ AUX)
    Blend: AUG-CC-PVTZ-RI
    Number of shells: 429
    Number of basis functions: 1575
    Number of Cartesian functions: 1991
    Spherical Harmonics?: true
    Max angular momentum: 4

	 --------------------------------------------------------
	                 NBF =   694, NAUX =  1575
	 --------------------------------------------------------
	   CLASS    FOCC     OCC    AOCC    AVIR     VIR    FVIR
	   PAIRS       0      44      44     650     650       0
	 --------------------------------------------------------

  DFHelper Memory: AOs need 5.381 GiB; user supplied 22.352 GiB. Using in-core AOs.


         ------------------------------------------------------------
                                     CPHF                           
                                  Rob Parrish                       
         ------------------------------------------------------------

  ==> Geometry <==

    Molecular point group: c1
    Full point group: C1

    Geometry (in Angstrom), charge = 0, multiplicity = 1:

       Center              X                  Y                   Z               Mass       
    ------------   -----------------  -----------------  -----------------  -----------------
         CL           0.987292336791     2.277862690298     0.000744235436    34.968852682000
         O           -2.591211663209    -1.576665309702    -0.018096764564    15.994914619570
         N           -1.205040663209     0.271315690298    -0.008018764564    14.003074004430
         C            0.073028336791    -0.306579309702     0.002215235436    12.000000000000
         C            1.197732336791     0.541431690298     0.006747235436    12.000000000000
         C            0.291814336791    -1.694402309702     0.006816235436    12.000000000000
         C            2.493371336791     0.033403690298     0.017534235436    12.000000000000
         C            1.591054336791    -2.199221309702     0.017269235436    12.000000000000
         C            2.694283336791    -1.346013309702     0.022491235436    12.000000000000
         C           -2.365160063209    -0.254830109702    -0.109124764564    12.000000000000
         C           -3.599079663209     0.611894690298     0.044650235436    12.000000000000
         H           -0.564863663209    -2.354701309702     0.001920235436     1.007825032230
         H           -1.217139663209     1.284664690298    -0.004824764564     1.007825032230
         H            3.332341336791     0.723400690298     0.021236235436     1.007825032230
         H            1.734813336791    -3.276633309702     0.020730235436     1.007825032230
         H            3.705103336791    -1.744340309702     0.030430235436     1.007825032230
         H           -3.755381663209     0.946143690298     1.074978235436     1.007825032230
         H           -4.493467663209     0.088174690298    -0.291936764564     1.007825032230
         H           -3.433220663209     1.492444690298    -0.582117764564     1.007825032230

  Nuclear repulsion =  656.707178080396375
  Reference energy  = -896.572872348413739

  ==> Basis Set <==

  Basis Set: AUG-CC-PVTZ
    Blend: AUG-CC-PVTZ
    Number of shells: 228
    Number of basis functions: 694
    Number of Cartesian functions: 809
    Spherical Harmonics?: true
    Max angular momentum: 3

  ==> CGRSolver (by Rob Parrish) <==

   Number of roots    =         1
   Preconditioning    =    JACOBI
   Convergence cutoff =     1E-06
   Maximum iterations =       100

  ==> CPHFRHamiltonian (by Rob Parrish) <== 

  ==> MemDFJK: Density-Fitted J/K Matrices <==

    J tasked:                   Yes
    K tasked:                   Yes
    wK tasked:                   No
    OpenMP threads:              32
    Memory [MiB]:             22888
    Algorithm:                 Core
    Schwarz Cutoff:           1E-12
    Mask sparsity (%):       7.6248
    Fitting Condition:        1E-10

   => Auxiliary Basis Set <=

  Basis Set: (AUG-CC-PVTZ AUX)
    Blend: AUG-CC-PVTZ-JKFIT
    Number of shells: 454
    Number of basis functions: 1554
    Number of Cartesian functions: 1930
    Spherical Harmonics?: true
    Max angular momentum: 4

  ==> CPHF Iterations <==

  => Iterations <=

             Iter  Converged  Remaining    Residual
  CGR           1          0          1   1.264E-01
  CGR           2          0          1   4.569E-02
  CGR           3          0          1   2.124E-02
  CGR           4          0          1   7.704E-03
  CGR           5          0          1   2.973E-03
  CGR           6          0          1   1.258E-03
  CGR           7          0          1   4.193E-04
  CGR           8          0          1   1.493E-04
  CGR           9          0          1   5.346E-05
  CGR          10          0          1   2.325E-05
  CGR          11          0          1   1.113E-05
  CGR          12          0          1   4.911E-06
  CGR          13          0          1   1.923E-06
  CGR          14          1          0   6.608E-07

    CGRSolver converged.

	-----------------------------------------------------------
	 ==================> DF-MP2 Energies <==================== 
	-----------------------------------------------------------
	 Reference Energy          =    -896.5728723484137390 [Eh]
	 Singles Energy            =      -0.0000000000000000 [Eh]
	 Same-Spin Energy          =      -0.5362861640919566 [Eh]
	 Opposite-Spin Energy      =      -1.6253619365236416 [Eh]
	 Correlation Energy        =      -2.1616481006155981 [Eh]
	 Total Energy              =    -898.7345204490293327 [Eh]
	-----------------------------------------------------------
	 ================> DF-SCS-MP2 Energies <================== 
	-----------------------------------------------------------
	 SCS Same-Spin Scale       =       0.3333333333333333 [-]
	 SCS Opposite-Spin Scale   =       1.2000000000000000 [-]
	 SCS Same-Spin Energy      =      -0.1787620546973189 [Eh]
	 SCS Opposite-Spin Energy  =      -1.9504343238283699 [Eh]
	 SCS Correlation Energy    =      -2.1291963785256889 [Eh]
	 SCS Total Energy          =    -898.7020687269393875 [Eh]
	-----------------------------------------------------------



Properties will be evaluated at  -0.000000,   0.000000,  -0.000000 [a0]

Properties computed using the MP2 density matrix

  Nuclear Dipole Moment: [e a0]
     X:    -5.3112      Y:    -4.7568      Z:     0.2528

  Electronic Dipole Moment: [e a0]
     X:     5.9808      Y:     5.7045      Z:    -0.2276

  Dipole Moment: [e a0]
     X:     0.6696      Y:     0.9477      Z:     0.0252     Total:     1.1607

  Dipole Moment: [D]
     X:     1.7020      Y:     2.4088      Z:     0.0640     Total:     2.9501


*** tstop() called on c404-052.stampede2.tacc.utexas.edu at Sun Feb 28 05:12:51 2021
Module time:
	user time   =    2515.57 seconds =      41.93 minutes
	system time =      80.39 seconds =       1.34 minutes
	total time  =        318 seconds =       5.30 minutes
Total time:
	user time   =    3357.54 seconds =      55.96 minutes
	system time =     138.59 seconds =       2.31 minutes
	total time  =        365 seconds =       6.08 minutes

    Psi4 stopped on: Sunday, 28 February 2021 05:12AM
    Psi4 wall time for execution: 0:06:06.30

*** Psi4 exiting successfully. Buy a developer a beer!
