SP Density=Current                                                      
Freq      RMP2-FC                                                     6-31G(d)            
Number of atoms                            I                4
Info1-9                                    I   N=           9
          13          13        1002           0           0         100
           6           2           1
Charge                                     I                0
Multiplicity                               I                1
Number of electrons                        I               10
Number of alpha electrons                  I                5
Number of beta electrons                   I                5
Number of basis functions                  I               21
Number of independent functions            I               21
Number of point charges in /Mol/           I                0
Number of translation vectors              I                0
Atomic numbers                             I   N=           4
           7           1           1           1
Nuclear charges                            R   N=           4
  7.00000000E+00  1.00000000E+00  1.00000000E+00  1.00000000E+00
Current cartesian coordinates              R   N=          12
 -2.19369979E-08 -9.80152535E-07 -2.20340059E-01 -1.55227436E+00 -8.63104325E-01
  5.14129759E-01  1.52361088E+00 -9.12751001E-01  5.14129778E-01  2.86636259E-02
  1.77586219E+00  5.14120878E-01
Force Field                                I                0
Int Atom Types                             I   N=           4
           0           0           0           0
MM charges                                 R   N=           4
  0.00000000E+00  0.00000000E+00  0.00000000E+00  0.00000000E+00
Integer atomic weights                     I   N=           4
          14           1           1           1
Real atomic weights                        R   N=           4
  1.40030740E+01  1.00782504E+00  1.00782504E+00  1.00782504E+00
Atom fragment info                         I   N=           4
           0           0           0           0
Atom residue num                           I   N=           4
           0           0           0           0
Nuclear spins                              I   N=           4
           2           1           1           1
Nuclear ZEff                               R   N=           4
 -4.55000000E+00 -1.00000000E+00 -1.00000000E+00 -1.00000000E+00
Nuclear QMom                               R   N=           4
  2.04400000E+00  0.00000000E+00  0.00000000E+00  0.00000000E+00
Nuclear GFac                               R   N=           4
  4.03761000E-01  2.79284600E+00  2.79284600E+00  2.79284600E+00
MicOpt                                     I   N=           4
          -1          -1          -1          -1
Number of contracted shells                I               10
Number of primitive shells                 I               23
Pure/Cartesian d shells                    I                1
Pure/Cartesian f shells                    I                0
Highest angular momentum                   I                2
Largest degree of contraction              I                6
Shell types                                I   N=          10
           0          -1          -1           2           0           0
           0           0           0           0
Number of primitives per shell             I   N=          10
           6           3           1           1           3           1
           3           1           3           1
Shell to atom map                          I   N=          10
           1           1           1           1           2           2
           3           3           4           4
Primitive exponents                        R   N=          23
  4.17351146E+03  6.27457911E+02  1.42902093E+02  4.02343293E+01  1.28202129E+01
  4.39043701E+00  1.16263619E+01  2.71627981E+00  7.72218397E-01  2.12031498E-01
  8.00000000E-01  1.87311370E+01  2.82539436E+00  6.40121692E-01  1.61277759E-01
  1.87311370E+01  2.82539436E+00  6.40121692E-01  1.61277759E-01  1.87311370E+01
  2.82539436E+00  6.40121692E-01  1.61277759E-01
Contraction coefficients                   R   N=          23
  1.83477216E-03  1.39946270E-02  6.85865518E-02  2.32240873E-01  4.69069948E-01
  3.60455199E-01 -1.14961182E-01 -1.69117479E-01  1.14585195E+00  1.00000000E+00
  1.00000000E+00  3.34946043E-02  2.34726953E-01  8.13757326E-01  1.00000000E+00
  3.34946043E-02  2.34726953E-01  8.13757326E-01  1.00000000E+00  3.34946043E-02
  2.34726953E-01  8.13757326E-01  1.00000000E+00
P(S=P) Contraction coefficients            R   N=          23
  0.00000000E+00  0.00000000E+00  0.00000000E+00  0.00000000E+00  0.00000000E+00
  0.00000000E+00  6.75797439E-02  3.23907296E-01  7.40895140E-01  1.00000000E+00
  0.00000000E+00  0.00000000E+00  0.00000000E+00  0.00000000E+00  0.00000000E+00
  0.00000000E+00  0.00000000E+00  0.00000000E+00  0.00000000E+00  0.00000000E+00
  0.00000000E+00  0.00000000E+00  0.00000000E+00
Coordinates of each shell                  R   N=          30
 -2.19369979E-08 -9.80152535E-07 -2.20340059E-01 -2.19369979E-08 -9.80152535E-07
 -2.20340059E-01 -2.19369979E-08 -9.80152535E-07 -2.20340059E-01 -2.19369979E-08
 -9.80152535E-07 -2.20340059E-01 -1.55227436E+00 -8.63104325E-01  5.14129759E-01
 -1.55227436E+00 -8.63104325E-01  5.14129759E-01  1.52361088E+00 -9.12751001E-01
  5.14129778E-01  1.52361088E+00 -9.12751001E-01  5.14129778E-01  2.86636259E-02
  1.77586219E+00  5.14120878E-01  2.86636259E-02  1.77586219E+00  5.14120878E-01
Constraint Structure                       R   N=          12
 -2.19369979E-08 -9.80152535E-07 -2.20340059E-01 -1.55227436E+00 -8.63104325E-01
  5.14129759E-01  1.52361088E+00 -9.12751001E-01  5.14129778E-01  2.86636259E-02
  1.77586219E+00  5.14120878E-01
Num ILSW                                   I              100
ILSW                                       I   N=         100
           0           1           0           0           2           0
           0           0           0           0           0          -1
           0           0           0           0           0           0
           0           0           0           0           1           0
           1           0           0           0           0           0
           0           0      100000           0          -1           0
           0           0           0           0           0           0
           0           0           0           1           1           0
           0           0           1           0           0           0
           0           0           4          40           0           0
           0           0           0           0           0           0
           0           0           0           0           0           0
           0           0           0           0           0           0
           0           0           0           0           0           0
           0           0           0           0           0           0
           0           0           0           0           0           0
           0           0           0           0
Num RLSW                                   I               40
RLSW                                       R   N=          40
  1.00000000E+00  1.00000000E+00  1.00000000E+00  1.00000000E+00  1.00000000E+00
  0.00000000E+00  0.00000000E+00  1.00000000E+00  0.00000000E+00  0.00000000E+00
  0.00000000E+00  0.00000000E+00  1.00000000E+00  0.00000000E+00  0.00000000E+00
  0.00000000E+00  0.00000000E+00  1.00000000E+00  0.00000000E+00  0.00000000E+00
  0.00000000E+00  0.00000000E+00  1.00000000E+00  0.00000000E+00  0.00000000E+00
  0.00000000E+00  0.00000000E+00  1.00000000E+00  0.00000000E+00  0.00000000E+00
  0.00000000E+00  0.00000000E+00  0.00000000E+00  0.00000000E+00  0.00000000E+00
  0.00000000E+00  0.00000000E+00  0.00000000E+00  1.00000000E+00  1.00000000E+00
MxBond                                     I                3
NBond                                      I   N=           4
           3           1           1           1
IBond                                      I   N=          12
           2           3           4           1           0           0
           1           0           0           1           0           0
RBond                                      R   N=          12
  1.00000000E+00  1.00000000E+00  1.00000000E+00  1.00000000E+00  0.00000000E+00
  0.00000000E+00  1.00000000E+00  0.00000000E+00  0.00000000E+00  1.00000000E+00
  0.00000000E+00  0.00000000E+00
Virial Ratio                               R      2.002702384905666E+00
SCF Energy                                 R     -5.618382063580309E+01
MP2 Energy                                 R     -5.635421164308754E+01
Total Energy                               R     -5.635421164308754E+01
Post-SCF wavefunction norm                 R      1.449656720450674E+00
RMS Force                                  R      3.990303239514399E-07
RMS Density                                R      1.688935041689476E-09
External E-field                           R   N=          35
  0.00000000E+00  0.00000000E+00  0.00000000E+00  0.00000000E+00  0.00000000E+00
  0.00000000E+00  0.00000000E+00  0.00000000E+00  0.00000000E+00  0.00000000E+00
  0.00000000E+00  0.00000000E+00  0.00000000E+00  0.00000000E+00  0.00000000E+00
  0.00000000E+00  0.00000000E+00  0.00000000E+00  0.00000000E+00  0.00000000E+00
  0.00000000E+00  0.00000000E+00  0.00000000E+00  0.00000000E+00  0.00000000E+00
  0.00000000E+00  0.00000000E+00  0.00000000E+00  0.00000000E+00  0.00000000E+00
  0.00000000E+00  0.00000000E+00  0.00000000E+00  0.00000000E+00  0.00000000E+00
IOpCl                                      I                0
IROHF                                      I                0
Alpha Orbital Energies                     R   N=          21
 -1.55404187E+01 -1.13456748E+00 -6.20599708E-01 -6.20599393E-01 -4.22136561E-01
  2.19452014E-01  3.20858232E-01  3.20858329E-01  8.97075567E-01  8.97076390E-01
  9.70136439E-01  1.20503750E+00  1.21820421E+00  1.21820430E+00  1.37281732E+00
  1.96615823E+00  1.96615850E+00  2.25905410E+00  2.75018810E+00  2.75018887E+00
  4.08465013E+00
Alpha MO coefficients                      R   N=         441
  9.94992343E-01  2.47098734E-02  1.35078310E-10  6.45019257E-09  1.55375082E-03
 -1.62450732E-03 -1.07449339E-10 -4.42622637E-09 -9.31393837E-04 -3.48953767E-03
 -3.48953718E-03 -3.29835590E-03 -9.49398265E-13  2.78970114E-11  1.08262263E-09
  2.29086422E-04  5.67367219E-04  2.29086410E-04  5.67367272E-04  2.29086136E-04
  5.67368626E-04 -1.97224727E-01  4.09655442E-01  1.90971773E-08  6.00568884E-07
  8.92277417E-02  4.33832289E-01  7.66078295E-09  2.76371035E-07  5.01987142E-02
  1.43621479E-02  1.43620843E-02  6.83800325E-04 -4.31660329E-11  1.76976788E-09
 -1.00176558E-09  1.35674092E-01  1.01735765E-02  1.35674101E-01  1.01735761E-02
  1.35674349E-01  1.01735656E-02  7.27242438E-09 -1.48278400E-08  4.70356795E-01
 -3.93800801E-04 -8.67375929E-09 -2.99560431E-08  2.80174944E-01 -2.34573172E-04
 -6.43295038E-09 -1.01315238E-03  1.01315555E-03 -2.78851912E-09 -2.45689376E-02
  4.03115491E-02 -3.37533622E-05 -2.40501153E-01 -1.47579672E-01  2.36288574E-01
  1.44994685E-01  4.21258501E-03  2.58498317E-03  1.52104171E-07 -3.11279480E-07
  3.93800547E-04  4.70356935E-01 -1.31366373E-06 -6.22654331E-07  2.34573331E-04
  2.80175011E-01 -8.07859430E-07 -2.12775420E-02  2.12777767E-02 -2.26235207E-07
  1.16989928E-03  3.37478923E-05  4.03113619E-02 -1.33989076E-01 -8.22204164E-02
 -1.41285483E-01 -8.66977470E-02  2.75274697E-01  1.68918091E-01  6.50995096E-02
 -1.53207624E-01  1.45733695E-08  1.60360135E-06  5.52238877E-01 -2.78199588E-01
  1.40240929E-08  1.43822565E-06  4.86654169E-01 -8.26213026E-03 -8.26217975E-03
  3.25619847E-02  1.28492665E-12  3.49374041E-09  1.83082014E-07  6.69607867E-02
  5.09240905E-02  6.69607773E-02  5.09240799E-02  6.69605313E-02  5.09238027E-02
 -1.25069762E-01  1.01515836E-01 -4.40033075E-09  2.79412261E-07  1.51699941E-01
  1.96078822E+00  2.32558406E-08  1.70164469E-06  5.06482446E-01 -3.96016583E-02
 -3.96016413E-02 -3.82883540E-02 -2.27277932E-11  1.67464638E-09  3.85940995E-08
 -2.90725179E-02 -9.71024077E-01 -2.90725075E-02 -9.71024042E-01 -2.90722400E-02
 -9.71023168E-01 -2.88239217E-09 -5.58015527E-09  3.35100694E-01  3.48092301E-04
 -1.61298458E-08  1.27527610E-07  1.11210548E+00  1.15521992E-03 -3.20558565E-08
  1.03309494E-04 -1.03310170E-04 -6.44075705E-09  2.41013074E-03  1.66641754E-02
  1.73103852E-05  4.29960914E-02  1.53623263E+00 -4.21515221E-02 -1.50605716E+00
 -8.44547371E-04 -3.01756303E-02  5.50200415E-08  1.13882851E-07  3.48092194E-04
 -3.35100620E-01  1.10162390E-06 -2.49244886E-06  1.15522171E-03 -1.11210482E+00
  3.23070361E-06 -2.08717159E-03  2.08711589E-03  1.94920022E-07  1.19290674E-04
  1.73098799E-05 -1.66641491E-02 -2.38488693E-02 -8.52099947E-01 -2.53116872E-02
 -9.04365603E-01  4.91601163E-02  1.75646880E+00  9.58054143E-08  8.99244992E-08
 -4.38768127E-05 -3.58821460E-01  9.95142604E-07  3.78223783E-07  1.43580480E-04
  1.17420294E+00 -3.80446988E-06  1.20625163E-01 -1.20625079E-01  4.21327826E-07
 -6.73209915E-03 -1.06372081E-05 -8.71181326E-02  3.77926510E-01 -4.11687522E-02
  3.99495693E-01 -4.35182964E-02 -7.77419171E-01  8.46839607E-02  4.54029201E-09
  3.84155673E-09 -3.58821427E-01  4.38772480E-05  5.53657919E-09  2.16355728E-08
  1.17420516E+00 -1.43584174E-04 -4.70831312E-08  5.83018040E-03 -5.83015912E-03
  3.10423053E-09  1.39285498E-01 -8.71195031E-02  1.06688918E-05  6.79492503E-01
 -7.40157551E-02 -6.67039425E-01  7.26591747E-02 -1.24529318E-02  1.35642823E-03
 -1.62100307E-02  2.64107671E-01 -4.17149209E-08 -3.13152215E-06 -9.56877338E-01
 -2.00964073E-01  7.13267891E-08  4.05722216E-06  1.07884326E+00  6.53787971E-02
  6.53789124E-02  8.06861165E-02 -2.94803284E-10  6.84499120E-11  3.89910377E-08
 -1.04838683E-01 -3.93231180E-02 -1.04838683E-01 -3.93231404E-02 -1.04838758E-01
 -3.93237206E-02  5.65660668E-02 -7.66641050E-01  1.58116517E-06  3.10516672E-05
 -3.52884151E-01  1.20475170E+00 -2.18512315E-06 -4.38296640E-05  1.22349113E-01
 -2.45924086E-02 -2.45988415E-02 -2.82808641E-01  3.72410953E-09 -1.04906735E-07
 -2.81034419E-06  6.71916096E-01 -5.85972541E-01  6.71915169E-01 -5.85970048E-01
  6.71891651E-01 -5.85906638E-01  9.11780309E-08 -1.33638676E-06 -1.02521722E+00
 -3.77920864E-03 -5.37355087E-07  2.17008426E-06  1.32922246E+00  4.89984749E-03
  1.56794894E-07 -5.23049770E-03  5.23040760E-03 -4.91681941E-07 -1.15809402E-01
  7.66419564E-02  2.82505192E-04 -4.77417439E-01  1.17282030E+00  4.66612654E-01
 -1.14627392E+00  1.08081304E-02 -2.65494125E-02 -1.70983779E-06  2.50993315E-05
 -3.77920936E-03  1.02521705E+00  7.81467308E-06 -4.07808062E-05  4.89984900E-03
 -1.32922194E+00 -1.07671578E-08  1.00295247E-01 -1.00293840E-01  9.52287626E-06
 -6.03962332E-03  2.82535179E-04 -7.66411147E-02  2.63138005E-01 -6.46454636E-01
  2.81856309E-01 -6.92437834E-01 -5.45057072E-01  1.33894944E+00 -9.76352486E-02
 -1.48867041E+00  6.96285590E-09 -2.37547115E-07 -1.58625613E-01  4.06846575E+00
  1.66495431E-07  5.43518249E-06  8.44282544E-01 -4.19666747E-01 -4.19666258E-01
 -6.66196854E-02  6.98065361E-11 -1.84377847E-08  5.71540632E-07 -3.85918870E-01
 -7.58023948E-01 -3.85918931E-01 -7.58023995E-01 -3.85920560E-01 -7.58025165E-01
 -1.57592137E-09 -1.22429129E-08 -2.04706428E-02  4.04879037E-06 -5.12651054E-09
  4.03323687E-08 -3.40353545E-02  6.73259724E-06  1.04779095E-08  2.69063375E-02
 -2.69064263E-02  8.15204952E-08  6.43817247E-01  7.63771317E-01 -1.51006204E-04
 -2.86586338E-02 -4.60065350E-04  2.81358423E-02  4.51663006E-04  5.22757480E-04
  8.38659875E-06 -3.33671712E-08 -2.57899038E-07 -4.04884152E-06 -2.04706344E-02
 -5.73375570E-08  8.52861859E-07 -6.73263669E-06 -3.40352802E-02  3.01890010E-07
  5.57557206E-01 -5.57555939E-01 -1.41951851E-06 -3.10686788E-02  1.51152877E-04
  7.63776698E-01 -1.59426661E-02 -2.56020620E-04 -1.68481282E-02 -2.70554913E-04
  3.27900727E-02  5.26242839E-04 -5.74776791E-02 -4.33651356E-01  8.17863100E-09
  2.26127258E-07  2.84561811E-02  1.50981576E+00  7.17012628E-08  2.55037149E-06
  4.46961667E-01  4.39277855E-01  4.39273407E-01 -1.06553394E+00 -1.69603854E-10
  8.65939701E-09 -3.88975852E-06 -4.79084564E-01 -1.95925945E-01 -4.79084559E-01
 -1.95925985E-01 -4.79084456E-01 -1.95927013E-01  4.66020405E-09  2.21065627E-08
 -8.01378362E-02 -5.30550177E-05 -5.91465326E-09 -1.41890434E-07 -6.48452390E-01
 -4.29303745E-04 -1.08509098E-08  3.90690477E-02 -3.90691448E-02  9.96260652E-08
  9.18439112E-01 -7.76376678E-01 -5.13887663E-04 -8.09102581E-01  2.91732774E-02
  7.93555047E-01 -2.86126286E-02  1.55476459E-02 -5.60561728E-04  9.11889028E-08
  4.52998401E-07  5.30553839E-05 -8.01385479E-02  7.47027312E-08 -2.82529802E-06
  4.29307149E-04 -6.48450236E-01  1.30639174E-06  7.95395099E-01 -7.95400192E-01
  5.13244645E-06 -4.51132622E-02  5.14103672E-04 -7.76369320E-01 -4.49182271E-01
  1.61971269E-02 -4.76111534E-01  1.71681338E-02  9.25296001E-01 -3.33635122E-02
 -4.63572871E-01  1.20097087E+00 -1.75922416E-08 -5.90071001E-07 -9.79544842E-02
  3.12195495E+00  5.06530010E-08  1.79506721E-06  3.16708421E-01 -1.49821725E+00
 -1.49821734E+00 -1.51679954E+00  3.63684529E-10 -1.07572253E-09 -6.61639310E-08
  1.40075124E-01 -5.49244669E-01  1.40075129E-01 -5.49244691E-01  1.40075225E-01
 -5.49245233E-01
Total SCF Density                          R   N=         231
  2.06629060E+00 -1.32363578E-01  3.83801469E-01  1.59443689E-09 -3.00621656E-09
  4.42471340E-01  1.27809815E-07 -2.91809761E-07 -1.28766282E-10  4.42471603E-01
  3.97970665E-02 -9.60323661E-02  1.03102120E-08  6.42562011E-07  6.25863562E-01
 -2.10578968E-01  4.40607829E-01 -2.02095655E-08 -9.56887054E-07 -2.29850554E-01
  5.31216210E-01  2.73677030E-09 -6.48075737E-09  2.63564562E-01  1.51719065E-10
  1.13794324E-08 -1.82336362E-08  1.56996109E-01  1.54661207E-07 -3.88897722E-07
 -2.55870214E-11  2.63564704E-01  9.01686976E-07 -9.09306145E-07  1.20826564E-10
  1.56996184E-01  4.17075806E-02 -1.08035934E-01  9.41360312E-09  8.61122617E-07
  5.46454044E-01 -2.27215307E-01  1.04353820E-08  9.74911172E-07  4.78706117E-01
 -1.36849957E-02  1.41262680E-02 -9.69844121E-04 -2.00152902E-02 -6.57312284E-03
  1.70699336E-02 -5.77702121E-04 -1.19224116E-02 -6.59314289E-03  1.48094247E-03
 -1.36849631E-02  1.41262045E-02  9.69847901E-04  2.00154924E-02 -6.57330069E-03
  1.70698529E-02  5.77703985E-04  1.19225115E-02 -6.59326623E-03 -3.34109624E-04
  1.48096043E-03 -2.59386391E-03 -9.58024747E-03 -1.82707901E-09 -1.07608727E-07
  3.60757660E-02 -1.75134358E-02 -7.44193566E-10 -3.26994678E-08  3.17676472E-02
 -4.95391929E-04 -4.95414508E-04  2.14325917E-03  1.38464636E-11 -3.55297669E-11
 -2.31114121E-02  1.11989101E-03 -2.65378540E-09 -2.30748806E-11 -1.37666526E-02
  6.67079515E-04 -1.57720818E-09 -1.00812774E-09  1.39908404E-09 -3.92291998E-10
  1.21000272E-03  4.08904001E-10 -8.35643036E-10  3.79216487E-02 -2.33019765E-09
  3.38669792E-09 -2.86561557E-09  2.25885879E-02 -1.38363356E-09  3.00494335E-09
 -8.31196352E-05  8.31198923E-05 -1.03264220E-11 -1.98074491E-03  3.25004426E-03
  3.86492086E-08 -8.19615737E-08 -2.97379609E-09  3.79214839E-02  9.61240424E-08
 -1.52937462E-07 -1.75180800E-09  2.25884884E-02  1.12961266E-07 -1.71538806E-03
  1.71540086E-03 -6.32499463E-09  9.59790350E-05 -4.53627510E-10  3.25001408E-03
 -4.43425084E-02  9.06528658E-02 -2.26348226E-01 -1.25855585E-01  9.81695529E-02
  8.04621138E-02 -1.34827651E-01 -7.49676838E-02  7.87946147E-02  8.97831146E-03
 -3.40026686E-03  4.54485095E-03  1.15042082E-02 -1.93989908E-02 -1.07863046E-02
  1.97370271E-01  3.74632987E-03 -7.24050115E-03 -1.38894958E-01 -7.72294766E-02
  5.80620373E-02 -1.95086022E-02 -8.27348245E-02 -4.60028236E-02  5.05853206E-02
  3.24472430E-03 -4.35119780E-03  3.32658757E-03  7.05937230E-03 -1.19038795E-02
 -6.61885268E-03  1.02600113E-01  6.24740860E-02 -4.43425088E-02  9.06528671E-02
  2.22168604E-01 -1.33094937E-01  9.81695553E-02  8.04621080E-02  1.32337996E-01
 -7.92799098E-02  7.87946122E-02  8.32268981E-03 -2.74464475E-03  4.54485100E-03
 -1.19412981E-02  1.90407817E-02 -1.14067473E-02 -3.00114078E-02 -3.69290030E-02
  1.97370276E-01  3.74633165E-03 -7.24050413E-03  1.36330189E-01 -8.16717956E-02
  5.80620322E-02 -1.95086087E-02  8.12070831E-02 -4.86489561E-02  5.05853138E-02
  2.84241283E-03 -3.94888625E-03  3.32658728E-03 -7.32758601E-03  1.16840694E-02
 -6.99957800E-03 -3.69290015E-02 -2.31457143E-02  1.02600114E-01  6.24740869E-02
 -4.43425159E-02  9.06528932E-02  4.17964975E-03  2.58951785E-01  9.81682374E-02
  8.04619552E-02  2.48966970E-03  1.54248474E-01  7.87937276E-02 -8.93379574E-03
  1.45120573E-02  4.54464814E-03  4.37089850E-04  3.58212484E-04  2.21931357E-02
 -3.00113146E-02 -3.69291292E-02 -3.00113111E-02 -3.69291337E-02  1.97370398E-01
  3.74637806E-03 -7.24058258E-03  2.56477075E-03  1.58901730E-01  5.80610551E-02
 -1.95087733E-02  1.52774397E-03  9.46521952E-02  5.05846318E-02 -7.74677088E-03
  6.64042510E-03  3.32645434E-03  2.68213724E-04  2.19811003E-04  1.36184807E-02
 -3.69291063E-02 -2.31458698E-02 -3.69291105E-02 -2.31458756E-02  1.02600145E-01
  6.24741210E-02
Total MP2 Density                          R   N=         231
  2.06675293E+00 -1.36490266E-01  4.13207364E-01  1.65796970E-09 -3.05119517E-09
  4.69496778E-01  1.23896780E-07 -2.69170064E-07 -8.55465683E-11  4.69497032E-01
  3.76380337E-02 -8.62947948E-02  8.23004382E-09  5.46666734E-07  6.30184992E-01
 -2.10202076E-01  4.37179261E-01 -2.11511917E-08 -9.91307426E-07 -2.36129409E-01
  5.46563595E-01  2.70874028E-09 -6.14571706E-09  2.48655001E-01  1.65639731E-10
  1.00777514E-08 -1.85994108E-08  1.46381943E-01  1.58186550E-07 -3.66069900E-07
 -1.76160383E-11  2.48655148E-01  8.45366269E-07 -9.69428542E-07  1.01214462E-10
  1.46382034E-01  4.34711391E-02 -1.01483809E-01  8.54168280E-09  8.13717396E-07
  5.19106607E-01 -2.49382963E-01  1.13993146E-08  1.03370320E-06  4.84917221E-01
 -1.20578184E-02  8.26179753E-03 -8.28117280E-04 -1.70903988E-02 -5.96465097E-03
  1.33955145E-02 -3.70672302E-04 -7.64983639E-03 -9.26932225E-03  5.48215690E-03
 -1.20577875E-02  8.26173486E-03  8.28121139E-04  1.70905958E-02 -5.96480038E-03
  1.33954430E-02  3.70673638E-04  7.64989673E-03 -9.26940084E-03 -1.06072349E-03
  5.48216557E-03 -8.54399321E-04 -1.62506878E-02 -1.44393248E-09 -8.33218308E-08
  3.88954173E-02 -2.11707686E-02 -1.83784127E-10  2.54021141E-09  3.50320294E-02
 -2.13026055E-03 -2.13027402E-03  7.04614877E-03  1.22519359E-11 -3.22158833E-11
 -1.97340574E-02  9.56238482E-04 -2.26538219E-09 -1.79749097E-11 -8.83311950E-03
  4.28020987E-04 -1.01156306E-09 -6.01443443E-10  8.23853201E-10 -2.23325094E-10
  4.36190086E-03  4.52074703E-10 -8.70146385E-10  3.55576623E-02 -1.94337635E-09
  3.44163566E-09 -3.22643747E-09  1.86714776E-02 -8.33513063E-10  3.43838747E-09
 -4.73887810E-05  4.73889468E-05  1.22054812E-10 -1.12927384E-03  6.87654685E-03
  3.98369088E-08 -8.48162564E-08 -2.58406087E-09  3.55575228E-02  1.08857876E-07
 -1.60355968E-07 -1.17311291E-09  1.86714193E-02  1.47310137E-07 -9.77997588E-04
  9.78005496E-04 -5.99637459E-10  5.47205864E-05 -2.58986139E-10  6.87652911E-03
 -4.34948880E-02  8.88495436E-02 -2.18607199E-01 -1.21551363E-01  9.47694738E-02
  7.36669787E-02 -1.24006293E-01 -6.89507257E-02  7.50111995E-02  7.75069143E-03
 -2.74200083E-03  3.60937527E-03  9.75151566E-03 -1.80276894E-02 -1.00238332E-02
  2.00200416E-01  3.51342387E-03 -8.03717407E-03 -1.42763350E-01 -7.93803867E-02
  6.26194231E-02 -2.27068307E-02 -8.33016657E-02 -4.63179868E-02  5.67666844E-02
  2.97695727E-03 -3.51548494E-03  3.82489324E-03  6.03382348E-03 -1.19620637E-02
 -6.65120444E-03  1.12154359E-01  7.88110332E-02 -4.34948884E-02  8.88495447E-02
  2.14570518E-01 -1.28543131E-01  9.47694759E-02  7.36669726E-02  1.21716460E-01
 -7.29168498E-02  7.50111972E-02  7.19495541E-03 -2.18626425E-03  3.60937534E-03
 -1.01220145E-02  1.76948018E-02 -1.06004173E-02 -2.82533925E-02 -3.80246380E-02
  2.00200420E-01  3.51342577E-03 -8.03717739E-03  1.40127151E-01 -8.39464295E-02
  6.26194194E-02 -2.27068381E-02  8.17634583E-02 -4.89822492E-02  5.67666783E-02
  2.63309168E-03 -3.17161908E-03  3.82489302E-03 -6.26307317E-03  1.17411793E-02
 -7.03379064E-03 -3.80246366E-02 -2.78225956E-02  1.12154360E-01  7.88110349E-02
 -4.34948956E-02  8.88495677E-02  4.03670725E-03  2.50095713E-01  9.47682001E-02
  7.36668104E-02  2.28984719E-03  1.41868406E-01  7.50103808E-02 -7.43247727E-03
  1.24413728E-02  3.60918755E-03  3.70498846E-04  3.32890828E-04  2.06243247E-02
 -2.82532977E-02 -3.80247556E-02 -2.82532942E-02 -3.80247598E-02  2.00200532E-01
  3.51347560E-03 -8.03726477E-03  2.63620336E-03  1.63327349E-01  6.26184535E-02
 -2.27070281E-02  1.53821147E-03  9.53007245E-02  5.67660135E-02 -6.41776269E-03
  5.87936846E-03  3.82476136E-03  2.29249701E-04  2.20885696E-04  1.36850562E-02
 -3.80247346E-02 -2.78227666E-02 -3.80247384E-02 -2.78227729E-02  1.12154402E-01
  7.88110875E-02
QEq coupling tensors                       R   N=          24
 -4.30897331E-01 -4.24575757E-10 -4.30895383E-01  5.76883791E-08  4.22488268E-06
  8.61792714E-01 -1.95214594E-01 -2.02851168E-01  5.68186435E-02  1.85918087E-01
  1.03375352E-01  1.38395951E-01 -1.81865764E-01  2.10558238E-01  4.34697993E-02
 -1.82485059E-01  1.09321629E-01  1.38395965E-01  1.69485306E-01 -7.70706763E-03
 -3.07883882E-01 -3.43305975E-03 -2.12696133E-01  1.38398575E-01
Mulliken Charges                           R   N=           4
 -9.88633385E-01  3.29544478E-01  3.29544477E-01  3.29544430E-01
Optimization MaxStp                        I                2
Optimization Job offset                    I                0
Optimization Num results per geometry      I                2
Optimization Num geometry variables        I               12
Opt point       1 Results for each geome   R   N=           2
 -5.63542116E+01  0.00000000E+00
Opt point       1 Geometries               R   N=          12
 -2.19369979E-08 -9.80152535E-07 -2.20340059E-01 -1.55227436E+00 -8.63104325E-01
  5.14129759E-01  1.52361088E+00 -9.12751001E-01  5.14129778E-01  2.86636259E-02
  1.77586219E+00  5.14120878E-01
Opt point       1 Gradient at each geome   R   N=          12
  1.14823793E-08  2.17265330E-07 -4.95238804E-07 -8.44169010E-07 -2.15004686E-07
  1.96977233E-07  8.20759382E-07 -2.22838957E-07  1.93155166E-07  1.19272507E-08
  2.20578312E-07  1.05106404E-07
Optimization Number of geometries          I   N=           1
           1
ONIOM Charges                              I   N=          16
           0           0           0           0           0           0
           0           0           0           0           0           0
           0           0           0           0
ONIOM Multiplicities                       I   N=          16
           1           0           0           0           0           0
           0           0           0           0           0           0
           0           0           0           0
Atom Layers                                I   N=           4
           1           1           1           1
Atom Modifiers                             I   N=           4
           0           0           0           0
Force Field                                I                0
Int Atom Modified Types                    I   N=           4
           0           0           0           0
Link Atoms                                 I   N=           4
           0           0           0           0
Atom Modified MM Charges                   R   N=           4
  0.00000000E+00  0.00000000E+00  0.00000000E+00  0.00000000E+00
Link Distances                             R   N=          16
  0.00000000E+00  0.00000000E+00  0.00000000E+00  0.00000000E+00  0.00000000E+00
  0.00000000E+00  0.00000000E+00  0.00000000E+00  0.00000000E+00  0.00000000E+00
  0.00000000E+00  0.00000000E+00  0.00000000E+00  0.00000000E+00  0.00000000E+00
  0.00000000E+00
Cartesian Gradient                         R   N=          12
  1.14823793E-08  2.17265330E-07 -4.95238804E-07 -8.44169010E-07 -2.15004686E-07
  1.96977233E-07  8.20759382E-07 -2.22838957E-07  1.93155166E-07  1.19272507E-08
  2.20578312E-07  1.05106404E-07
Cartesian Force Constants                  R   N=          78
  6.66335298E-01 -2.07195454E-09  6.66335658E-01  2.44229203E-08 -5.49997466E-07
  2.42561545E-01 -3.04068575E-01 -1.31927875E-01  1.04233771E-01  3.29853013E-01
 -1.31927612E-01 -1.40154169E-01  5.79567678E-02  1.47564000E-01  1.46511738E-01
  1.60550208E-01  8.92703145E-02 -8.08543088E-02 -1.25683322E-01 -6.98832846E-02
  7.75954008E-02 -2.95386956E-01  1.36940315E-01 -1.02309073E-01 -2.64334659E-02
  2.11950528E-02 -1.87227749E-02  3.20142433E-01  1.36940049E-01 -1.48835831E-01
  6.12905158E-02 -2.00069225E-02  1.03625272E-02 -7.37494210E-03 -1.53170503E-01
  1.56222367E-01 -1.57585598E-01  9.44052480E-02 -8.08543167E-02  1.84750127E-02
 -7.97533892E-03  1.62945870E-03  1.23362549E-01 -7.39030587E-02  7.75954056E-02
 -6.68797665E-02 -5.01243820E-03 -1.92472239E-03  6.49028273E-04 -3.68314404E-02
 -1.61441111E-02  1.67798966E-03  3.62373765E-02  1.57480363E-02  6.45527486E-02
 -5.01243494E-03 -3.77345658E-01 -1.19246734E-01  4.37079746E-03 -1.67200955E-02
 -1.20120878E-02 -4.96486462E-03 -1.77490636E-02 -1.25268503E-02  5.60650210E-03
  4.11814817E-01 -2.96463428E-03 -1.83675013E-01 -8.08529193E-02  2.97453886E-03
  1.99018557E-02  1.62944929E-03 -2.33070186E-03  1.99874850E-02  1.62945233E-03
  2.32079728E-03  1.43785672E-01  7.75940177E-02
Dipole Moment                              R   N=           3
  6.42465383E-08  3.15792420E-06  7.73364071E-01
Dipole Derivatives                         R   N=          36
 -3.86148068E-01  8.00094191E-09 -2.40419356E-08  7.35411001E-09 -3.86148366E-01
 -7.64712660E-07 -1.83385317E-08 -1.02622320E-06 -6.45968199E-01  1.00460849E-01