8027                                                                    
Freq      RMP2-FC                                                     6-31G(d)            
Number of atoms                            I               10
Info1-9                                    I   N=           9
          22          20        1002           0           0         100
           6           2           1
Charge                                     I                0
Multiplicity                               I                1
Number of electrons                        I               36
Number of alpha electrons                  I               18
Number of beta electrons                   I               18
Number of basis functions                  I               85
Number of independent functions            I               85
Number of point charges in /Mol/           I                0
Number of translation vectors              I                0
Atomic numbers                             I   N=          10
           7           6           6           6           6           1
           1           1           1           1
Nuclear charges                            R   N=          10
  7.00000000E+00  6.00000000E+00  6.00000000E+00  6.00000000E+00  6.00000000E+00
  1.00000000E+00  1.00000000E+00  1.00000000E+00  1.00000000E+00  1.00000000E+00
Current cartesian coordinates              R   N=          30
 -2.11623414E+00 -2.18091987E-05  4.24293920E-05 -6.30941984E-01  2.12749920E+00
 -7.66258633E-06 -6.30898922E-01 -2.12751161E+00  3.81915846E-05  1.86096484E+00
  1.34027633E+00 -6.41164000E-05  1.86099207E+00 -1.34023855E+00 -1.73848405E-05
 -4.02638682E+00 -3.95784191E-05  1.11295315E-04 -1.45679897E+00  3.99602368E+00
 -3.28742642E-05 -1.45671331E+00 -3.99605484E+00  8.30344584E-05  3.49639480E+00
  2.56737621E+00 -1.14500183E-04  3.49644722E+00 -2.56730505E+00 -3.81276168E-05
Force Field                                I                0
Int Atom Types                             I   N=          10
           0           0           0           0           0           0
           0           0           0           0
MM charges                                 R   N=          10
  0.00000000E+00  0.00000000E+00  0.00000000E+00  0.00000000E+00  0.00000000E+00
  0.00000000E+00  0.00000000E+00  0.00000000E+00  0.00000000E+00  0.00000000E+00
Integer atomic weights                     I   N=          10
          14          12          12          12          12           1
           1           1           1           1
Real atomic weights                        R   N=          10
  1.40030740E+01  1.20000000E+01  1.20000000E+01  1.20000000E+01  1.20000000E+01
  1.00782504E+00  1.00782504E+00  1.00782504E+00  1.00782504E+00  1.00782504E+00
Atom fragment info                         I   N=          10
           0           0           0           0           0           0
           0           0           0           0
Atom residue num                           I   N=          10
           0           0           0           0           0           0
           0           0           0           0
Nuclear spins                              I   N=          10
           2           0           0           0           0           1
           1           1           1           1
Nuclear ZEff                               R   N=          10
 -4.55000000E+00 -3.60000000E+00 -3.60000000E+00 -3.60000000E+00 -3.60000000E+00
 -1.00000000E+00 -1.00000000E+00 -1.00000000E+00 -1.00000000E+00 -1.00000000E+00
Nuclear QMom                               R   N=          10
  2.04400000E+00  0.00000000E+00  0.00000000E+00  0.00000000E+00  0.00000000E+00
  0.00000000E+00  0.00000000E+00  0.00000000E+00  0.00000000E+00  0.00000000E+00
Nuclear GFac                               R   N=          10
  4.03761000E-01  0.00000000E+00  0.00000000E+00  0.00000000E+00  0.00000000E+00
  2.79284600E+00  2.79284600E+00  2.79284600E+00  2.79284600E+00  2.79284600E+00
MicOpt                                     I   N=          10
          -1          -1          -1          -1          -1          -1
          -1          -1          -1          -1
Number of contracted shells                I               30
Number of primitive shells                 I               75
Pure/Cartesian d shells                    I                1
Pure/Cartesian f shells                    I                0
Highest angular momentum                   I                2
Largest degree of contraction              I                6
Shell types                                I   N=          30
           0          -1          -1           2           0          -1
          -1           2           0          -1          -1           2
           0          -1          -1           2           0          -1
          -1           2           0           0           0           0
           0           0           0           0           0           0
Number of primitives per shell             I   N=          30
           6           3           1           1           6           3
           1           1           6           3           1           1
           6           3           1           1           6           3
           1           1           3           1           3           1
           3           1           3           1           3           1
Shell to atom map                          I   N=          30
           1           1           1           1           2           2
           2           2           3           3           3           3
           4           4           4           4           5           5
           5           5           6           6           7           7
           8           8           9           9          10          10
Primitive exponents                        R   N=          75
  4.17351146E+03  6.27457911E+02  1.42902093E+02  4.02343293E+01  1.28202129E+01
  4.39043701E+00  1.16263619E+01  2.71627981E+00  7.72218397E-01  2.12031498E-01
  8.00000000E-01  3.04752488E+03  4.57369518E+02  1.03948685E+02  2.92101553E+01
  9.28666296E+00  3.16392696E+00  7.86827235E+00  1.88128854E+00  5.44249258E-01
  1.68714478E-01  8.00000000E-01  3.04752488E+03  4.57369518E+02  1.03948685E+02
  2.92101553E+01  9.28666296E+00  3.16392696E+00  7.86827235E+00  1.88128854E+00
  5.44249258E-01  1.68714478E-01  8.00000000E-01  3.04752488E+03  4.57369518E+02
  1.03948685E+02  2.92101553E+01  9.28666296E+00  3.16392696E+00  7.86827235E+00
  1.88128854E+00  5.44249258E-01  1.68714478E-01  8.00000000E-01  3.04752488E+03
  4.57369518E+02  1.03948685E+02  2.92101553E+01  9.28666296E+00  3.16392696E+00
  7.86827235E+00  1.88128854E+00  5.44249258E-01  1.68714478E-01  8.00000000E-01
  1.87311370E+01  2.82539436E+00  6.40121692E-01  1.61277759E-01  1.87311370E+01
  2.82539436E+00  6.40121692E-01  1.61277759E-01  1.87311370E+01  2.82539436E+00
  6.40121692E-01  1.61277759E-01  1.87311370E+01  2.82539436E+00  6.40121692E-01
  1.61277759E-01  1.87311370E+01  2.82539436E+00  6.40121692E-01  1.61277759E-01
Contraction coefficients                   R   N=          75
  1.83477216E-03  1.39946270E-02  6.85865518E-02  2.32240873E-01  4.69069948E-01
  3.60455199E-01 -1.14961182E-01 -1.69117479E-01  1.14585195E+00  1.00000000E+00
  1.00000000E+00  1.83473713E-03  1.40373228E-02  6.88426223E-02  2.32184443E-01
  4.67941348E-01  3.62311985E-01 -1.19332420E-01 -1.60854152E-01  1.14345644E+00
  1.00000000E+00  1.00000000E+00  1.83473713E-03  1.40373228E-02  6.88426223E-02
  2.32184443E-01  4.67941348E-01  3.62311985E-01 -1.19332420E-01 -1.60854152E-01
  1.14345644E+00  1.00000000E+00  1.00000000E+00  1.83473713E-03  1.40373228E-02
  6.88426223E-02  2.32184443E-01  4.67941348E-01  3.62311985E-01 -1.19332420E-01
 -1.60854152E-01  1.14345644E+00  1.00000000E+00  1.00000000E+00  1.83473713E-03
  1.40373228E-02  6.88426223E-02  2.32184443E-01  4.67941348E-01  3.62311985E-01
 -1.19332420E-01 -1.60854152E-01  1.14345644E+00  1.00000000E+00  1.00000000E+00
  3.34946043E-02  2.34726953E-01  8.13757326E-01  1.00000000E+00  3.34946043E-02
  2.34726953E-01  8.13757326E-01  1.00000000E+00  3.34946043E-02  2.34726953E-01
  8.13757326E-01  1.00000000E+00  3.34946043E-02  2.34726953E-01  8.13757326E-01
  1.00000000E+00  3.34946043E-02  2.34726953E-01  8.13757326E-01  1.00000000E+00
P(S=P) Contraction coefficients            R   N=          75
  0.00000000E+00  0.00000000E+00  0.00000000E+00  0.00000000E+00  0.00000000E+00
  0.00000000E+00  6.75797439E-02  3.23907296E-01  7.40895140E-01  1.00000000E+00
  0.00000000E+00  0.00000000E+00  0.00000000E+00  0.00000000E+00  0.00000000E+00
  0.00000000E+00  0.00000000E+00  6.89990666E-02  3.16423961E-01  7.44308291E-01
  1.00000000E+00  0.00000000E+00  0.00000000E+00  0.00000000E+00  0.00000000E+00
  0.00000000E+00  0.00000000E+00  0.00000000E+00  6.89990666E-02  3.16423961E-01
  7.44308291E-01  1.00000000E+00  0.00000000E+00  0.00000000E+00  0.00000000E+00
  0.00000000E+00  0.00000000E+00  0.00000000E+00  0.00000000E+00  6.89990666E-02
  3.16423961E-01  7.44308291E-01  1.00000000E+00  0.00000000E+00  0.00000000E+00
  0.00000000E+00  0.00000000E+00  0.00000000E+00  0.00000000E+00  0.00000000E+00
  6.89990666E-02  3.16423961E-01  7.44308291E-01  1.00000000E+00  0.00000000E+00
  0.00000000E+00  0.00000000E+00  0.00000000E+00  0.00000000E+00  0.00000000E+00
  0.00000000E+00  0.00000000E+00  0.00000000E+00  0.00000000E+00  0.00000000E+00
  0.00000000E+00  0.00000000E+00  0.00000000E+00  0.00000000E+00  0.00000000E+00
  0.00000000E+00  0.00000000E+00  0.00000000E+00  0.00000000E+00  0.00000000E+00
Coordinates of each shell                  R   N=          90
 -2.11623414E+00 -2.18091987E-05  4.24293920E-05 -2.11623414E+00 -2.18091987E-05
  4.24293920E-05 -2.11623414E+00 -2.18091987E-05  4.24293920E-05 -2.11623414E+00
 -2.18091987E-05  4.24293920E-05 -6.30941984E-01  2.12749920E+00 -7.66258633E-06
 -6.30941984E-01  2.12749920E+00 -7.66258633E-06 -6.30941984E-01  2.12749920E+00
 -7.66258633E-06 -6.30941984E-01  2.12749920E+00 -7.66258633E-06 -6.30898922E-01
 -2.12751161E+00  3.81915846E-05 -6.30898922E-01 -2.12751161E+00  3.81915846E-05
 -6.30898922E-01 -2.12751161E+00  3.81915846E-05 -6.30898922E-01 -2.12751161E+00
  3.81915846E-05  1.86096484E+00  1.34027633E+00 -6.41164000E-05  1.86096484E+00
  1.34027633E+00 -6.41164000E-05  1.86096484E+00  1.34027633E+00 -6.41164000E-05
  1.86096484E+00  1.34027633E+00 -6.41164000E-05  1.86099207E+00 -1.34023855E+00
 -1.73848405E-05  1.86099207E+00 -1.34023855E+00 -1.73848405E-05  1.86099207E+00
 -1.34023855E+00 -1.73848405E-05  1.86099207E+00 -1.34023855E+00 -1.73848405E-05
 -4.02638682E+00 -3.95784191E-05  1.11295315E-04 -4.02638682E+00 -3.95784191E-05
  1.11295315E-04 -1.45679897E+00  3.99602368E+00 -3.28742642E-05 -1.45679897E+00
  3.99602368E+00 -3.28742642E-05 -1.45671331E+00 -3.99605484E+00  8.30344584E-05
 -1.45671331E+00 -3.99605484E+00  8.30344584E-05  3.49639480E+00  2.56737621E+00
 -1.14500183E-04  3.49639480E+00  2.56737621E+00 -1.14500183E-04  3.49644722E+00
 -2.56730505E+00 -3.81276168E-05  3.49644722E+00 -2.56730505E+00 -3.81276168E-05
Constraint Structure                       R   N=          30
 -2.11623414E+00 -2.18091987E-05  4.24293920E-05 -6.30941984E-01  2.12749920E+00
 -7.66258633E-06 -6.30898922E-01 -2.12751161E+00  3.81915846E-05  1.86096484E+00
  1.34027633E+00 -6.41164000E-05  1.86099207E+00 -1.34023855E+00 -1.73848405E-05
 -4.02638682E+00 -3.95784191E-05  1.11295315E-04 -1.45679897E+00  3.99602368E+00
 -3.28742642E-05 -1.45671331E+00 -3.99605484E+00  8.30344584E-05  3.49639480E+00
  2.56737621E+00 -1.14500183E-04  3.49644722E+00 -2.56730505E+00 -3.81276168E-05
Num ILSW                                   I              100
ILSW                                       I   N=         100
           0           1           0           1           2           0
           0           0           0           0           0          -1
           0           0           0           0           0           0
           0           0           0           0           1           0
           1           0           0           0           0           0
           0           0      100000           0          -1           0
           0           0           0           0           0           0
           0           0           0           1           1           0
           0           0           1           0           0           0
           0           0           4          40           0           0
           0           0           0           0           0           0
           0           0           0           0           0           0
           0           0           0           0           0           0
           0           0           0           0           0           0
           0           0           0           0           0           0
           0           0           0           0           0           0
           0           0           0           0
Num RLSW                                   I               40
RLSW                                       R   N=          40
  1.00000000E+00  1.00000000E+00  1.00000000E+00  1.00000000E+00  1.00000000E+00
  0.00000000E+00  0.00000000E+00  1.00000000E+00  0.00000000E+00  0.00000000E+00
  0.00000000E+00  0.00000000E+00  1.00000000E+00  0.00000000E+00  0.00000000E+00
  0.00000000E+00  0.00000000E+00  1.00000000E+00  0.00000000E+00  0.00000000E+00
  0.00000000E+00  0.00000000E+00  1.00000000E+00  0.00000000E+00  0.00000000E+00
  0.00000000E+00  0.00000000E+00  1.00000000E+00  0.00000000E+00  0.00000000E+00
  0.00000000E+00  0.00000000E+00  0.00000000E+00  0.00000000E+00  0.00000000E+00
  0.00000000E+00  0.00000000E+00  0.00000000E+00  1.00000000E+00  1.00000000E+00
MxBond                                     I                3
NBond                                      I   N=          10
           3           3           3           3           3           1
           1           1           1           1
IBond                                      I   N=          30
           2           3           6           1           4           7
           1           5           8           2           5           9
           3           4          10           1           0           0
           2           0           0           3           0           0
           4           0           0           5           0           0
RBond                                      R   N=          30
  1.00000000E+00  1.00000000E+00  1.00000000E+00  1.00000000E+00  1.50000000E+00
  1.00000000E+00  1.00000000E+00  1.50000000E+00  1.00000000E+00  1.50000000E+00
  1.50000000E+00  1.00000000E+00  1.50000000E+00  1.50000000E+00  1.00000000E+00
  1.00000000E+00  0.00000000E+00  0.00000000E+00  1.00000000E+00  0.00000000E+00
  0.00000000E+00  1.00000000E+00  0.00000000E+00  0.00000000E+00  1.00000000E+00
  0.00000000E+00  0.00000000E+00  1.00000000E+00  0.00000000E+00  0.00000000E+00
Virial Ratio                               R      2.002478697729870E+00
SCF Energy                                 R     -2.088056700986514E+02
MP2 Energy                                 R     -2.094808413704947E+02
Total Energy                               R     -2.094808413704947E+02
Post-SCF wavefunction norm                 R      1.572758587221122E+00
RMS Force                                  R      1.650686352660432E-06
RMS Density                                R      4.222568019677119E-10
External E-field                           R   N=          35
  0.00000000E+00  0.00000000E+00  0.00000000E+00  0.00000000E+00  0.00000000E+00
  0.00000000E+00  0.00000000E+00  0.00000000E+00  0.00000000E+00  0.00000000E+00
  0.00000000E+00  0.00000000E+00  0.00000000E+00  0.00000000E+00  0.00000000E+00
  0.00000000E+00  0.00000000E+00  0.00000000E+00  0.00000000E+00  0.00000000E+00
  0.00000000E+00  0.00000000E+00  0.00000000E+00  0.00000000E+00  0.00000000E+00
  0.00000000E+00  0.00000000E+00  0.00000000E+00  0.00000000E+00  0.00000000E+00
  0.00000000E+00  0.00000000E+00  0.00000000E+00  0.00000000E+00  0.00000000E+00
IOpCl                                      I                0
IROHF                                      I                0
Alpha Orbital Energies                     R   N=          85
 -1.56065406E+01 -1.12478555E+01 -1.12478152E+01 -1.12045657E+01 -1.12035380E+01
 -1.28106301E+00 -1.03169057E+00 -9.67198844E-01 -7.84653408E-01 -7.57569472E-01
 -7.27444086E-01 -5.83132346E-01 -5.75668519E-01 -5.56737562E-01 -5.37365283E-01
 -5.19978954E-01 -3.36829044E-01 -2.87273695E-01  2.00729043E-01  2.23858412E-01
  2.60676654E-01  2.88564661E-01  3.10129205E-01  3.20116983E-01  3.29455843E-01
  4.14329131E-01  4.20066117E-01  5.02121428E-01  5.40004253E-01  6.72823413E-01
  7.34923014E-01  7.87115218E-01  8.16120694E-01  8.31902959E-01  8.42847730E-01
  8.55767817E-01  8.71026789E-01  8.73128272E-01  8.77842023E-01  9.46863445E-01
  1.03923516E+00  1.06962023E+00  1.08760322E+00  1.13209816E+00  1.13754300E+00
  1.16758345E+00  1.19946971E+00  1.20004817E+00  1.22319427E+00  1.39739094E+00
  1.41949182E+00  1.50726732E+00  1.53820978E+00  1.61616081E+00  1.63734871E+00
  1.66544743E+00  1.76194036E+00  1.77150229E+00  1.83801189E+00  1.84462678E+00
  2.10050750E+00  2.18941311E+00  2.31959781E+00  2.33569696E+00  2.39374347E+00
  2.45391703E+00  2.54880610E+00  2.56007530E+00  2.57354613E+00  2.59801813E+00
  2.66196278E+00  2.67093257E+00  2.90283709E+00  2.94879715E+00  2.98030025E+00
  3.05114754E+00  3.06145323E+00  3.34896229E+00  3.37409407E+00  3.39145914E+00
  4.34245923E+00  4.55690780E+00  4.56154489E+00  4.77287518E+00  4.90534028E+00
Alpha MO coefficients                      R   N=        7225
  9.94974419E-01  2.51704143E-02  6.48885258E-05 -7.27009665E-11  2.12754793E-08
 -3.31149694E-03 -1.10928120E-03 -1.05235258E-08  8.04190820E-09 -3.37994301E-03
 -3.44756851E-03 -3.40226819E-03  1.74533169E-10 -2.27677610E-09 -5.74447048E-10
  1.84949018E-05  1.70752903E-04 -1.78266804E-04 -1.86517640E-04  5.67946120E-09
  1.86850071E-03  1.06059567E-04 -1.17441569E-03  1.32210473E-08 -7.23315793E-05
 -8.76357067E-05 -6.84651764E-05 -1.98316059E-05 -4.79469183E-10  5.08203395E-10
  1.84949960E-05  1.70753003E-04 -1.78270268E-04  1.86513143E-04  1.80007990E-09
  1.86850308E-03  1.06034961E-04  1.17442199E-03 -1.34134762E-08 -7.23323059E-05
 -8.76356845E-05 -6.84650973E-05  1.98323033E-05  8.54721864E-11  3.94444449E-10
  1.00033686E-05  1.22600616E-08  5.05365569E-05 -5.06822695E-05 -8.59678481E-10
 -6.61009919E-04  4.57519742E-04  1.94448747E-04 -1.44086529E-08  2.13907625E-05
  3.62500253E-05  4.60425818E-06  1.51235493E-05 -2.77837239E-10 -4.61766790E-10
  1.00033813E-05  1.23268335E-08  5.05355373E-05  5.06833542E-05 -1.65381228E-09
 -6.61012792E-04  4.57524758E-04 -1.94442392E-04 -7.93427280E-09  2.13913215E-05
  3.62494523E-05  4.60426159E-06 -1.51238870E-05  1.39660245E-10  1.57217466E-10
  1.38348470E-04  1.50219008E-04 -5.75330276E-07  2.58892469E-04 -5.74850398E-07
  2.58894298E-04 -3.04229738E-05 -1.16507325E-04 -3.04231096E-05 -1.16508241E-04
 -1.01665232E-08  1.88179040E-08  1.90115230E-09 -3.72644504E-05  8.39329743E-10
 -3.51248905E-08 -9.23422440E-08  1.40710757E-04  1.95596526E-09 -2.20119188E-08
 -1.51313701E-08  8.20998934E-09  3.80220572E-04 -4.19110088E-09 -6.42980695E-09
 -7.03957765E-01 -1.94716916E-02  4.07726323E-04  5.73344227E-04 -4.53899205E-09
  9.19425514E-03  1.89441148E-03 -1.92661867E-03 -3.78062549E-08  1.23690350E-03
  1.17201291E-03  1.61687892E-03  2.22186715E-05  7.47476340E-09  9.75261089E-09
  7.03998287E-01  1.94727845E-02 -4.07771186E-04  5.73374736E-04  4.22198377E-09
 -9.19450640E-03 -1.89433669E-03 -1.92653425E-03  5.18707617E-08 -1.23697126E-03
 -1.17205955E-03 -1.61698126E-03  2.22133507E-05 -1.04248878E-08 -8.92786565E-09
 -1.00469324E-02 -8.82516546E-05 -1.15483491E-04 -3.34323204E-05  4.79803038E-09
 -5.38412454E-03  2.66378703E-03  1.79900564E-04 -7.30411795E-08  2.64040600E-04
  3.07801384E-04  1.31344969E-04  9.53157741E-05 -4.60210662E-09 -4.52185558E-09
  1.00474969E-02  8.82599193E-05  1.15494215E-04 -3.34245146E-05 -1.02323922E-09
  5.38416511E-03 -2.66379002E-03  1.79814184E-04  4.54985401E-08 -2.64058553E-04
 -3.07802882E-04 -1.31347966E-04  9.53155500E-05  2.58389874E-09  1.82751931E-10
 -1.03796886E-08 -2.88594990E-08  3.01111060E-04 -5.74083614E-04 -3.01115906E-04
  5.74216459E-04 -1.08150021E-05 -3.18219931E-04  1.08105996E-05  3.18208661E-04
 -3.39038472E-04  6.53823154E-04  5.85089661E-05  2.10684855E-09 -2.67680137E-09
 -1.09991028E-03 -2.98864848E-03 -2.86052554E-08  6.69645396E-08 -5.22656230E-04
 -7.56379926E-04  2.83119919E-04 -7.88763486E-09  1.31255581E-08  1.17302017E-08
  7.03949479E-01  1.89491500E-02 -5.58527122E-04 -6.57386588E-04  4.76363589E-09
 -4.47231220E-03  5.61015439E-04 -2.00421549E-03  3.53311208E-08 -1.14098350E-03
 -8.44489740E-04 -1.76327411E-03  3.28641862E-05 -1.56828272E-08 -1.23736723E-08
  7.03908954E-01  1.89480314E-02 -5.58517535E-04  6.57342607E-04  7.06223539E-09
 -4.47177822E-03  5.61073985E-04  2.00434753E-03 -4.55266068E-08 -1.14091196E-03
 -8.44422607E-04 -1.76318204E-03 -3.28744838E-05 -1.47993515E-08 -1.29739131E-08
  1.00641066E-02  1.42777889E-04  1.80474369E-04 -9.31069885E-05 -3.55545027E-09
  7.98395995E-04 -3.17178780E-05  5.62787637E-04 -1.79447316E-08 -2.65746115E-04
 -8.51426977E-05 -5.58423759E-05  2.25893534E-05  9.12588782E-09  1.08157018E-09
  1.00635135E-02  1.42772339E-04  1.80465304E-04  9.31124086E-05 -3.97177269E-09
  7.98087552E-04 -3.15546768E-05 -5.62804034E-04  1.24639663E-08 -2.65729435E-04
 -8.51259027E-05 -5.58348531E-05 -2.25989328E-05  4.19411220E-09  1.74114888E-09
 -3.35182959E-04 -9.42432549E-04 -1.06446737E-04  2.24917204E-03 -1.06428749E-04
  2.24914117E-03 -7.71378496E-05 -1.89442951E-04 -7.71387114E-05 -1.89462462E-04
  9.67866689E-05  2.09419229E-04  1.34134830E-04  1.35201588E-09 -2.61245740E-09
 -2.86525420E-03 -1.33645668E-03 -2.67407757E-08  2.68950114E-08  2.78318831E-04
  1.81343888E-04  1.85040983E-04  3.08300502E-09 -4.40563422E-09 -7.41748081E-10
 -1.04258297E-02 -5.02205904E-04 -1.73083233E-04  2.96336903E-05  2.95177723E-09
  4.33868511E-03  1.37866777E-03 -1.60540278E-03 -9.48184115E-09 -2.27041916E-04
 -1.12715375E-04 -6.58200886E-05  2.02492575E-05  5.24015243E-09  2.01880986E-10
 -1.04251771E-02 -5.02183664E-04 -1.73077879E-04 -2.96284439E-05  4.25002662E-09
  4.33839755E-03  1.37854670E-03  1.60534644E-03 -5.31191304E-08 -2.27019285E-04
 -1.12698773E-04 -6.58160091E-05 -2.02450607E-05  2.77974669E-09  2.59711475E-10
  7.03818930E-01  1.95735113E-02 -1.23884305E-04 -5.78259710E-05  1.14661352E-08
 -6.95755289E-03  1.37353949E-03 -2.53459428E-04 -4.68463415E-08 -1.35146365E-03
 -1.57785520E-03 -1.73407150E-03  3.04346430E-05 -9.97631228E-09 -1.26156470E-09
  7.03776013E-01  1.95723105E-02 -1.23867234E-04  5.78097116E-05 -4.90053703E-09
 -6.95670645E-03  1.37339994E-03  2.53647661E-04 -1.67425827E-08 -1.35140622E-03
 -1.57780534E-03 -1.73397641E-03 -3.04248858E-05 -8.88461282E-09 -2.19121053E-10
 -1.01463809E-04 -1.62520298E-04 -9.98464461E-06  3.99198202E-04 -9.98486451E-06
  3.99188482E-04 -2.49660679E-04  1.02786075E-03 -2.49648750E-04  1.02780935E-03
  2.96934693E-09  6.46239695E-09  4.21097529E-09 -1.16975056E-06 -1.16875707E-09
 -8.81867929E-08 -4.62049981E-08  4.73855305E-04 -3.26008111E-10  9.76791771E-09
  4.42248308E-09  5.62688283E-09 -6.26705715E-05  2.50622764E-09  1.09942988E-09
  1.04606291E-02  3.60825973E-04  7.50643404E-05 -1.43684096E-04 -1.77479271E-09
 -4.75180102E-03 -1.42349494E-03  1.43897494E-03  2.12464586E-08  3.54843710E-04
  2.84174887E-04  6.76245010E-05 -1.10879579E-04 -7.29196265E-09 -2.11208241E-09
 -1.04612499E-02 -3.60856379E-04 -7.50717847E-05 -1.43687146E-04  1.58015230E-09
  4.75206609E-03  1.42354835E-03  1.43910066E-03 -4.29659857E-08 -3.54853453E-04
 -2.84185604E-04 -6.76285987E-05 -1.10882297E-04  7.81399310E-09  6.57038490E-09
 -7.04108410E-01 -1.97059223E-02  2.88451758E-04  2.34840432E-04 -1.89441381E-08
  1.39100509E-02 -2.20013241E-03 -2.67754728E-03  1.09861870E-07  9.28409750E-04
  8.38159878E-04  1.56004838E-03 -7.21895579E-05  1.66941721E-08  1.41842183E-08
  7.04151307E-01  1.97071157E-02 -2.88463509E-04  2.34838467E-04 -5.66159612E-09
 -1.39104737E-02  2.20026957E-03 -2.67748743E-03  1.04438558E-08 -9.28489788E-04
 -8.38258932E-04 -1.56015413E-03 -7.21935394E-05 -1.53906731E-08 -1.12203825E-08
 -3.33306810E-09 -5.22616167E-09 -5.15282904E-06 -1.79017981E-04  5.15193874E-06
  1.79041170E-04  1.97735594E-04 -8.34188224E-04 -1.97750849E-04  8.34251111E-04
 -1.70843379E-01  3.53561392E-01  5.71931452E-02  5.23597530E-07 -2.31754271E-07
  3.69907389E-01  4.03414765E-02  3.83007315E-07 -3.05725985E-07  1.77977733E-02
  9.00193126E-03 -1.22372432E-02  7.77355681E-08 -9.17500734E-07 -2.66730788E-07
 -8.56801808E-02  1.63359462E-01 -2.91223295E-02 -9.41141611E-02  1.41409144E-06
  3.75541181E-02 -6.12451033E-03  2.57031917E-02 -2.30458423E-07  4.27497869E-03
  1.33758321E-02 -9.81255125E-03  8.87066197E-03 -4.40607978E-07 -4.94121601E-07
 -8.56802607E-02  1.63359629E-01 -2.91242992E-02  9.41136647E-02 -4.10318853E-07
  3.75540664E-02 -6.12396038E-03 -2.57034811E-02  4.71295725E-07  4.27528067E-03
  1.33755096E-02 -9.81256061E-03 -8.87089113E-03 -2.40716215E-07 -1.16438667E-07
 -4.53051794E-02  8.28415945E-02 -4.74664136E-02 -1.92089987E-02  1.47962781E-06
  5.88765076E-02 -1.43710277E-02 -5.92801788E-03  4.68190163E-07  6.51315912E-03
  2.12645975E-03 -4.64667964E-03  7.71594105E-04 -3.32046575E-07 -1.41171580E-07
 -4.53051891E-02  8.28416042E-02 -4.74668274E-02  1.92080264E-02  5.73896529E-07
  5.88766348E-02 -1.43712072E-02  5.92782847E-03  1.79718173E-07  6.51319597E-03
  2.12643034E-03 -4.64668084E-03 -7.71491282E-04 -2.30848864E-07 -1.13284321E-07
  8.32099872E-02  4.30690817E-03  2.40128729E-02 -9.24329412E-03  2.40128578E-02
 -9.24337548E-03  1.00846733E-02  1.38975554E-03  1.00846774E-02  1.38979334E-03
  9.58531744E-02 -2.07446213E-01  1.01220620E-01  1.01214877E-06 -3.27117432E-06
 -2.39662249E-01  5.76121070E-02  5.62776790E-07 -1.92206256E-06 -9.19733244E-03
 -2.00323790E-03  3.48997393E-03 -6.02177692E-08  6.68714937E-07  6.50842728E-08
 -3.54542135E-02  6.79497292E-02  1.30518815E-01  2.12446015E-03 -3.18220345E-06
  5.01259911E-02  1.50159954E-02 -6.98943750E-04 -3.47836770E-07  5.58895612E-03
 -2.54808635E-03 -2.34057158E-03 -1.52186542E-02 -1.03830370E-07  3.46923872E-07
 -3.54542128E-02  6.79497159E-02  1.30518900E-01 -2.12187769E-03 -2.68800967E-06
  5.01259929E-02  1.50159692E-02  6.99248815E-04 -2.47192340E-07  5.58842009E-03
 -2.54752412E-03 -2.34057347E-03  1.52188482E-02 -3.36406171E-07 -3.33288300E-07
 -1.28948283E-01  2.44693651E-01 -3.70561080E-02 -6.56194248E-02  2.28970137E-06
  1.81228498E-01 -1.97000756E-03 -5.81851364E-03  2.62084482E-07  5.65146458E-03
  1.30488181E-02 -1.08911883E-02  2.95042332E-03 -5.13341152E-07 -5.01950660E-07
 -1.28948278E-01  2.44693634E-01 -3.70574512E-02  6.56186749E-02 -6.13752686E-07
  1.81228478E-01 -1.97012272E-03  5.81844242E-03 -1.46706223E-07  5.65157053E-03
  1.30487099E-02 -1.08911861E-02 -2.95059490E-03 -3.31340670E-07 -3.69772539E-07
 -1.11080535E-01 -8.47951894E-03  6.90056737E-03 -6.52529919E-04  6.90065885E-03
 -6.52495912E-04  6.02590724E-02  1.01852367E-02  6.02590626E-02  1.01852271E-02
 -5.20518683E-09  5.66202250E-09 -2.29314623E-06  2.12071899E-01 -2.59247121E-06
  1.44514723E-08 -1.06642229E-06  9.88480688E-02 -1.15866823E-06 -2.64498697E-07
  2.91381958E-07 -4.98358535E-09  1.63373827E-02 -1.94125032E-07 -1.91336851E-07
 -1.33578691E-01  2.64400675E-01  1.41950469E-02 -1.39022002E-02 -1.13646287E-06
  1.89409175E-01  8.03352426E-03  1.95460447E-02 -5.76026531E-07  1.10670297E-02
  6.50521008E-03 -1.11628555E-02 -2.13970766E-03 -5.14236689E-07 -2.71197942E-07
  1.33578692E-01 -2.64400683E-01 -1.41947537E-02 -1.39024713E-02  2.25035808E-07
 -1.89409132E-01 -8.03399076E-03  1.95459252E-02 -2.34995515E-07 -1.10669220E-02
 -6.50531347E-03  1.11628591E-02 -2.13977442E-03  5.48851745E-07  3.26596193E-07
 -6.96491359E-02  1.33613064E-01 -7.33941863E-02  7.35902801E-02  9.17089906E-07
  1.16742021E-01 -5.81105761E-03  4.92839426E-03  1.10230325E-07  1.32099308E-02
 -5.60661254E-03 -4.98584662E-03 -3.33415251E-03 -4.69597007E-07  1.14296675E-07
  6.96490611E-02 -1.33612916E-01  7.33927134E-02  7.35917984E-02 -2.30872802E-06
 -1.16741867E-01  5.81095869E-03  4.92850199E-03 -5.82620113E-08 -1.32098222E-02
  5.60650694E-03  4.98583959E-03 -3.33459502E-03  4.40289579E-07  3.82293539E-08
  1.23186545E-07  1.61503489E-08  9.05516227E-02  2.13104359E-02 -9.05516229E-02
 -2.13104229E-02  4.31824706E-02  1.01459678E-02 -4.31824159E-02 -1.01459630E-02
  3.91252051E-02 -8.64814321E-02  3.14434439E-01  2.86024888E-06 -9.45105054E-06
 -9.53363097E-02  2.01240513E-01  1.85039815E-06 -5.96078330E-06 -2.15836158E-02
  1.10112789E-02  1.85857957E-03 -3.53016538E-07  1.23603536E-06 -1.17939979E-07
 -7.37792854E-02  1.48197838E-01 -4.74260450E-04 -1.20215377E-02 -1.00620934E-06
  9.98103082E-02 -1.78921440E-02  3.96751211E-02 -3.43079355E-07 -5.81633712E-03
  1.46962449E-02 -6.83198341E-03 -3.97561663E-03  7.13392553E-08 -2.06226992E-07
 -7.37792492E-02  1.48197772E-01 -4.74896587E-04  1.20216769E-02 -3.98879356E-07
  9.98100062E-02 -1.78914093E-02 -3.96756071E-02  9.71827887E-07 -5.81651491E-03
  1.46964347E-02 -6.83199075E-03  3.97507548E-03 -1.80958852E-08 -4.66661351E-07
  6.65645692E-02 -1.31980968E-01 -1.51963479E-01  7.39647906E-02  1.91636388E-06
 -1.14443344E-01 -5.98142845E-02  9.28692559E-03  1.15273176E-06  2.89605472E-03
 -1.34026668E-02  4.32068131E-03 -6.72981454E-03  7.79988915E-08  4.97887536E-07
  6.65647987E-02 -1.31981409E-01 -1.51961947E-01 -7.39675824E-02  4.30707349E-06
 -1.14443673E-01 -5.98142012E-02 -9.28796537E-03  1.34206005E-06  2.89579024E-03