
    -----------------------------------------------------------------------
          Psi4: An Open-Source Ab Initio Electronic Structure Package
                               Psi4 1.4a2.dev612 

                         Git: Rev {master} 58d3bc0 


    D. G. A. Smith, L. A. Burns, A. C. Simmonett, R. M. Parrish,
    M. C. Schieber, R. Galvelis, P. Kraus, H. Kruse, R. Di Remigio,
    A. Alenaizan, A. M. James, S. Lehtola, J. P. Misiewicz, M. Scheurer,
    R. A. Shaw, J. B. Schriber, Y. Xie, Z. L. Glick, D. A. Sirianni,
    J. S. O'Brien, J. M. Waldrop, A. Kumar, E. G. Hohenstein,
    B. P. Pritchard, B. R. Brooks, H. F. Schaefer III, A. Yu. Sokolov,
    K. Patkowski, A. E. DePrince III, U. Bozkaya, R. A. King,
    F. A. Evangelista, J. M. Turney, T. D. Crawford, C. D. Sherrill,
    J. Chem. Phys. 152(18) 184108 (2020). https://doi.org/10.1063/5.0006002

                            Additional Code Authors
    E. T. Seidl, C. L. Janssen, E. F. Valeev, M. L. Leininger,
    J. F. Gonthier, R. M. Richard, H. R. McAlexander, M. Saitow, X. Wang,
    P. Verma, and M. H. Lechner

             Previous Authors, Complete List of Code Contributors,
                       and Citations for Specific Modules
    https://github.com/psi4/psi4/blob/master/codemeta.json
    https://github.com/psi4/psi4/graphs/contributors
    http://psicode.org/psi4manual/master/introduction.html#citing-psifour

    -----------------------------------------------------------------------


    Psi4 started on: Tuesday, 02 February 2021 10:05AM

    Process ID: 6657
    Host:       node59.bme.utexas.edu
    PSIDATADIR: /home/xy3866/.conda/envs/test-rdkit/share/psi4
    Memory:     500.0 MiB
    Threads:    8
    
  ==> Input File <==

--------------------------------------------------------------------------
#psi4
#
memory 32 gb

molecule  {
0 1
  N        1.7773000    -0.9706020    -0.3863220
  C        1.0080060     0.0962300     0.0271750
  C       -0.4507830     0.0432590     0.0183630
  C        1.8938950     1.0905280     0.4329840
  C       -1.1961700     1.1987140    -0.2700270
  C       -1.1363230    -1.1523850     0.2941990
  C        3.1117900    -0.6733570    -0.2771830
  C        3.2093430     0.6071710     0.2411150
  C       -2.5895110     1.1608830    -0.2689850
  C       -2.5303830    -1.1922690     0.2696200
  C       -3.2626170    -0.0361670    -0.0095020
  H        1.3994420    -1.7974010    -0.8317830
  H        1.6083472     1.9236296     1.1385542
  H       -0.6712930     2.1216380    -0.5070250
  H       -0.5746270    -2.0444360     0.5668450
  H        3.8716190    -1.3816710    -0.5776140
  H        4.1315670     1.1252340     0.4699550
  H       -3.1528190     2.0640850    -0.4925600
  H       -3.0466780    -2.1247140     0.4868240
  H       -4.3493910    -0.0663800    -0.0199320
units angstrom
no_reorient  #important for SAPT in psi4, default
symmetry c1  #important for SAPT in psi4, default
}

set PROPERTIES_ORIGIN ["COM"]
properties('MP2/aug-cc-pvtz', properties = ['dipole'])
--------------------------------------------------------------------------

  Memory set to  29.802 GiB by Python driver.
    SCF Algorithm Type (re)set to DF.

*** tstart() called on node59.bme.utexas.edu
*** at Tue Feb  2 10:05:26 2021

   => Loading Basis Set <=

    Name: AUG-CC-PVTZ
    Role: ORBITAL
    Keyword: BASIS
    atoms 1     entry N          line   285 file /home/xy3866/.conda/envs/test-rdkit/share/psi4/basis/aug-cc-pvtz.gbs 
    atoms 2-11  entry C          line   239 file /home/xy3866/.conda/envs/test-rdkit/share/psi4/basis/aug-cc-pvtz.gbs 
    atoms 12-20 entry H          line    40 file /home/xy3866/.conda/envs/test-rdkit/share/psi4/basis/aug-cc-pvtz.gbs 


         ---------------------------------------------------------
                                   SCF
               by Justin Turney, Rob Parrish, Andy Simmonett
                          and Daniel G. A. Smith
                              RHF Reference
                        8 Threads,  30517 MiB Core
         ---------------------------------------------------------

  ==> Geometry <==

    Molecular point group: c1
    Full point group: C1

    Geometry (in Angstrom), charge = 0, multiplicity = 1:

       Center              X                  Y                   Z               Mass       
    ------------   -----------------  -----------------  -----------------  -----------------
         N            1.771815678200    -0.970171789923    -0.388548142129    14.003074004430
         C            1.002521678200     0.096660210077     0.024948857871    12.000000000000
         C           -0.456267321800     0.043689210077     0.016136857871    12.000000000000
         C            1.888410678200     1.090958210077     0.430757857871    12.000000000000
         C           -1.201654321800     1.199144210077    -0.272253142129    12.000000000000
         C           -1.141807321800    -1.151954789923     0.291972857871    12.000000000000
         C            3.106305678200    -0.672926789923    -0.279409142129    12.000000000000
         C            3.203858678200     0.607601210077     0.238888857871    12.000000000000
         C           -2.594995321800     1.161313210077    -0.271211142129    12.000000000000
         C           -2.535867321800    -1.191838789923     0.267393857871    12.000000000000
         C           -3.268101321800    -0.035736789923    -0.011728142129    12.000000000000
         H            1.393957678200    -1.796970789923    -0.834009142129     1.007825032230
         H            1.602862878200     1.924059810077     1.136328057871     1.007825032230
         H           -0.676777321800     2.122068210077    -0.509251142129     1.007825032230
         H           -0.580111321800    -2.044005789923     0.564618857871     1.007825032230
         H            3.866134678200    -1.381240789923    -0.579840142129     1.007825032230
         H            4.126082678200     1.125664210077     0.467728857871     1.007825032230
         H           -3.158303321800     2.064515210077    -0.494786142129     1.007825032230
         H           -3.052162321800    -2.124283789923     0.484597857871     1.007825032230
         H           -4.354875321800    -0.065949789923    -0.022158142129     1.007825032230

  Running in c1 symmetry.

  Rotational constants: A =      0.11632  B =      0.02251  C =      0.01944 [cm^-1]
  Rotational constants: A =   3487.21311  B =    674.94303  C =    582.78098 [MHz]
  Nuclear repulsion =  536.637416740894992

  Charge       = 0
  Multiplicity = 1
  Electrons    = 76
  Nalpha       = 38
  Nbeta        = 38

  ==> Algorithm <==

  SCF Algorithm Type is DF.
  DIIS enabled.
  MOM disabled.
  Fractional occupation disabled.
  Guess Type is SAD.
  Energy threshold   = 1.00e-10
  Density threshold  = 1.00e-10
  Integral threshold = 0.00e+00

  ==> Primary Basis <==

  Basis Set: AUG-CC-PVTZ
    Blend: AUG-CC-PVTZ
    Number of shells: 235
    Number of basis function: 713
    Number of Cartesian functions: 830
    Spherical Harmonics?: true
    Max angular momentum: 3

   => Loading Basis Set <=

    Name: (AUG-CC-PVTZ AUX)
    Role: JKFIT
    Keyword: DF_BASIS_SCF
    atoms 1     entry N          line   224 file /home/xy3866/.conda/envs/test-rdkit/share/psi4/basis/aug-cc-pvtz-jkfit.gbs 
    atoms 2-11  entry C          line   162 file /home/xy3866/.conda/envs/test-rdkit/share/psi4/basis/aug-cc-pvtz-jkfit.gbs 
    atoms 12-20 entry H          line    70 file /home/xy3866/.conda/envs/test-rdkit/share/psi4/basis/aug-cc-pvtz-jkfit.gbs 

  ==> Integral Setup <==

  DFHelper Memory: AOs need 5.611 GiB; user supplied 22.352 GiB. Using in-core AOs.

  ==> MemDFJK: Density-Fitted J/K Matrices <==

    J tasked:                   Yes
    K tasked:                   Yes
    wK tasked:                   No
    OpenMP threads:               8
    Memory [MiB]:             22888
    Algorithm:                 Core
    Schwarz Cutoff:           1E-12
    Mask sparsity (%):       7.4635
    Fitting Condition:        1E-10

   => Auxiliary Basis Set <=

  Basis Set: (AUG-CC-PVTZ AUX)
    Blend: AUG-CC-PVTZ-JKFIT
    Number of shells: 456
    Number of basis function: 1558
    Number of Cartesian functions: 1936
    Spherical Harmonics?: true
    Max angular momentum: 4

  Minimum eigenvalue in the overlap matrix is 5.3397698727E-07.
  Reciprocal condition number of the overlap matrix is 2.7593091394E-08.
    Using symmetric orthogonalization.

  ==> Pre-Iterations <==

  SCF Guess: Superposition of Atomic Densities via on-the-fly atomic UHF (no occupation information).

   -------------------------
    Irrep   Nso     Nmo    
   -------------------------
     A        713     713 
   -------------------------
    Total     713     713
   -------------------------

  ==> Iterations <==

                           Total Energy        Delta E     RMS |[F,P]|

   @DF-RHF iter SAD:  -438.15577899710161   -4.38156e+02   0.00000e+00 
   @DF-RHF iter   1:  -438.19425216938998   -3.84732e-02   1.00015e-03 DIIS
   @DF-RHF iter   2:  -438.44200975506214   -2.47758e-01   4.76898e-04 DIIS
   @DF-RHF iter   3:  -438.49948014815664   -5.74704e-02   8.51021e-05 DIIS
   @DF-RHF iter   4:  -438.50240429897497   -2.92415e-03   2.55851e-05 DIIS
   @DF-RHF iter   5:  -438.50260011488234   -1.95816e-04   8.45289e-06 DIIS
   @DF-RHF iter   6:  -438.50263269899085   -3.25841e-05   2.73523e-06 DIIS
   @DF-RHF iter   7:  -438.50263920507842   -6.50609e-06   1.17990e-06 DIIS
   @DF-RHF iter   8:  -438.50264081630093   -1.61122e-06   5.82095e-07 DIIS
   @DF-RHF iter   9:  -438.50264119758799   -3.81287e-07   1.34417e-07 DIIS
   @DF-RHF iter  10:  -438.50264121787905   -2.02911e-08   6.08100e-08 DIIS
   @DF-RHF iter  11:  -438.50264122080756   -2.92852e-09   2.75536e-08 DIIS
   @DF-RHF iter  12:  -438.50264122191072   -1.10316e-09   1.24129e-08 DIIS
   @DF-RHF iter  13:  -438.50264122210592   -1.95200e-10   6.47940e-09 DIIS
   @DF-RHF iter  14:  -438.50264122214566   -3.97335e-11   2.23710e-09 DIIS
   @DF-RHF iter  15:  -438.50264122214901   -3.35376e-12   1.07181e-09 DIIS
   @DF-RHF iter  16:  -438.50264122215299   -3.97904e-12   3.37566e-10 DIIS
   @DF-RHF iter  17:  -438.50264122215339   -3.97904e-13   1.41718e-10 DIIS
   @DF-RHF iter  18:  -438.50264122214980    3.58114e-12   7.39138e-11 DIIS
  Energy and wave function converged.


  ==> Post-Iterations <==

    Orbital Energies [Eh]
    ---------------------

    Doubly Occupied:                                                      

       1A    -15.609331     2A    -11.263694     3A    -11.256970  
       4A    -11.253268     5A    -11.242316     6A    -11.241034  
       7A    -11.240674     8A    -11.238312     9A    -11.237787  
      10A    -11.216437    11A    -11.213777    12A     -1.295060  
      13A     -1.156441    14A     -1.048893    15A     -1.042919  
      16A     -1.016970    17A     -0.959330    18A     -0.837687  
      19A     -0.832223    20A     -0.787892    21A     -0.760823  
      22A     -0.735308    23A     -0.680144    24A     -0.633415  
      25A     -0.630148    26A     -0.591885    27A     -0.589780  
      28A     -0.582274    29A     -0.568342    30A     -0.547691  
      31A     -0.529882    32A     -0.504667    33A     -0.501044  
      34A     -0.494448    35A     -0.363497    36A     -0.350117  
      37A     -0.341447    38A     -0.274094  

    Virtual:                                                              

      39A      0.025502    40A      0.030321    41A      0.033969  
      42A      0.040543    43A      0.042500    44A      0.049972  
      45A      0.054729    46A      0.057392    47A      0.064459  
      48A      0.083400    49A      0.088702    50A      0.094421  
      51A      0.095792    52A      0.101298    53A      0.102675  
      54A      0.108004    55A      0.113495    56A      0.117400  
      57A      0.118085    58A      0.121795    59A      0.124312  
      60A      0.124730    61A      0.130105    62A      0.132859  
      63A      0.134312    64A      0.138717    65A      0.141566  
      66A      0.144020    67A      0.145782    68A      0.150874  
      69A      0.154169    70A      0.161935    71A      0.166293  
      72A      0.168726    73A      0.174588    74A      0.178663  
      75A      0.186564    76A      0.188725    77A      0.194393  
      78A      0.203611    79A      0.204859    80A      0.221817  
      81A      0.223432    82A      0.227673    83A      0.233509  
      84A      0.235505    85A      0.237902    86A      0.249007  
      87A      0.254938    88A      0.256060    89A      0.261663  
      90A      0.265413    91A      0.270104    92A      0.274743  
      93A      0.281567    94A      0.292315    95A      0.295528  
      96A      0.298821    97A      0.302466    98A      0.305948  
      99A      0.308943   100A      0.310801   101A      0.314473  
     102A      0.321266   103A      0.321849   104A      0.327741  
     105A      0.331251   106A      0.336726   107A      0.337806  
     108A      0.339492   109A      0.346635   110A      0.349258  
     111A      0.353565   112A      0.360586   113A      0.367841  
     114A      0.370575   115A      0.374250   116A      0.385594  
     117A      0.389784   118A      0.404524   119A      0.410416  
     120A      0.415632   121A      0.420277   122A      0.423522  
     123A      0.428850   124A      0.432269   125A      0.433268  
     126A      0.440170   127A      0.441816   128A      0.449361  
     129A      0.452577   130A      0.459751   131A      0.464588  
     132A      0.465036   133A      0.467862   134A      0.472410  
     135A      0.474193   136A      0.477730   137A      0.477969  
     138A      0.483496   139A      0.488943   140A      0.493062  
     141A      0.499284   142A      0.502802   143A      0.507627  
     144A      0.509908   145A      0.513353   146A      0.516398  
     147A      0.520203   148A      0.522914   149A      0.526143  
     150A      0.529174   151A      0.532624   152A      0.535836  
     153A      0.537847   154A      0.540017   155A      0.546979  
     156A      0.553283   157A      0.556724   158A      0.561157  
     159A      0.567237   160A      0.568018   161A      0.574457  
     162A      0.579778   163A      0.589417   164A      0.595453  
     165A      0.604401   166A      0.614867   167A      0.617077  
     168A      0.626576   169A      0.631972   170A      0.638064  
     171A      0.641165   172A      0.642022   173A      0.662772  
     174A      0.664363   175A      0.670364   176A      0.679372  
     177A      0.682328   178A      0.694134   179A      0.699652  
     180A      0.704310   181A      0.708504   182A      0.709711  
     183A      0.717080   184A      0.721624   185A      0.730647  
     186A      0.740153   187A      0.746632   188A      0.748373  
     189A      0.755323   190A      0.760256   191A      0.767499  
     192A      0.774579   193A      0.784250   194A      0.797117  
     195A      0.802588   196A      0.806591   197A      0.811120  
     198A      0.813980   199A      0.828763   200A      0.832063  
     201A      0.840498   202A      0.851519   203A      0.852773  
     204A      0.855168   205A      0.863524   206A      0.874721  
     207A      0.876109   208A      0.881561   209A      0.886622  
     210A      0.892302   211A      0.893471   212A      0.898231  
     213A      0.906479   214A      0.908379   215A      0.915798  
     216A      0.918682   217A      0.922568   218A      0.928442  
     219A      0.929578   220A      0.942039   221A      0.945177  
     222A      0.949204   223A      0.962872   224A      0.966365  
     225A      0.974385   226A      0.974682   227A      0.979633  
     228A      0.986884   229A      0.999927   230A      1.008770  
     231A      1.009937   232A      1.015086   233A      1.020255  
     234A      1.023073   235A      1.025909   236A      1.029683  
     237A      1.040082   238A      1.043749   239A      1.045704  
     240A      1.053782   241A      1.060960   242A      1.063275  
     243A      1.069854   244A      1.072981   245A      1.075695  
     246A      1.083995   247A      1.085929   248A      1.091262  
     249A      1.095950   250A      1.098138   251A      1.103811  
     252A      1.105815   253A      1.117221   254A      1.120467  
     255A      1.122835   256A      1.129497   257A      1.129961  
     258A      1.143525   259A      1.146221   260A      1.149290  
     261A      1.154258   262A      1.156393   263A      1.167196  
     264A      1.176490   265A      1.181881   266A      1.183040  
     267A      1.187286   268A      1.194345   269A      1.198636  
     270A      1.203728   271A      1.206433   272A      1.208921  
     273A      1.222384   274A      1.224835   275A      1.229926  
     276A      1.233589   277A      1.241292   278A      1.243880  
     279A      1.246533   280A      1.252740   281A      1.265018  
     282A      1.266322   283A      1.273290   284A      1.282954  
     285A      1.285710   286A      1.308357   287A      1.310306  
     288A      1.317184   289A      1.319402   290A      1.327874  
     291A      1.341492   292A      1.350408   293A      1.353904  
     294A      1.362402   295A      1.368146   296A      1.379281  
     297A      1.384737   298A      1.395940   299A      1.397971  
     300A      1.406204   301A      1.410045   302A      1.422851  
     303A      1.424052   304A      1.432476   305A      1.440467  
     306A      1.455434   307A      1.457330   308A      1.463558  
     309A      1.475066   310A      1.479372   311A      1.490688  
     312A      1.497125   313A      1.515177   314A      1.517000  
     315A      1.519215   316A      1.531611   317A      1.535916  
     318A      1.545803   319A      1.549959   320A      1.558142  
     321A      1.566805   322A      1.575264   323A      1.580644  
     324A      1.590010   325A      1.601425   326A      1.609804  
     327A      1.617749   328A      1.636906   329A      1.642043  
     330A      1.659631   331A      1.672682   332A      1.688078  
     333A      1.691073   334A      1.706591   335A      1.714292  
     336A      1.715846   337A      1.717005   338A      1.731847  
     339A      1.739918   340A      1.748347   341A      1.754798  
     342A      1.769616   343A      1.772943   344A      1.776932  
     345A      1.787444   346A      1.791077   347A      1.804388  
     348A      1.822737   349A      1.828644   350A      1.838456  
     351A      1.843634   352A      1.852600   353A      1.857522  
     354A      1.864139   355A      1.871906   356A      1.879162  
     357A      1.888087   358A      1.893120   359A      1.899236  
     360A      1.909109   361A      1.922041   362A      1.930889  
     363A      1.943305   364A      1.952654   365A      1.966071  
     366A      1.968615   367A      1.978265   368A      1.981173  
     369A      1.984598   370A      2.003044   371A      2.008808  
     372A      2.019369   373A      2.026301   374A      2.034991  
     375A      2.041422   376A      2.047946   377A      2.058163  
     378A      2.060312   379A      2.068095   380A      2.075989  
     381A      2.089402   382A      2.093887   383A      2.107720  
     384A      2.113212   385A      2.117320   386A      2.121177  
     387A      2.133467   388A      2.143002   389A      2.153945  
     390A      2.163324   391A      2.168426   392A      2.184723  
     393A      2.203028   394A      2.209281   395A      2.225275  
     396A      2.228860   397A      2.233743   398A      2.250777  
     399A      2.267906   400A      2.274560   401A      2.286489  
     402A      2.297211   403A      2.303181   404A      2.320265  
     405A      2.337034   406A      2.337522   407A      2.360933  
     408A      2.369338   409A      2.379630   410A      2.385739  
     411A      2.391866   412A      2.398705   413A      2.402513  
     414A      2.415011   415A      2.430414   416A      2.437370  
     417A      2.458704   418A      2.469803   419A      2.470637  
     420A      2.481629   421A      2.505406   422A      2.518659  
     423A      2.535191   424A      2.546543   425A      2.555757  
     426A      2.575517   427A      2.591621   428A      2.597190  
     429A      2.619752   430A      2.630471   431A      2.635533  
     432A      2.649649   433A      2.665938   434A      2.692111  
     435A      2.734731   436A      2.742769   437A      2.758141  
     438A      2.778885   439A      2.783618   440A      2.802339  
     441A      2.808202   442A      2.844219   443A      2.849736  
     444A      2.864597   445A      2.882522   446A      2.906069  
     447A      2.972265   448A      3.002378   449A      3.039668  
     450A      3.049071   451A      3.060954   452A      3.084688  
     453A      3.123436   454A      3.143852   455A      3.182261  
     456A      3.185271   457A      3.209330   458A      3.228280  
     459A      3.239160   460A      3.256615   461A      3.280113  
     462A      3.303413   463A      3.309260   464A      3.329451  
     465A      3.338932   466A      3.357141   467A      3.358812  
     468A      3.365911   469A      3.380203   470A      3.391324  
     471A      3.414210   472A      3.422478   473A      3.431972  
     474A      3.438866   475A      3.439150   476A      3.457403  
     477A      3.460837   478A      3.480599   479A      3.483535  
     480A      3.489955   481A      3.509317   482A      3.513611  
     483A      3.531133   484A      3.538914   485A      3.549701  
     486A      3.556930   487A      3.563981   488A      3.571658  
     489A      3.575545   490A      3.580202   491A      3.593823  
     492A      3.606547   493A      3.606914   494A      3.621625  
     495A      3.645248   496A      3.648202   497A      3.652242  
     498A      3.658752   499A      3.676829   500A      3.694537  
     501A      3.705185   502A      3.713794   503A      3.724938  
     504A      3.729313   505A      3.747223   506A      3.751941  
     507A      3.758482   508A      3.765731   509A      3.780010  
     510A      3.791438   511A      3.809738   512A      3.824172  
     513A      3.836635   514A      3.849124   515A      3.851501  
     516A      3.866624   517A      3.878732   518A      3.883831  
     519A      3.887266   520A      3.892222   521A      3.899893  
     522A      3.911247   523A      3.921481   524A      3.932062  
     525A      3.942753   526A      3.962603   527A      3.967703  
     528A      3.983853   529A      3.989388   530A      3.993071  
     531A      4.001240   532A      4.005192   533A      4.015531  
     534A      4.030120   535A      4.040924   536A      4.045672  
     537A      4.048949   538A      4.070346   539A      4.084042  
     540A      4.094999   541A      4.099120   542A      4.112645  
     543A      4.120430   544A      4.126725   545A      4.134589  
     546A      4.149041   547A      4.159607   548A      4.167948  
     549A      4.169339   550A      4.190620   551A      4.200295  
     552A      4.201786   553A      4.221709   554A      4.227964  
     555A      4.238933   556A      4.246258   557A      4.255531  
     558A      4.273726   559A      4.279535   560A      4.283978  
     561A      4.295183   562A      4.313250   563A      4.317131  
     564A      4.332814   565A      4.348657   566A      4.351248  
     567A      4.357987   568A      4.372406   569A      4.376667  
     570A      4.384499   571A      4.399390   572A      4.408050  
     573A      4.413062   574A      4.434184   575A      4.444679  
     576A      4.451835   577A      4.454519   578A      4.461060  
     579A      4.468403   580A      4.473257   581A      4.478581  
     582A      4.492851   583A      4.502241   584A      4.511937  
     585A      4.536207   586A      4.541050   587A      4.555905  
     588A      4.589491   589A      4.596551   590A      4.605738  
     591A      4.624183   592A      4.637155   593A      4.666005  
     594A      4.672260   595A      4.700134   596A      4.718120  
     597A      4.720849   598A      4.730278   599A      4.738293  
     600A      4.749761   601A      4.784320   602A      4.798046  
     603A      4.799581   604A      4.810002   605A      4.828580  
     606A      4.864942   607A      4.872640   608A      4.886028  
     609A      4.901101   610A      4.919863   611A      4.945648  
     612A      4.959432   613A      4.962598   614A      4.970720  
     615A      4.978048   616A      4.994308   617A      5.014822  
     618A      5.019442   619A      5.041003   620A      5.058454  
     621A      5.061459   622A      5.080732   623A      5.082111  
     624A      5.107303   625A      5.111622   626A      5.124777  
     627A      5.129521   628A      5.141399   629A      5.145970  
     630A      5.154994   631A      5.161581   632A      5.172947  
     633A      5.179721   634A      5.186101   635A      5.204511  
     636A      5.226708   637A      5.243086   638A      5.283286  
     639A      5.289480   640A      5.303955   641A      5.324618  
     642A      5.336305   643A      5.349636   644A      5.353728  
     645A      5.384373   646A      5.414829   647A      5.423331  
     648A      5.434292   649A      5.452613   650A      5.473781  
     651A      5.491528   652A      5.508085   653A      5.523892  
     654A      5.541341   655A      5.595401   656A      5.603369  
     657A      5.630355   658A      5.670478   659A      5.697979  
     660A      5.721670   661A      5.744987   662A      5.753678  
     663A      5.772344   664A      5.778581   665A      5.807355  
     666A      5.824638   667A      5.846501   668A      5.865253  
     669A      5.901262   670A      5.939410   671A      5.988932  
     672A      6.061653   673A      6.091640   674A      6.129351  
     675A      6.173860   676A      6.196345   677A      6.224283  
     678A      6.251574   679A      6.274862   680A      6.304537  
     681A      6.324981   682A      6.367063   683A      6.374938  
     684A      6.419142   685A      6.443181   686A      6.499438  
     687A      6.563131   688A      6.594646   689A      6.623989  
     690A      6.711184   691A      6.725848   692A      6.790075  
     693A      6.870530   694A      6.887525   695A      6.918755  
     696A      6.993902   697A      7.066240   698A      7.134880  
     699A      7.201879   700A      7.295740   701A      7.417207  
     702A      7.819676   703A     16.038997   704A     16.188044  
     705A     16.740651   706A     17.093848   707A     18.497232  
     708A     18.665224   709A     18.969837   710A     19.228504  
     711A     19.758534   712A     20.077016   713A     21.270327  

    Final Occupation by Irrep:
              A 
    DOCC [    38 ]

  @DF-RHF Final Energy:  -438.50264122214980

   => Energetics <=

    Nuclear Repulsion Energy =            536.6374167408949916
    One-Electron Energy =               -1656.9400707598861118
    Two-Electron Energy =                 681.8000127968414290
    Total Energy =                       -438.5026412221498049

Computation Completed

*** tstop() called on node59.bme.utexas.edu at Tue Feb  2 10:06:03 2021
Module time:
	user time   =     269.66 seconds =       4.49 minutes
	system time =       6.28 seconds =       0.10 minutes
	total time  =         37 seconds =       0.62 minutes
Total time:
	user time   =     269.66 seconds =       4.49 minutes
	system time =       6.28 seconds =       0.10 minutes
	total time  =         37 seconds =       0.62 minutes
   => Loading Basis Set <=

    Name: (AUG-CC-PVTZ AUX)
    Role: RIFIT
    Keyword: DF_BASIS_MP2
    atoms 1     entry N          line   206 file /home/xy3866/.conda/envs/test-rdkit/share/psi4/basis/aug-cc-pvtz-ri.gbs 
    atoms 2-11  entry C          line   148 file /home/xy3866/.conda/envs/test-rdkit/share/psi4/basis/aug-cc-pvtz-ri.gbs 
    atoms 12-20 entry H          line    30 file /home/xy3866/.conda/envs/test-rdkit/share/psi4/basis/aug-cc-pvtz-ri.gbs 


*** tstart() called on node59.bme.utexas.edu
*** at Tue Feb  2 10:06:03 2021


  //>>>>>>>>>>>>>>>>>>>>>>>>>>>>>>>>>>>//
  //               DFMP2               //
  //<<<<<<<<<<<<<<<<<<<<<<<<<<<<<<<<<<<//

	 --------------------------------------------------------
	                          DF-MP2                         
	      2nd-Order Density-Fitted Moller-Plesset Theory     
	              RMP2 Wavefunction,   8 Threads             
	                                                         
	        Rob Parrish, Justin Turney, Andy Simmonett,      
	           Ed Hohenstein, and C. David Sherrill          
	 --------------------------------------------------------

   => Auxiliary Basis Set <=

  Basis Set: (AUG-CC-PVTZ AUX)
    Blend: AUG-CC-PVTZ-RI
    Number of shells: 434
    Number of basis function: 1580
    Number of Cartesian functions: 1991
    Spherical Harmonics?: true
    Max angular momentum: 4

	 --------------------------------------------------------
	                 NBF =   713, NAUX =  1580
	 --------------------------------------------------------
	   CLASS    FOCC     OCC    AOCC    AVIR     VIR    FVIR
	   PAIRS       0      38      38     675     675       0
	 --------------------------------------------------------

  DFHelper Memory: AOs need 5.611 GiB; user supplied 22.352 GiB. Using in-core AOs.


         ------------------------------------------------------------
                                     CPHF                           
                                  Rob Parrish                       
         ------------------------------------------------------------

  ==> Geometry <==

    Molecular point group: c1
    Full point group: C1

    Geometry (in Angstrom), charge = 0, multiplicity = 1:

       Center              X                  Y                   Z               Mass       
    ------------   -----------------  -----------------  -----------------  -----------------
         N            1.771815678200    -0.970171789923    -0.388548142129    14.003074004430
         C            1.002521678200     0.096660210077     0.024948857871    12.000000000000
         C           -0.456267321800     0.043689210077     0.016136857871    12.000000000000
         C            1.888410678200     1.090958210077     0.430757857871    12.000000000000
         C           -1.201654321800     1.199144210077    -0.272253142129    12.000000000000
         C           -1.141807321800    -1.151954789923     0.291972857871    12.000000000000
         C            3.106305678200    -0.672926789923    -0.279409142129    12.000000000000
         C            3.203858678200     0.607601210077     0.238888857871    12.000000000000
         C           -2.594995321800     1.161313210077    -0.271211142129    12.000000000000
         C           -2.535867321800    -1.191838789923     0.267393857871    12.000000000000
         C           -3.268101321800    -0.035736789923    -0.011728142129    12.000000000000
         H            1.393957678200    -1.796970789923    -0.834009142129     1.007825032230
         H            1.602862878200     1.924059810077     1.136328057871     1.007825032230
         H           -0.676777321800     2.122068210077    -0.509251142129     1.007825032230
         H           -0.580111321800    -2.044005789923     0.564618857871     1.007825032230
         H            3.866134678200    -1.381240789923    -0.579840142129     1.007825032230
         H            4.126082678200     1.125664210077     0.467728857871     1.007825032230
         H           -3.158303321800     2.064515210077    -0.494786142129     1.007825032230
         H           -3.052162321800    -2.124283789923     0.484597857871     1.007825032230
         H           -4.354875321800    -0.065949789923    -0.022158142129     1.007825032230

  Nuclear repulsion =  536.637416740894992
  Reference energy  = -438.502641222149805

  ==> Basis Set <==

  Basis Set: AUG-CC-PVTZ
    Blend: AUG-CC-PVTZ
    Number of shells: 235
    Number of basis function: 713
    Number of Cartesian functions: 830
    Spherical Harmonics?: true
    Max angular momentum: 3

  ==> CGRSolver (by Rob Parrish) <==

   Number of roots    =         1
   Preconditioning    =    JACOBI
   Convergence cutoff =     1E-06
   Maximum iterations =       100

  ==> CPHFRHamiltonian (by Rob Parrish) <== 

  ==> MemDFJK: Density-Fitted J/K Matrices <==

    J tasked:                   Yes
    K tasked:                   Yes
    wK tasked:                   No
    OpenMP threads:               8
    Memory [MiB]:             22888
    Algorithm:                 Core
    Schwarz Cutoff:           1E-12
    Mask sparsity (%):       7.4635
    Fitting Condition:        1E-10

   => Auxiliary Basis Set <=

  Basis Set: (AUG-CC-PVTZ AUX)
    Blend: AUG-CC-PVTZ-JKFIT
    Number of shells: 456
    Number of basis function: 1558
    Number of Cartesian functions: 1936
    Spherical Harmonics?: true
    Max angular momentum: 4

  ==> CPHF Iterations <==

  => Iterations <=

             Iter  Converged  Remaining    Residual
  CGR           1          0          1   8.305E-02
  CGR           2          0          1   2.739E-02
  CGR           3          0          1   1.556E-02
  CGR           4          0          1   6.162E-03
  CGR           5          0          1   1.414E-03
  CGR           6          0          1   5.195E-04
  CGR           7          0          1   2.792E-04
  CGR           8          0          1   1.340E-04
  CGR           9          0          1   5.806E-05
  CGR          10          0          1   1.707E-05
  CGR          11          0          1   5.782E-06
  CGR          12          0          1   2.101E-06
  CGR          13          1          0   8.972E-07

    CGRSolver converged.

	-----------------------------------------------------------
	 ==================> DF-MP2 Energies <==================== 
	-----------------------------------------------------------
	 Reference Energy          =    -438.5026412221498049 [Eh]
	 Singles Energy            =      -0.0000000000000000 [Eh]
	 Same-Spin Energy          =      -0.4955886381702232 [Eh]
	 Opposite-Spin Energy      =      -1.5261334942840072 [Eh]
	 Correlation Energy        =      -2.0217221324542303 [Eh]
	 Total Energy              =    -440.5243633546040201 [Eh]
	-----------------------------------------------------------
	 ================> DF-SCS-MP2 Energies <================== 
	-----------------------------------------------------------
	 SCS Same-Spin Scale       =       0.3333333333333333 [-]
	 SCS Opposite-Spin Scale   =       1.2000000000000000 [-]
	 SCS Same-Spin Energy      =      -0.1651962127234077 [Eh]
	 SCS Opposite-Spin Energy  =      -1.8313601931408086 [Eh]
	 SCS Correlation Energy    =      -1.9965564058642162 [Eh]
	 SCS Total Energy          =    -440.4991976280140307 [Eh]
	-----------------------------------------------------------



Properties will be evaluated at  -0.000000,  -0.000000,  -0.000000 [a0]

Properties computed using the MP2 density matrix

  Nuclear Dipole Moment: [e a0]
     X:    -0.7862      Y:    -0.1623      Z:     0.2010

  Electronic Dipole Moment: [e a0]
     X:     0.6120      Y:    -0.4188      Z:    -0.3875

  Dipole Moment: [e a0]
     X:    -0.1742      Y:    -0.5811      Z:    -0.1864     Total:     0.6347

  Dipole Moment: [D]
     X:    -0.4429      Y:    -1.4771      Z:    -0.4739     Total:     1.6132


*** tstop() called on node59.bme.utexas.edu at Tue Feb  2 10:08:45 2021
Module time:
	user time   =    1116.11 seconds =      18.60 minutes
	system time =      20.26 seconds =       0.34 minutes
	total time  =        162 seconds =       2.70 minutes
Total time:
	user time   =    1386.19 seconds =      23.10 minutes
	system time =      26.55 seconds =       0.44 minutes
	total time  =        199 seconds =       3.32 minutes

    Psi4 stopped on: Tuesday, 02 February 2021 10:08AM
    Psi4 wall time for execution: 0:03:18.81

*** Psi4 exiting successfully. Buy a developer a beer!
