
    -----------------------------------------------------------------------
          Psi4: An Open-Source Ab Initio Electronic Structure Package
                               Psi4 1.4a2.dev612 

                         Git: Rev {master} 58d3bc0 


    D. G. A. Smith, L. A. Burns, A. C. Simmonett, R. M. Parrish,
    M. C. Schieber, R. Galvelis, P. Kraus, H. Kruse, R. Di Remigio,
    A. Alenaizan, A. M. James, S. Lehtola, J. P. Misiewicz, M. Scheurer,
    R. A. Shaw, J. B. Schriber, Y. Xie, Z. L. Glick, D. A. Sirianni,
    J. S. O'Brien, J. M. Waldrop, A. Kumar, E. G. Hohenstein,
    B. P. Pritchard, B. R. Brooks, H. F. Schaefer III, A. Yu. Sokolov,
    K. Patkowski, A. E. DePrince III, U. Bozkaya, R. A. King,
    F. A. Evangelista, J. M. Turney, T. D. Crawford, C. D. Sherrill,
    J. Chem. Phys. 152(18) 184108 (2020). https://doi.org/10.1063/5.0006002

                            Additional Code Authors
    E. T. Seidl, C. L. Janssen, E. F. Valeev, M. L. Leininger,
    J. F. Gonthier, R. M. Richard, H. R. McAlexander, M. Saitow, X. Wang,
    P. Verma, and M. H. Lechner

             Previous Authors, Complete List of Code Contributors,
                       and Citations for Specific Modules
    https://github.com/psi4/psi4/blob/master/codemeta.json
    https://github.com/psi4/psi4/graphs/contributors
    http://psicode.org/psi4manual/master/introduction.html#citing-psifour

    -----------------------------------------------------------------------


    Psi4 started on: Tuesday, 02 February 2021 09:18AM

    Process ID: 102145
    Host:       node59.bme.utexas.edu
    PSIDATADIR: /home/xy3866/.conda/envs/test-rdkit/share/psi4
    Memory:     500.0 MiB
    Threads:    8
    
  ==> Input File <==

--------------------------------------------------------------------------
#psi4
#
memory 32 gb

molecule  {
0 1
  N        1.7773000    -0.9706020    -0.3863220
  C        1.0080060     0.0962300     0.0271750
  C       -0.4507830     0.0432590     0.0183630
  C        1.8937590     1.1644126     0.2471318
  C       -1.1961700     1.1987140    -0.2700270
  C       -1.1363230    -1.1523850     0.2941990
  C        3.1117900    -0.6733570    -0.2771830
  C        3.2093430     0.6071710     0.2411150
  C       -2.5895110     1.1608830    -0.2689850
  C       -2.5303830    -1.1922690     0.2696200
  C       -3.2626170    -0.0361670    -0.0095020
  H        1.3994420    -1.7974010    -0.8317830
  H        1.6076040     2.0422160     0.8629880
  H       -0.6712930     2.1216380    -0.5070250
  H       -0.5746270    -2.0444360     0.5668450
  H        3.8716190    -1.3816710    -0.5776140
  H        4.1315670     1.1252340     0.4699550
  H       -3.1528190     2.0640850    -0.4925600
  H       -3.0466780    -2.1247140     0.4868240
  H       -4.3493910    -0.0663800    -0.0199320
units angstrom
no_reorient  #important for SAPT in psi4, default
symmetry c1  #important for SAPT in psi4, default
}

set PROPERTIES_ORIGIN ["COM"]
properties('MP2/aug-cc-pvtz', properties = ['dipole'])
--------------------------------------------------------------------------

  Memory set to  29.802 GiB by Python driver.
    SCF Algorithm Type (re)set to DF.

*** tstart() called on node59.bme.utexas.edu
*** at Tue Feb  2 09:18:21 2021

   => Loading Basis Set <=

    Name: AUG-CC-PVTZ
    Role: ORBITAL
    Keyword: BASIS
    atoms 1     entry N          line   285 file /home/xy3866/.conda/envs/test-rdkit/share/psi4/basis/aug-cc-pvtz.gbs 
    atoms 2-11  entry C          line   239 file /home/xy3866/.conda/envs/test-rdkit/share/psi4/basis/aug-cc-pvtz.gbs 
    atoms 12-20 entry H          line    40 file /home/xy3866/.conda/envs/test-rdkit/share/psi4/basis/aug-cc-pvtz.gbs 


         ---------------------------------------------------------
                                   SCF
               by Justin Turney, Rob Parrish, Andy Simmonett
                          and Daniel G. A. Smith
                              RHF Reference
                        8 Threads,  30517 MiB Core
         ---------------------------------------------------------

  ==> Geometry <==

    Molecular point group: c1
    Full point group: C1

    Geometry (in Angstrom), charge = 0, multiplicity = 1:

       Center              X                  Y                   Z               Mass       
    ------------   -----------------  -----------------  -----------------  -----------------
         N            1.771832320105    -0.977204046402    -0.371019047456    14.003074004430
         C            1.002538320105     0.089627953598     0.042477952544    12.000000000000
         C           -0.456250679895     0.036656953598     0.033665952544    12.000000000000
         C            1.888291320105     1.157810553598     0.262434752544    12.000000000000
         C           -1.201637679895     1.192111953598    -0.254724047456    12.000000000000
         C           -1.141790679895    -1.158987046402     0.309501952544    12.000000000000
         C            3.106322320105    -0.679959046402    -0.261880047456    12.000000000000
         C            3.203875320105     0.600568953598     0.256417952544    12.000000000000
         C           -2.594978679895     1.154280953598    -0.253682047456    12.000000000000
         C           -2.535850679895    -1.198871046402     0.284922952544    12.000000000000
         C           -3.268084679895    -0.042769046402     0.005800952544    12.000000000000
         H            1.393974320105    -1.804003046402    -0.816480047456     1.007825032230
         H            1.602136320105     2.035613953598     0.878290952544     1.007825032230
         H           -0.676760679895     2.115035953598    -0.491722047456     1.007825032230
         H           -0.580094679895    -2.051038046402     0.582147952544     1.007825032230
         H            3.866151320105    -1.388273046402    -0.562311047456     1.007825032230
         H            4.126099320105     1.118631953598     0.485257952544     1.007825032230
         H           -3.158286679895     2.057482953598    -0.477257047456     1.007825032230
         H           -3.052145679895    -2.131316046402     0.502126952544     1.007825032230
         H           -4.354858679895    -0.072982046402    -0.004629047456     1.007825032230

  Running in c1 symmetry.

  Rotational constants: A =      0.11606  B =      0.02258  C =      0.01938 [cm^-1]
  Rotational constants: A =   3479.24652  B =    676.89560  C =    581.08298 [MHz]
  Nuclear repulsion =  536.431277712836618

  Charge       = 0
  Multiplicity = 1
  Electrons    = 76
  Nalpha       = 38
  Nbeta        = 38

  ==> Algorithm <==

  SCF Algorithm Type is DF.
  DIIS enabled.
  MOM disabled.
  Fractional occupation disabled.
  Guess Type is SAD.
  Energy threshold   = 1.00e-10
  Density threshold  = 1.00e-10
  Integral threshold = 0.00e+00

  ==> Primary Basis <==

  Basis Set: AUG-CC-PVTZ
    Blend: AUG-CC-PVTZ
    Number of shells: 235
    Number of basis function: 713
    Number of Cartesian functions: 830
    Spherical Harmonics?: true
    Max angular momentum: 3

   => Loading Basis Set <=

    Name: (AUG-CC-PVTZ AUX)
    Role: JKFIT
    Keyword: DF_BASIS_SCF
    atoms 1     entry N          line   224 file /home/xy3866/.conda/envs/test-rdkit/share/psi4/basis/aug-cc-pvtz-jkfit.gbs 
    atoms 2-11  entry C          line   162 file /home/xy3866/.conda/envs/test-rdkit/share/psi4/basis/aug-cc-pvtz-jkfit.gbs 
    atoms 12-20 entry H          line    70 file /home/xy3866/.conda/envs/test-rdkit/share/psi4/basis/aug-cc-pvtz-jkfit.gbs 

  ==> Integral Setup <==

  DFHelper Memory: AOs need 5.611 GiB; user supplied 22.352 GiB. Using in-core AOs.

  ==> MemDFJK: Density-Fitted J/K Matrices <==

    J tasked:                   Yes
    K tasked:                   Yes
    wK tasked:                   No
    OpenMP threads:               8
    Memory [MiB]:             22888
    Algorithm:                 Core
    Schwarz Cutoff:           1E-12
    Mask sparsity (%):       7.4780
    Fitting Condition:        1E-10

   => Auxiliary Basis Set <=

  Basis Set: (AUG-CC-PVTZ AUX)
    Blend: AUG-CC-PVTZ-JKFIT
    Number of shells: 456
    Number of basis function: 1558
    Number of Cartesian functions: 1936
    Spherical Harmonics?: true
    Max angular momentum: 4

  Minimum eigenvalue in the overlap matrix is 5.3310812767E-07.
  Reciprocal condition number of the overlap matrix is 2.7536375934E-08.
    Using symmetric orthogonalization.

  ==> Pre-Iterations <==

  SCF Guess: Superposition of Atomic Densities via on-the-fly atomic UHF (no occupation information).

   -------------------------
    Irrep   Nso     Nmo    
   -------------------------
     A        713     713 
   -------------------------
    Total     713     713
   -------------------------

  ==> Iterations <==

                           Total Energy        Delta E     RMS |[F,P]|

   @DF-RHF iter SAD:  -438.13650356218926   -4.38137e+02   0.00000e+00 
   @DF-RHF iter   1:  -438.19214798004060   -5.56444e-02   9.93296e-04 DIIS
   @DF-RHF iter   2:  -438.43833953108953   -2.46192e-01   4.69887e-04 DIIS
   @DF-RHF iter   3:  -438.49424820248947   -5.59087e-02   8.44678e-05 DIIS
   @DF-RHF iter   4:  -438.49717944357559   -2.93124e-03   2.38064e-05 DIIS
   @DF-RHF iter   5:  -438.49735691833547   -1.77475e-04   8.71224e-06 DIIS
   @DF-RHF iter   6:  -438.49739161718975   -3.46989e-05   2.85808e-06 DIIS
   @DF-RHF iter   7:  -438.49739939823576   -7.78105e-06   1.25426e-06 DIIS
   @DF-RHF iter   8:  -438.49740130352609   -1.90529e-06   6.05168e-07 DIIS
   @DF-RHF iter   9:  -438.49740174760689   -4.44081e-07   1.61735e-07 DIIS
   @DF-RHF iter  10:  -438.49740177607384   -2.84670e-08   7.61308e-08 DIIS
   @DF-RHF iter  11:  -438.49740178095482   -4.88097e-09   3.86864e-08 DIIS
   @DF-RHF iter  12:  -438.49740178289994   -1.94512e-09   1.72453e-08 DIIS
   @DF-RHF iter  13:  -438.49740178320991   -3.09967e-10   8.61447e-09 DIIS
   @DF-RHF iter  14:  -438.49740178330853   -9.86233e-11   2.63455e-09 DIIS
   @DF-RHF iter  15:  -438.49740178331359   -5.05906e-12   1.06370e-09 DIIS
   @DF-RHF iter  16:  -438.49740178331655   -2.95586e-12   4.00824e-10 DIIS
   @DF-RHF iter  17:  -438.49740178331336    3.18323e-12   1.52043e-10 DIIS
   @DF-RHF iter  18:  -438.49740178331507   -1.70530e-12   8.57725e-11 DIIS
  Energy and wave function converged.


  ==> Post-Iterations <==

    Orbital Energies [Eh]
    ---------------------

    Doubly Occupied:                                                      

       1A    -15.610145     2A    -11.267588     3A    -11.257236  
       4A    -11.254015     5A    -11.242545     6A    -11.241226  
       7A    -11.240955     8A    -11.238256     9A    -11.237972  
      10A    -11.217137    11A    -11.215938    12A     -1.295201  
      13A     -1.156752    14A     -1.049002    15A     -1.041571  
      16A     -1.017042    17A     -0.959165    18A     -0.838145  
      19A     -0.832852    20A     -0.787121    21A     -0.762905  
      22A     -0.735546    23A     -0.679922    24A     -0.633288  
      25A     -0.630398    26A     -0.594441    27A     -0.590654  
      28A     -0.582965    29A     -0.565702    30A     -0.545494  
      31A     -0.527320    32A     -0.504963    33A     -0.501789  
      34A     -0.493890    35A     -0.366423    36A     -0.350573  
      37A     -0.341742    38A     -0.272019  

    Virtual:                                                              

      39A      0.025548    40A      0.030045    41A      0.033872  
      42A      0.040526    43A      0.042480    44A      0.050423  
      45A      0.055413    46A      0.057874    47A      0.064654  
      48A      0.083239    49A      0.086161    50A      0.093350  
      51A      0.094904    52A      0.100477    53A      0.101785  
      54A      0.107611    55A      0.113469    56A      0.116639  
      57A      0.118163    58A      0.122324    59A      0.124320  
      60A      0.125297    61A      0.130507    62A      0.132369  
      63A      0.135779    64A      0.137777    65A      0.142527  
      66A      0.144879    67A      0.145456    68A      0.151199  
      69A      0.153187    70A      0.165037    71A      0.167058  
      72A      0.171299    73A      0.173681    74A      0.178820  
      75A      0.186795    76A      0.189113    77A      0.194845  
      78A      0.201688    79A      0.204118    80A      0.219373  
      81A      0.222158    82A      0.223190    83A      0.229161  
      84A      0.236339    85A      0.239958    86A      0.250111  
      87A      0.254156    88A      0.255592    89A      0.261452  
      90A      0.263807    91A      0.267149    92A      0.276902  
      93A      0.280925    94A      0.293822    95A      0.295158  
      96A      0.299137    97A      0.301845    98A      0.304814  
      99A      0.308462   100A      0.312138   101A      0.315791  
     102A      0.319601   103A      0.322374   104A      0.328980  
     105A      0.334827   106A      0.335720   107A      0.340536  
     108A      0.344645   109A      0.347675   110A      0.352131  
     111A      0.353320   112A      0.358851   113A      0.366401  
     114A      0.370785   115A      0.377915   116A      0.385444  
     117A      0.389910   118A      0.403572   119A      0.409281  
     120A      0.414502   121A      0.417690   122A      0.418420  
     123A      0.428043   124A      0.431719   125A      0.436147  
     126A      0.436906   127A      0.441067   128A      0.447435  
     129A      0.451128   130A      0.459366   131A      0.463894  
     132A      0.465710   133A      0.467850   134A      0.471481  
     135A      0.475106   136A      0.476967   137A      0.479153  
     138A      0.483898   139A      0.486728   140A      0.493136  
     141A      0.497805   142A      0.502521   143A      0.504145  
     144A      0.509552   145A      0.512988   146A      0.516027  
     147A      0.519952   148A      0.525733   149A      0.529097  
     150A      0.530005   151A      0.534305   152A      0.537071  
     153A      0.537433   154A      0.543298   155A      0.547818  
     156A      0.552518   157A      0.552896   158A      0.558483  
     159A      0.567133   160A      0.569031   161A      0.575103  
     162A      0.580231   163A      0.591985   164A      0.593957  
     165A      0.604467   166A      0.611203   167A      0.622072  
     168A      0.627628   169A      0.634608   170A      0.639167  
     171A      0.640885   172A      0.645746   173A      0.661596  
     174A      0.668438   175A      0.671475   176A      0.673645  
     177A      0.681771   178A      0.691870   179A      0.697989  
     180A      0.701645   181A      0.704085   182A      0.709461  
     183A      0.715720   184A      0.718093   185A      0.723318  
     186A      0.738819   187A      0.746213   188A      0.749539  
     189A      0.758509   190A      0.765127   191A      0.770881  
     192A      0.776117   193A      0.792797   194A      0.793664  
     195A      0.803986   196A      0.807815   197A      0.812714  
     198A      0.820066   199A      0.827566   200A      0.835847  
     201A      0.840115   202A      0.850437   203A      0.852640  
     204A      0.856723   205A      0.867789   206A      0.872523  
     207A      0.874334   208A      0.877220   209A      0.889450  
     210A      0.889977   211A      0.893459   212A      0.895384  
     213A      0.907269   214A      0.915069   215A      0.915352  
     216A      0.918661   217A      0.923603   218A      0.928678  
     219A      0.932759   220A      0.942587   221A      0.944269  
     222A      0.950633   223A      0.956683   224A      0.970340  
     225A      0.973350   226A      0.976918   227A      0.983426  
     228A      0.994164   229A      1.000008   230A      1.000705  
     231A      1.008922   232A      1.010840   233A      1.016324  
     234A      1.018437   235A      1.024658   236A      1.033429  
     237A      1.035930   238A      1.043701   239A      1.049270  
     240A      1.054301   241A      1.057833   242A      1.062412  
     243A      1.066443   244A      1.074050   245A      1.078986  
     246A      1.085656   247A      1.088730   248A      1.093357  
     249A      1.096078   250A      1.097968   251A      1.102956  
     252A      1.111298   253A      1.113896   254A      1.120133  
     255A      1.125296   256A      1.128057   257A      1.132596  
     258A      1.140285   259A      1.142718   260A      1.148655  
     261A      1.156925   262A      1.160621   263A      1.162798  
     264A      1.174909   265A      1.179406   266A      1.183857  
     267A      1.187851   268A      1.192897   269A      1.196816  
     270A      1.202304   271A      1.203449   272A      1.210252  
     273A      1.216180   274A      1.223504   275A      1.229682  
     276A      1.233115   277A      1.237348   278A      1.246884  
     279A      1.251690   280A      1.255350   281A      1.257176  
     282A      1.271124   283A      1.277816   284A      1.281012  
     285A      1.282268   286A      1.302932   287A      1.308509  
     288A      1.309826   289A      1.323915   290A      1.326381  
     291A      1.334717   292A      1.345081   293A      1.357423  
     294A      1.364115   295A      1.368216   296A      1.376126  
     297A      1.381949   298A      1.391852   299A      1.396830  
     300A      1.412423   301A      1.416130   302A      1.421497  
     303A      1.427252   304A      1.431775   305A      1.442002  
     306A      1.450230   307A      1.462423   308A      1.464812  
     309A      1.473638   310A      1.483463   311A      1.488335  
     312A      1.497002   313A      1.510598   314A      1.513265  
     315A      1.517151   316A      1.527013   317A      1.530205  
     318A      1.548929   319A      1.550500   320A      1.556654  
     321A      1.571164   322A      1.573971   323A      1.583806  
     324A      1.585399   325A      1.596111   326A      1.612004  
     327A      1.615166   328A      1.636485   329A      1.643931  
     330A      1.655881   331A      1.671536   332A      1.686027  
     333A      1.695976   334A      1.707920   335A      1.715966  
     336A      1.718524   337A      1.720892   338A      1.736906  
     339A      1.738843   340A      1.749989   341A      1.755959  
     342A      1.766286   343A      1.768335   344A      1.787785  
     345A      1.796263   346A      1.798060   347A      1.807602  
     348A      1.821066   349A      1.834723   350A      1.838725  
     351A      1.846204   352A      1.853168   353A      1.862074  
     354A      1.864879   355A      1.871245   356A      1.881621  
     357A      1.887635   358A      1.895418   359A      1.902734  
     360A      1.913258   361A      1.918959   362A      1.928206  
     363A      1.938330   364A      1.953202   365A      1.961733  
     366A      1.970075   367A      1.972288   368A      1.976564  
     369A      1.986211   370A      1.998259   371A      2.015715  
     372A      2.019123   373A      2.027019   374A      2.038712  
     375A      2.044150   376A      2.050329   377A      2.059467  
     378A      2.063905   379A      2.070366   380A      2.075918  
     381A      2.085888   382A      2.092830   383A      2.101816  
     384A      2.109685   385A      2.111825   386A      2.128645  
     387A      2.133024   388A      2.140817   389A      2.145475  
     390A      2.167109   391A      2.174653   392A      2.184083  
     393A      2.200148   394A      2.206040   395A      2.211505  
     396A      2.227222   397A      2.230755   398A      2.244494  
     399A      2.263090   400A      2.276478   401A      2.282099  
     402A      2.299964   403A      2.303148   404A      2.323596  
     405A      2.328962   406A      2.334768   407A      2.359794  
     408A      2.369544   409A      2.375774   410A      2.383232  
     411A      2.387552   412A      2.402458   413A      2.405206  
     414A      2.419465   415A      2.423846   416A      2.442566  
     417A      2.455174   418A      2.460424   419A      2.469846  
     420A      2.486774   421A      2.497334   422A      2.530791  
     423A      2.534587   424A      2.549926   425A      2.553911  
     426A      2.572852   427A      2.583065   428A      2.592630  
     429A      2.617046   430A      2.623602   431A      2.639500  
     432A      2.653122   433A      2.667630   434A      2.691334  
     435A      2.734685   436A      2.745807   437A      2.759257  
     438A      2.779294   439A      2.785222   440A      2.793633  
     441A      2.813521   442A      2.828905   443A      2.835404  
     444A      2.860492   445A      2.882617   446A      2.900898  
     447A      2.953692   448A      3.011092   449A      3.020501  
     450A      3.028021   451A      3.072123   452A      3.081593  
     453A      3.103444   454A      3.138090   455A      3.183447  
     456A      3.191479   457A      3.202797   458A      3.221484  
     459A      3.232079   460A      3.248314   461A      3.279430  
     462A      3.298829   463A      3.305365   464A      3.314154  
     465A      3.338612   466A      3.353664   467A      3.361937  
     468A      3.366920   469A      3.375836   470A      3.393569  
     471A      3.405322   472A      3.414783   473A      3.420618  
     474A      3.437420   475A      3.444164   476A      3.455889  
     477A      3.468053   478A      3.475518   479A      3.479561  
     480A      3.497160   481A      3.510693   482A      3.518099  
     483A      3.526337   484A      3.536704   485A      3.542232  
     486A      3.559973   487A      3.563836   488A      3.575214  
     489A      3.576964   490A      3.584171   491A      3.593415  
     492A      3.607877   493A      3.615984   494A      3.623006  
     495A      3.645581   496A      3.646074   497A      3.652435  
     498A      3.676614   499A      3.679361   500A      3.692481  
     501A      3.707019   502A      3.710535   503A      3.722245  
     504A      3.722767   505A      3.736572   506A      3.741626  
     507A      3.750370   508A      3.762298   509A      3.785547  
     510A      3.797438   511A      3.808071   512A      3.827311  
     513A      3.832652   514A      3.856169   515A      3.858357  
     516A      3.870609   517A      3.877533   518A      3.883448  
     519A      3.894584   520A      3.904138   521A      3.909747  
     522A      3.916347   523A      3.929915   524A      3.938658  
     525A      3.950523   526A      3.960527   527A      3.973683  
     528A      3.978216   529A      3.984744   530A      3.993529  
     531A      4.000690   532A      4.003601   533A      4.017191  
     534A      4.024733   535A      4.034363   536A      4.042891  
     537A      4.048505   538A      4.063789   539A      4.084823  
     540A      4.092756   541A      4.102008   542A      4.111137  
     543A      4.116498   544A      4.124860   545A      4.139339  
     546A      4.151038   547A      4.157525   548A      4.177183  
     549A      4.180409   550A      4.184673   551A      4.202970  
     552A      4.217430   553A      4.222278   554A      4.228579  
     555A      4.243452   556A      4.252078   557A      4.262824  
     558A      4.268837   559A      4.277409   560A      4.291330  
     561A      4.298841   562A      4.308907   563A      4.321344  
     564A      4.328530   565A      4.340123   566A      4.349964  
     567A      4.365166   568A      4.370286   569A      4.382061  
     570A      4.386683   571A      4.400880   572A      4.409887  
     573A      4.412178   574A      4.424436   575A      4.434836  
     576A      4.457038   577A      4.460486   578A      4.463599  
     579A      4.464973   580A      4.484104   581A      4.487457  
     582A      4.493143   583A      4.515086   584A      4.521931  
     585A      4.531023   586A      4.547622   587A      4.555755  
     588A      4.579105   589A      4.603740   590A      4.617125  
     591A      4.623611   592A      4.635224   593A      4.655363  
     594A      4.668189   595A      4.690971   596A      4.708109  
     597A      4.724314   598A      4.729805   599A      4.735601  
     600A      4.747908   601A      4.768715   602A      4.791734  
     603A      4.797309   604A      4.823896   605A      4.842215  
     606A      4.863612   607A      4.874406   608A      4.878750  
     609A      4.906877   610A      4.914368   611A      4.937958  
     612A      4.941070   613A      4.965733   614A      4.973354  
     615A      4.982815   616A      4.991398   617A      4.997637  
     618A      5.006726   619A      5.031646   620A      5.053835  
     621A      5.062962   622A      5.072551   623A      5.097371  
     624A      5.105495   625A      5.110582   626A      5.117749  
     627A      5.125674   628A      5.135208   629A      5.142805  
     630A      5.156516   631A      5.160183   632A      5.169615  
     633A      5.175536   634A      5.191066   635A      5.201545  
     636A      5.227283   637A      5.240478   638A      5.287074  
     639A      5.301589   640A      5.310089   641A      5.324808  
     642A      5.339432   643A      5.350126   644A      5.364496  
     645A      5.395233   646A      5.416485   647A      5.422878  
     648A      5.434936   649A      5.462709   650A      5.477108  
     651A      5.485810   652A      5.504211   653A      5.529276  
     654A      5.550065   655A      5.593612   656A      5.601119  
     657A      5.627610   658A      5.673870   659A      5.698129  
     660A      5.724743   661A      5.753059   662A      5.765823  
     663A      5.776668   664A      5.781912   665A      5.807795  
     666A      5.818157   667A      5.838329   668A      5.875128  
     669A      5.909484   670A      5.934294   671A      5.978807  
     672A      6.041063   673A      6.080288   674A      6.130338  
     675A      6.158600   676A      6.194999   677A      6.222679  
     678A      6.249976   679A      6.268277   680A      6.303223  
     681A      6.343123   682A      6.365892   683A      6.379967  
     684A      6.417276   685A      6.441938   686A      6.495846  
     687A      6.534328   688A      6.594036   689A      6.622214  
     690A      6.689370   691A      6.710454   692A      6.792325  
     693A      6.828983   694A      6.886859   695A      6.908464  
     696A      6.991421   697A      7.049077   698A      7.133811  
     699A      7.172254   700A      7.252153   701A      7.398945  
     702A      7.806713   703A     16.058847   704A     16.213587  
     705A     16.727939   706A     16.969457   707A     18.386359  
     708A     18.725723   709A     18.985604   710A     19.236483  
     711A     19.721930   712A     20.106345   713A     21.148402  

    Final Occupation by Irrep:
              A 
    DOCC [    38 ]

  @DF-RHF Final Energy:  -438.49740178331507

   => Energetics <=

    Nuclear Repulsion Energy =            536.4312777128366179
    One-Electron Energy =               -1656.4975587083008577
    Two-Electron Energy =                 681.5688792121491133
    Total Energy =                       -438.4974017833151265

Computation Completed

*** tstop() called on node59.bme.utexas.edu at Tue Feb  2 09:18:59 2021
Module time:
	user time   =     276.49 seconds =       4.61 minutes
	system time =       6.36 seconds =       0.11 minutes
	total time  =         38 seconds =       0.63 minutes
Total time:
	user time   =     276.49 seconds =       4.61 minutes
	system time =       6.36 seconds =       0.11 minutes
	total time  =         38 seconds =       0.63 minutes
   => Loading Basis Set <=

    Name: (AUG-CC-PVTZ AUX)
    Role: RIFIT
    Keyword: DF_BASIS_MP2
    atoms 1     entry N          line   206 file /home/xy3866/.conda/envs/test-rdkit/share/psi4/basis/aug-cc-pvtz-ri.gbs 
    atoms 2-11  entry C          line   148 file /home/xy3866/.conda/envs/test-rdkit/share/psi4/basis/aug-cc-pvtz-ri.gbs 
    atoms 12-20 entry H          line    30 file /home/xy3866/.conda/envs/test-rdkit/share/psi4/basis/aug-cc-pvtz-ri.gbs 


*** tstart() called on node59.bme.utexas.edu
*** at Tue Feb  2 09:18:59 2021


  //>>>>>>>>>>>>>>>>>>>>>>>>>>>>>>>>>>>//
  //               DFMP2               //
  //<<<<<<<<<<<<<<<<<<<<<<<<<<<<<<<<<<<//

	 --------------------------------------------------------
	                          DF-MP2                         
	      2nd-Order Density-Fitted Moller-Plesset Theory     
	              RMP2 Wavefunction,   8 Threads             
	                                                         
	        Rob Parrish, Justin Turney, Andy Simmonett,      
	           Ed Hohenstein, and C. David Sherrill          
	 --------------------------------------------------------

   => Auxiliary Basis Set <=

  Basis Set: (AUG-CC-PVTZ AUX)
    Blend: AUG-CC-PVTZ-RI
    Number of shells: 434
    Number of basis function: 1580
    Number of Cartesian functions: 1991
    Spherical Harmonics?: true
    Max angular momentum: 4

	 --------------------------------------------------------
	                 NBF =   713, NAUX =  1580
	 --------------------------------------------------------
	   CLASS    FOCC     OCC    AOCC    AVIR     VIR    FVIR
	   PAIRS       0      38      38     675     675       0
	 --------------------------------------------------------

  DFHelper Memory: AOs need 5.611 GiB; user supplied 22.352 GiB. Using in-core AOs.


         ------------------------------------------------------------
                                     CPHF                           
                                  Rob Parrish                       
         ------------------------------------------------------------

  ==> Geometry <==

    Molecular point group: c1
    Full point group: C1

    Geometry (in Angstrom), charge = 0, multiplicity = 1:

       Center              X                  Y                   Z               Mass       
    ------------   -----------------  -----------------  -----------------  -----------------
         N            1.771832320105    -0.977204046402    -0.371019047456    14.003074004430
         C            1.002538320105     0.089627953598     0.042477952544    12.000000000000
         C           -0.456250679895     0.036656953598     0.033665952544    12.000000000000
         C            1.888291320105     1.157810553598     0.262434752544    12.000000000000
         C           -1.201637679895     1.192111953598    -0.254724047456    12.000000000000
         C           -1.141790679895    -1.158987046402     0.309501952544    12.000000000000
         C            3.106322320105    -0.679959046402    -0.261880047456    12.000000000000
         C            3.203875320105     0.600568953598     0.256417952544    12.000000000000
         C           -2.594978679895     1.154280953598    -0.253682047456    12.000000000000
         C           -2.535850679895    -1.198871046402     0.284922952544    12.000000000000
         C           -3.268084679895    -0.042769046402     0.005800952544    12.000000000000
         H            1.393974320105    -1.804003046402    -0.816480047456     1.007825032230
         H            1.602136320105     2.035613953598     0.878290952544     1.007825032230
         H           -0.676760679895     2.115035953598    -0.491722047456     1.007825032230
         H           -0.580094679895    -2.051038046402     0.582147952544     1.007825032230
         H            3.866151320105    -1.388273046402    -0.562311047456     1.007825032230
         H            4.126099320105     1.118631953598     0.485257952544     1.007825032230
         H           -3.158286679895     2.057482953598    -0.477257047456     1.007825032230
         H           -3.052145679895    -2.131316046402     0.502126952544     1.007825032230
         H           -4.354858679895    -0.072982046402    -0.004629047456     1.007825032230

  Nuclear repulsion =  536.431277712836618
  Reference energy  = -438.497401783315070

  ==> Basis Set <==

  Basis Set: AUG-CC-PVTZ
    Blend: AUG-CC-PVTZ
    Number of shells: 235
    Number of basis function: 713
    Number of Cartesian functions: 830
    Spherical Harmonics?: true
    Max angular momentum: 3

  ==> CGRSolver (by Rob Parrish) <==

   Number of roots    =         1
   Preconditioning    =    JACOBI
   Convergence cutoff =     1E-06
   Maximum iterations =       100

  ==> CPHFRHamiltonian (by Rob Parrish) <== 

  ==> MemDFJK: Density-Fitted J/K Matrices <==

    J tasked:                   Yes
    K tasked:                   Yes
    wK tasked:                   No
    OpenMP threads:               8
    Memory [MiB]:             22888
    Algorithm:                 Core
    Schwarz Cutoff:           1E-12
    Mask sparsity (%):       7.4780
    Fitting Condition:        1E-10

   => Auxiliary Basis Set <=

  Basis Set: (AUG-CC-PVTZ AUX)
    Blend: AUG-CC-PVTZ-JKFIT
    Number of shells: 456
    Number of basis function: 1558
    Number of Cartesian functions: 1936
    Spherical Harmonics?: true
    Max angular momentum: 4

  ==> CPHF Iterations <==

  => Iterations <=

             Iter  Converged  Remaining    Residual
  CGR           1          0          1   8.419E-02
  CGR           2          0          1   2.884E-02
  CGR           3          0          1   1.659E-02
  CGR           4          0          1   6.477E-03
  CGR           5          0          1   1.559E-03
  CGR           6          0          1   6.336E-04
  CGR           7          0          1   3.611E-04
  CGR           8          0          1   1.576E-04
  CGR           9          0          1   6.669E-05
  CGR          10          0          1   1.941E-05
  CGR          11          0          1   6.731E-06
  CGR          12          0          1   2.680E-06
  CGR          13          0          1   1.101E-06
  CGR          14          1          0   4.119E-07

    CGRSolver converged.

	-----------------------------------------------------------
	 ==================> DF-MP2 Energies <==================== 
	-----------------------------------------------------------
	 Reference Energy          =    -438.4974017833150697 [Eh]
	 Singles Energy            =      -0.0000000000000000 [Eh]
	 Same-Spin Energy          =      -0.4959157862079435 [Eh]
	 Opposite-Spin Energy      =      -1.5272071195451316 [Eh]
	 Correlation Energy        =      -2.0231229057530751 [Eh]
	 Total Energy              =    -440.5205246890681678 [Eh]
	-----------------------------------------------------------
	 ================> DF-SCS-MP2 Energies <================== 
	-----------------------------------------------------------
	 SCS Same-Spin Scale       =       0.3333333333333333 [-]
	 SCS Opposite-Spin Scale   =       1.2000000000000000 [-]
	 SCS Same-Spin Energy      =      -0.1653052620693145 [Eh]
	 SCS Opposite-Spin Energy  =      -1.8326485434541577 [Eh]
	 SCS Correlation Energy    =      -1.9979538055234722 [Eh]
	 SCS Total Energy          =    -440.4953555888385495 [Eh]
	-----------------------------------------------------------



Properties will be evaluated at   0.000000,   0.000000,  -0.000000 [a0]

Properties computed using the MP2 density matrix

  Nuclear Dipole Moment: [e a0]
     X:    -0.7868      Y:    -0.1105      Z:     0.0905

  Electronic Dipole Moment: [e a0]
     X:     0.6341      Y:    -0.4723      Z:    -0.2945

  Dipole Moment: [e a0]
     X:    -0.1526      Y:    -0.5827      Z:    -0.2040     Total:     0.6360

  Dipole Moment: [D]
     X:    -0.3880      Y:    -1.4811      Z:    -0.5185     Total:     1.6165


*** tstop() called on node59.bme.utexas.edu at Tue Feb  2 09:21:41 2021
Module time:
	user time   =    1122.30 seconds =      18.71 minutes
	system time =      20.51 seconds =       0.34 minutes
	total time  =        162 seconds =       2.70 minutes
Total time:
	user time   =    1399.16 seconds =      23.32 minutes
	system time =      26.88 seconds =       0.45 minutes
	total time  =        200 seconds =       3.33 minutes

    Psi4 stopped on: Tuesday, 02 February 2021 09:21AM
    Psi4 wall time for execution: 0:03:20.67

*** Psi4 exiting successfully. Buy a developer a beer!
