6994                                                                    
Freq      RMP2-FC                                                     6-31G(d)            
Number of atoms                            I               19
Info1-9                                    I   N=           9
          31          29        1002           0           0         100
           6           2           1
Charge                                     I                0
Multiplicity                               I                1
Number of electrons                        I               66
Number of alpha electrons                  I               33
Number of beta electrons                   I               33
Number of basis functions                  I              155
Number of independent functions            I              155
Number of point charges in /Mol/           I                0
Number of translation vectors              I                0
Atomic numbers                             I   N=          19
           8           6           6           6           6           6
           6           6           6           1           1           1
           1           1           1           1           1           1
           1
Nuclear charges                            R   N=          19
  8.00000000E+00  6.00000000E+00  6.00000000E+00  6.00000000E+00  6.00000000E+00
  6.00000000E+00  6.00000000E+00  6.00000000E+00  6.00000000E+00  1.00000000E+00
  1.00000000E+00  1.00000000E+00  1.00000000E+00  1.00000000E+00  1.00000000E+00
  1.00000000E+00  1.00000000E+00  1.00000000E+00  1.00000000E+00
Current cartesian coordinates              R   N=          57
  4.79927062E+00 -1.04913358E+00  1.33365204E+00  5.71784919E-01 -8.27360170E-01
 -5.14040838E-01 -1.75299774E-01  1.70731651E+00 -1.64392303E-01  3.31411946E+00
 -1.49336397E+00 -8.90434053E-01 -1.22925384E+00 -2.75807499E+00 -3.63194482E-01
 -2.73155691E+00  2.22170953E+00  2.69374849E-01  1.71700252E+00  3.82923647E+00
 -3.43107097E-01 -3.77456154E+00 -2.21713363E+00  7.23395934E-02 -4.52248958E+00
  2.86692562E-01  4.06495435E-01  3.47219913E+00 -3.47436073E+00 -1.49838209E+00
  4.18084004E+00 -3.20892766E-01 -2.35461047E+00 -6.31855514E-01 -4.71029362E+00
 -6.30285456E-01 -3.32764948E+00  4.17355996E+00  5.32197466E-01  3.39693869E+00
  3.41022127E+00  7.79298850E-01  2.32687443E+00  4.12223713E+00 -2.30136838E+00
  8.88028975E-01  5.59937548E+00  3.26522604E-01 -5.15231245E+00 -3.73807517E+00
  1.75126632E-01 -6.49693347E+00  7.40445720E-01  7.52446858E-01  3.93123313E+00
 -1.90328259E+00  2.71159105E+00
Force Field                                I                0
Int Atom Types                             I   N=          19
           0           0           0           0           0           0
           0           0           0           0           0           0
           0           0           0           0           0           0
           0
MM charges                                 R   N=          19
  0.00000000E+00  0.00000000E+00  0.00000000E+00  0.00000000E+00  0.00000000E+00
  0.00000000E+00  0.00000000E+00  0.00000000E+00  0.00000000E+00  0.00000000E+00
  0.00000000E+00  0.00000000E+00  0.00000000E+00  0.00000000E+00  0.00000000E+00
  0.00000000E+00  0.00000000E+00  0.00000000E+00  0.00000000E+00
Integer atomic weights                     I   N=          19
          16          12          12          12          12          12
          12          12          12           1           1           1
           1           1           1           1           1           1
           1
Real atomic weights                        R   N=          19
  1.59949146E+01  1.20000000E+01  1.20000000E+01  1.20000000E+01  1.20000000E+01
  1.20000000E+01  1.20000000E+01  1.20000000E+01  1.20000000E+01  1.00782504E+00
  1.00782504E+00  1.00782504E+00  1.00782504E+00  1.00782504E+00  1.00782504E+00
  1.00782504E+00  1.00782504E+00  1.00782504E+00  1.00782504E+00
Atom fragment info                         I   N=          19
           0           0           0           0           0           0
           0           0           0           0           0           0
           0           0           0           0           0           0
           0
Atom residue num                           I   N=          19
           0           0           0           0           0           0
           0           0           0           0           0           0
           0           0           0           0           0           0
           0
Nuclear spins                              I   N=          19
           0           0           0           0           0           0
           0           0           0           1           1           1
           1           1           1           1           1           1
           1
Nuclear ZEff                               R   N=          19
 -5.60000000E+00 -3.60000000E+00 -3.60000000E+00 -3.60000000E+00 -3.60000000E+00
 -3.60000000E+00 -3.60000000E+00 -3.60000000E+00 -3.60000000E+00 -1.00000000E+00
 -1.00000000E+00 -1.00000000E+00 -1.00000000E+00 -1.00000000E+00 -1.00000000E+00
 -1.00000000E+00 -1.00000000E+00 -1.00000000E+00 -1.00000000E+00
Nuclear QMom                               R   N=          19
  0.00000000E+00  0.00000000E+00  0.00000000E+00  0.00000000E+00  0.00000000E+00
  0.00000000E+00  0.00000000E+00  0.00000000E+00  0.00000000E+00  0.00000000E+00
  0.00000000E+00  0.00000000E+00  0.00000000E+00  0.00000000E+00  0.00000000E+00
  0.00000000E+00  0.00000000E+00  0.00000000E+00  0.00000000E+00
Nuclear GFac                               R   N=          19
  0.00000000E+00  0.00000000E+00  0.00000000E+00  0.00000000E+00  0.00000000E+00
  0.00000000E+00  0.00000000E+00  0.00000000E+00  0.00000000E+00  2.79284600E+00
  2.79284600E+00  2.79284600E+00  2.79284600E+00  2.79284600E+00  2.79284600E+00
  2.79284600E+00  2.79284600E+00  2.79284600E+00  2.79284600E+00
MicOpt                                     I   N=          19
          -1          -1          -1          -1          -1          -1
          -1          -1          -1          -1          -1          -1
          -1          -1          -1          -1          -1          -1
          -1
Number of contracted shells                I               56
Number of primitive shells                 I              139
Pure/Cartesian d shells                    I                1
Pure/Cartesian f shells                    I                0
Highest angular momentum                   I                2
Largest degree of contraction              I                6
Shell types                                I   N=          56
           0          -1          -1           2           0          -1
          -1           2           0          -1          -1           2
           0          -1          -1           2           0          -1
          -1           2           0          -1          -1           2
           0          -1          -1           2           0          -1
          -1           2           0          -1          -1           2
           0           0           0           0           0           0
           0           0           0           0           0           0
           0           0           0           0           0           0
           0           0
Number of primitives per shell             I   N=          56
           6           3           1           1           6           3
           1           1           6           3           1           1
           6           3           1           1           6           3
           1           1           6           3           1           1
           6           3           1           1           6           3
           1           1           6           3           1           1
           3           1           3           1           3           1
           3           1           3           1           3           1
           3           1           3           1           3           1
           3           1
Shell to atom map                          I   N=          56
           1           1           1           1           2           2
           2           2           3           3           3           3
           4           4           4           4           5           5
           5           5           6           6           6           6
           7           7           7           7           8           8
           8           8           9           9           9           9
          10          10          11          11          12          12
          13          13          14          14          15          15
          16          16          17          17          18          18
          19          19
Primitive exponents                        R   N=         139
  5.48467166E+03  8.25234946E+02  1.88046958E+02  5.29645000E+01  1.68975704E+01
  5.79963534E+00  1.55396162E+01  3.59993359E+00  1.01376175E+00  2.70005823E-01
  8.00000000E-01  3.04752488E+03  4.57369518E+02  1.03948685E+02  2.92101553E+01
  9.28666296E+00  3.16392696E+00  7.86827235E+00  1.88128854E+00  5.44249258E-01
  1.68714478E-01  8.00000000E-01  3.04752488E+03  4.57369518E+02  1.03948685E+02
  2.92101553E+01  9.28666296E+00  3.16392696E+00  7.86827235E+00  1.88128854E+00
  5.44249258E-01  1.68714478E-01  8.00000000E-01  3.04752488E+03  4.57369518E+02
  1.03948685E+02  2.92101553E+01  9.28666296E+00  3.16392696E+00  7.86827235E+00
  1.88128854E+00  5.44249258E-01  1.68714478E-01  8.00000000E-01  3.04752488E+03
  4.57369518E+02  1.03948685E+02  2.92101553E+01  9.28666296E+00  3.16392696E+00
  7.86827235E+00  1.88128854E+00  5.44249258E-01  1.68714478E-01  8.00000000E-01
  3.04752488E+03  4.57369518E+02  1.03948685E+02  2.92101553E+01  9.28666296E+00
  3.16392696E+00  7.86827235E+00  1.88128854E+00  5.44249258E-01  1.68714478E-01
  8.00000000E-01  3.04752488E+03  4.57369518E+02  1.03948685E+02  2.92101553E+01
  9.28666296E+00  3.16392696E+00  7.86827235E+00  1.88128854E+00  5.44249258E-01
  1.68714478E-01  8.00000000E-01  3.04752488E+03  4.57369518E+02  1.03948685E+02
  2.92101553E+01  9.28666296E+00  3.16392696E+00  7.86827235E+00  1.88128854E+00
  5.44249258E-01  1.68714478E-01  8.00000000E-01  3.04752488E+03  4.57369518E+02
  1.03948685E+02  2.92101553E+01  9.28666296E+00  3.16392696E+00  7.86827235E+00
  1.88128854E+00  5.44249258E-01  1.68714478E-01  8.00000000E-01  1.87311370E+01
  2.82539436E+00  6.40121692E-01  1.61277759E-01  1.87311370E+01  2.82539436E+00
  6.40121692E-01  1.61277759E-01  1.87311370E+01  2.82539436E+00  6.40121692E-01
  1.61277759E-01  1.87311370E+01  2.82539436E+00  6.40121692E-01  1.61277759E-01
  1.87311370E+01  2.82539436E+00  6.40121692E-01  1.61277759E-01  1.87311370E+01
  2.82539436E+00  6.40121692E-01  1.61277759E-01  1.87311370E+01  2.82539436E+00
  6.40121692E-01  1.61277759E-01  1.87311370E+01  2.82539436E+00  6.40121692E-01
  1.61277759E-01  1.87311370E+01  2.82539436E+00  6.40121692E-01  1.61277759E-01
  1.87311370E+01  2.82539436E+00  6.40121692E-01  1.61277759E-01
Contraction coefficients                   R   N=         139
  1.83107443E-03  1.39501722E-02  6.84450781E-02  2.32714336E-01  4.70192898E-01
  3.58520853E-01 -1.10777550E-01 -1.48026263E-01  1.13076702E+00  1.00000000E+00
  1.00000000E+00  1.83473713E-03  1.40373228E-02  6.88426223E-02  2.32184443E-01
  4.67941348E-01  3.62311985E-01 -1.19332420E-01 -1.60854152E-01  1.14345644E+00
  1.00000000E+00  1.00000000E+00  1.83473713E-03  1.40373228E-02  6.88426223E-02
  2.32184443E-01  4.67941348E-01  3.62311985E-01 -1.19332420E-01 -1.60854152E-01
  1.14345644E+00  1.00000000E+00  1.00000000E+00  1.83473713E-03  1.40373228E-02
  6.88426223E-02  2.32184443E-01  4.67941348E-01  3.62311985E-01 -1.19332420E-01
 -1.60854152E-01  1.14345644E+00  1.00000000E+00  1.00000000E+00  1.83473713E-03
  1.40373228E-02  6.88426223E-02  2.32184443E-01  4.67941348E-01  3.62311985E-01
 -1.19332420E-01 -1.60854152E-01  1.14345644E+00  1.00000000E+00  1.00000000E+00
  1.83473713E-03  1.40373228E-02  6.88426223E-02  2.32184443E-01  4.67941348E-01
  3.62311985E-01 -1.19332420E-01 -1.60854152E-01  1.14345644E+00  1.00000000E+00
  1.00000000E+00  1.83473713E-03  1.40373228E-02  6.88426223E-02  2.32184443E-01
  4.67941348E-01  3.62311985E-01 -1.19332420E-01 -1.60854152E-01  1.14345644E+00
  1.00000000E+00  1.00000000E+00  1.83473713E-03  1.40373228E-02  6.88426223E-02
  2.32184443E-01  4.67941348E-01  3.62311985E-01 -1.19332420E-01 -1.60854152E-01
  1.14345644E+00  1.00000000E+00  1.00000000E+00  1.83473713E-03  1.40373228E-02
  6.88426223E-02  2.32184443E-01  4.67941348E-01  3.62311985E-01 -1.19332420E-01
 -1.60854152E-01  1.14345644E+00  1.00000000E+00  1.00000000E+00  3.34946043E-02
  2.34726953E-01  8.13757326E-01  1.00000000E+00  3.34946043E-02  2.34726953E-01
  8.13757326E-01  1.00000000E+00  3.34946043E-02  2.34726953E-01  8.13757326E-01
  1.00000000E+00  3.34946043E-02  2.34726953E-01  8.13757326E-01  1.00000000E+00
  3.34946043E-02  2.34726953E-01  8.13757326E-01  1.00000000E+00  3.34946043E-02
  2.34726953E-01  8.13757326E-01  1.00000000E+00  3.34946043E-02  2.34726953E-01
  8.13757326E-01  1.00000000E+00  3.34946043E-02  2.34726953E-01  8.13757326E-01
  1.00000000E+00  3.34946043E-02  2.34726953E-01  8.13757326E-01  1.00000000E+00
  3.34946043E-02  2.34726953E-01  8.13757326E-01  1.00000000E+00
P(S=P) Contraction coefficients            R   N=         139
  0.00000000E+00  0.00000000E+00  0.00000000E+00  0.00000000E+00  0.00000000E+00
  0.00000000E+00  7.08742682E-02  3.39752839E-01  7.27158577E-01  1.00000000E+00
  0.00000000E+00  0.00000000E+00  0.00000000E+00  0.00000000E+00  0.00000000E+00
  0.00000000E+00  0.00000000E+00  6.89990666E-02  3.16423961E-01  7.44308291E-01
  1.00000000E+00  0.00000000E+00  0.00000000E+00  0.00000000E+00  0.00000000E+00
  0.00000000E+00  0.00000000E+00  0.00000000E+00  6.89990666E-02  3.16423961E-01
  7.44308291E-01  1.00000000E+00  0.00000000E+00  0.00000000E+00  0.00000000E+00
  0.00000000E+00  0.00000000E+00  0.00000000E+00  0.00000000E+00  6.89990666E-02
  3.16423961E-01  7.44308291E-01  1.00000000E+00  0.00000000E+00  0.00000000E+00
  0.00000000E+00  0.00000000E+00  0.00000000E+00  0.00000000E+00  0.00000000E+00
  6.89990666E-02  3.16423961E-01  7.44308291E-01  1.00000000E+00  0.00000000E+00
  0.00000000E+00  0.00000000E+00  0.00000000E+00  0.00000000E+00  0.00000000E+00
  0.00000000E+00  6.89990666E-02  3.16423961E-01  7.44308291E-01  1.00000000E+00
  0.00000000E+00  0.00000000E+00  0.00000000E+00  0.00000000E+00  0.00000000E+00
  0.00000000E+00  0.00000000E+00  6.89990666E-02  3.16423961E-01  7.44308291E-01
  1.00000000E+00  0.00000000E+00  0.00000000E+00  0.00000000E+00  0.00000000E+00
  0.00000000E+00  0.00000000E+00  0.00000000E+00  6.89990666E-02  3.16423961E-01
  7.44308291E-01  1.00000000E+00  0.00000000E+00  0.00000000E+00  0.00000000E+00
  0.00000000E+00  0.00000000E+00  0.00000000E+00  0.00000000E+00  6.89990666E-02
  3.16423961E-01  7.44308291E-01  1.00000000E+00  0.00000000E+00  0.00000000E+00
  0.00000000E+00  0.00000000E+00  0.00000000E+00  0.00000000E+00  0.00000000E+00
  0.00000000E+00  0.00000000E+00  0.00000000E+00  0.00000000E+00  0.00000000E+00
  0.00000000E+00  0.00000000E+00  0.00000000E+00  0.00000000E+00  0.00000000E+00
  0.00000000E+00  0.00000000E+00  0.00000000E+00  0.00000000E+00  0.00000000E+00
  0.00000000E+00  0.00000000E+00  0.00000000E+00  0.00000000E+00  0.00000000E+00
  0.00000000E+00  0.00000000E+00  0.00000000E+00  0.00000000E+00  0.00000000E+00
  0.00000000E+00  0.00000000E+00  0.00000000E+00  0.00000000E+00  0.00000000E+00
  0.00000000E+00  0.00000000E+00  0.00000000E+00  0.00000000E+00
Coordinates of each shell                  R   N=         168
  4.79927062E+00 -1.04913358E+00  1.33365204E+00  4.79927062E+00 -1.04913358E+00
  1.33365204E+00  4.79927062E+00 -1.04913358E+00  1.33365204E+00  4.79927062E+00
 -1.04913358E+00  1.33365204E+00  5.71784919E-01 -8.27360170E-01 -5.14040838E-01
  5.71784919E-01 -8.27360170E-01 -5.14040838E-01  5.71784919E-01 -8.27360170E-01
 -5.14040838E-01  5.71784919E-01 -8.27360170E-01 -5.14040838E-01 -1.75299774E-01
  1.70731651E+00 -1.64392303E-01 -1.75299774E-01  1.70731651E+00 -1.64392303E-01
 -1.75299774E-01  1.70731651E+00 -1.64392303E-01 -1.75299774E-01  1.70731651E+00
 -1.64392303E-01  3.31411946E+00 -1.49336397E+00 -8.90434053E-01  3.31411946E+00
 -1.49336397E+00 -8.90434053E-01  3.31411946E+00 -1.49336397E+00 -8.90434053E-01
  3.31411946E+00 -1.49336397E+00 -8.90434053E-01 -1.22925384E+00 -2.75807499E+00
 -3.63194482E-01 -1.22925384E+00 -2.75807499E+00 -3.63194482E-01 -1.22925384E+00
 -2.75807499E+00 -3.63194482E-01 -1.22925384E+00 -2.75807499E+00 -3.63194482E-01
 -2.73155691E+00  2.22170953E+00  2.69374849E-01 -2.73155691E+00  2.22170953E+00
  2.69374849E-01 -2.73155691E+00  2.22170953E+00  2.69374849E-01 -2.73155691E+00
  2.22170953E+00  2.69374849E-01  1.71700252E+00  3.82923647E+00 -3.43107097E-01
  1.71700252E+00  3.82923647E+00 -3.43107097E-01  1.71700252E+00  3.82923647E+00
 -3.43107097E-01  1.71700252E+00  3.82923647E+00 -3.43107097E-01 -3.77456154E+00
 -2.21713363E+00  7.23395934E-02 -3.77456154E+00 -2.21713363E+00  7.23395934E-02
 -3.77456154E+00 -2.21713363E+00  7.23395934E-02 -3.77456154E+00 -2.21713363E+00
  7.23395934E-02 -4.52248958E+00  2.86692562E-01  4.06495435E-01 -4.52248958E+00
  2.86692562E-01  4.06495435E-01 -4.52248958E+00  2.86692562E-01  4.06495435E-01
 -4.52248958E+00  2.86692562E-01  4.06495435E-01  3.47219913E+00 -3.47436073E+00
 -1.49838209E+00  3.47219913E+00 -3.47436073E+00 -1.49838209E+00  4.18084004E+00
 -3.20892766E-01 -2.35461047E+00  4.18084004E+00 -3.20892766E-01 -2.35461047E+00
 -6.31855514E-01 -4.71029362E+00 -6.30285456E-01 -6.31855514E-01 -4.71029362E+00
 -6.30285456E-01 -3.32764948E+00  4.17355996E+00  5.32197466E-01 -3.32764948E+00
  4.17355996E+00  5.32197466E-01  3.39693869E+00  3.41022127E+00  7.79298850E-01
  3.39693869E+00  3.41022127E+00  7.79298850E-01  2.32687443E+00  4.12223713E+00
 -2.30136838E+00  2.32687443E+00  4.12223713E+00 -2.30136838E+00  8.88028975E-01
  5.59937548E+00  3.26522604E-01  8.88028975E-01  5.59937548E+00  3.26522604E-01
 -5.15231245E+00 -3.73807517E+00  1.75126632E-01 -5.15231245E+00 -3.73807517E+00
  1.75126632E-01 -6.49693347E+00  7.40445720E-01  7.52446858E-01 -6.49693347E+00
  7.40445720E-01  7.52446858E-01  3.93123313E+00 -1.90328259E+00  2.71159105E+00
  3.93123313E+00 -1.90328259E+00  2.71159105E+00
Constraint Structure                       R   N=          57
  4.79927062E+00 -1.04913358E+00  1.33365204E+00  5.71784919E-01 -8.27360170E-01
 -5.14040838E-01 -1.75299774E-01  1.70731651E+00 -1.64392303E-01  3.31411946E+00
 -1.49336397E+00 -8.90434053E-01 -1.22925384E+00 -2.75807499E+00 -3.63194482E-01
 -2.73155691E+00  2.22170953E+00  2.69374849E-01  1.71700252E+00  3.82923647E+00
 -3.43107097E-01 -3.77456154E+00 -2.21713363E+00  7.23395934E-02 -4.52248958E+00
  2.86692562E-01  4.06495435E-01  3.47219913E+00 -3.47436073E+00 -1.49838209E+00
  4.18084004E+00 -3.20892766E-01 -2.35461047E+00 -6.31855514E-01 -4.71029362E+00
 -6.30285456E-01 -3.32764948E+00  4.17355996E+00  5.32197466E-01  3.39693869E+00
  3.41022127E+00  7.79298850E-01  2.32687443E+00  4.12223713E+00 -2.30136838E+00
  8.88028975E-01  5.59937548E+00  3.26522604E-01 -5.15231245E+00 -3.73807517E+00
  1.75126632E-01 -6.49693347E+00  7.40445720E-01  7.52446858E-01  3.93123313E+00
 -1.90328259E+00  2.71159105E+00
Num ILSW                                   I              100
ILSW                                       I   N=         100
           0           1           0           0           2           0
           0           0           0           0           0          -1
           0           0           0           0           0           0
           0           0           0           0           1           0
           1           0           0           0           0           0
           0           0      100000           0          -1           0
           0           0           0           0           0           0
           0           0           0           1           1           0
           0           0           1           0           0           0
           0           0           4          40           0           0
           0           0           0           0           0           0
           0           0           0           0           0           0
           0           0           0           0           0           0
           0           0           0           0           0           0
           0           0           0           0           0           0
           0           0           0           0           0           0
           0           0           0           0
Num RLSW                                   I               40
RLSW                                       R   N=          40
  1.00000000E+00  1.00000000E+00  1.00000000E+00  1.00000000E+00  1.00000000E+00
  0.00000000E+00  0.00000000E+00  1.00000000E+00  0.00000000E+00  0.00000000E+00
  0.00000000E+00  0.00000000E+00  1.00000000E+00  0.00000000E+00  0.00000000E+00
  0.00000000E+00  0.00000000E+00  1.00000000E+00  0.00000000E+00  0.00000000E+00
  0.00000000E+00  0.00000000E+00  1.00000000E+00  0.00000000E+00  0.00000000E+00
  0.00000000E+00  0.00000000E+00  1.00000000E+00  0.00000000E+00  0.00000000E+00
  0.00000000E+00  0.00000000E+00  0.00000000E+00  0.00000000E+00  0.00000000E+00
  0.00000000E+00  0.00000000E+00  0.00000000E+00  1.00000000E+00  1.00000000E+00
MxBond                                     I                4
NBond                                      I   N=          19
           2           3           3           4           3           3
           4           3           3           1           1           1
           1           1           1           1           1           1
           1
IBond                                      I   N=          76
           4          19           0           0           3           4
           5           0           2           6           7           0
           1           2          10          11           2           8
          12           0           3           9          13           0
           3          14          15          16           5           9
          17           0           6           8          18           0
           4           0           0           0           4           0
           0           0           5           0           0           0
           6           0           0           0           7           0
           0           0           7           0           0           0
           7           0           0           0           8           0
           0           0           9           0           0           0
           1           0           0           0
RBond                                      R   N=          76
  1.00000000E+00  1.00000000E+00  0.00000000E+00  0.00000000E+00  1.50000000E+00
  1.00000000E+00  1.50000000E+00  0.00000000E+00  1.50000000E+00  1.50000000E+00
  1.00000000E+00  0.00000000E+00  1.00000000E+00  1.00000000E+00  1.00000000E+00
  1.00000000E+00  1.50000000E+00  1.50000000E+00  1.00000000E+00  0.00000000E+00
  1.50000000E+00  1.50000000E+00  1.00000000E+00  0.00000000E+00  1.00000000E+00
  1.00000000E+00  1.00000000E+00  1.00000000E+00  1.50000000E+00  1.50000000E+00
  1.00000000E+00  0.00000000E+00  1.50000000E+00  1.50000000E+00  1.00000000E+00
  0.00000000E+00  1.00000000E+00  0.00000000E+00  0.00000000E+00  0.00000000E+00
  1.00000000E+00  0.00000000E+00  0.00000000E+00  0.00000000E+00  1.00000000E+00
  0.00000000E+00  0.00000000E+00  0.00000000E+00  1.00000000E+00  0.00000000E+00
  0.00000000E+00  0.00000000E+00  1.00000000E+00  0.00000000E+00  0.00000000E+00
  0.00000000E+00  1.00000000E+00  0.00000000E+00  0.00000000E+00  0.00000000E+00
  1.00000000E+00  0.00000000E+00  0.00000000E+00  0.00000000E+00  1.00000000E+00
  0.00000000E+00  0.00000000E+00  0.00000000E+00  1.00000000E+00  0.00000000E+00
  0.00000000E+00  0.00000000E+00  1.00000000E+00  0.00000000E+00  0.00000000E+00
  0.00000000E+00
Virial Ratio                               R      2.002060636981036E+00
SCF Energy                                 R     -3.836191192939342E+02
MP2 Energy                                 R     -3.848222740310308E+02
Total Energy                               R     -3.848222740310308E+02
Post-SCF wavefunction norm                 R      1.683932733354146E+00
RMS Force                                  R      5.809309827656616E-07
RMS Density                                R      2.128200724290349E-09
External E-field                           R   N=          35
  0.00000000E+00  0.00000000E+00  0.00000000E+00  0.00000000E+00  0.00000000E+00
  0.00000000E+00  0.00000000E+00  0.00000000E+00  0.00000000E+00  0.00000000E+00
  0.00000000E+00  0.00000000E+00  0.00000000E+00  0.00000000E+00  0.00000000E+00
  0.00000000E+00  0.00000000E+00  0.00000000E+00  0.00000000E+00  0.00000000E+00
  0.00000000E+00  0.00000000E+00  0.00000000E+00  0.00000000E+00  0.00000000E+00
  0.00000000E+00  0.00000000E+00  0.00000000E+00  0.00000000E+00  0.00000000E+00
  0.00000000E+00  0.00000000E+00  0.00000000E+00  0.00000000E+00  0.00000000E+00
IOpCl                                      I                0
IROHF                                      I                0
Alpha Orbital Energies                     R   N=         155
 -2.05615590E+01 -1.12802342E+01 -1.12433883E+01 -1.12386100E+01 -1.12372438E+01
 -1.12355877E+01 -1.12338694E+01 -1.12319399E+01 -1.12177825E+01 -1.35056756E+00
 -1.15284905E+00 -1.04519836E+00 -1.02861505E+00 -9.40013708E-01 -9.04633819E-01
 -8.14036971E-01 -7.88211289E-01 -6.96006073E-01 -6.70206436E-01 -6.40251493E-01
 -6.20980417E-01 -5.99805284E-01 -5.81679218E-01 -5.69284310E-01 -5.64866599E-01
 -5.40127886E-01 -5.21319105E-01 -4.89381365E-01 -4.82754543E-01 -4.73383440E-01
 -4.40485256E-01 -3.32048548E-01 -3.20270999E-01  1.32179012E-01  1.44701840E-01
  2.34739378E-01  2.44284805E-01  2.58455679E-01  2.72968718E-01  2.99399329E-01
  3.13581494E-01  3.26823432E-01  3.32932119E-01  3.40379578E-01  3.65311008E-01
  3.81834402E-01  4.13249257E-01  4.29305235E-01  4.34855545E-01  4.85013440E-01
  5.17175842E-01  5.39733280E-01  5.44702332E-01  6.85576234E-01  7.17719169E-01
  7.28011481E-01  7.44983400E-01  7.59915927E-01  7.72366761E-01  7.87519761E-01
  7.94522035E-01  8.23596031E-01  8.33409459E-01  8.40047985E-01  8.44702254E-01
  8.59606145E-01  8.93013024E-01  9.21301486E-01  9.25249471E-01  9.75763925E-01
  9.83052777E-01  1.01196736E+00  1.04395824E+00  1.05194853E+00  1.08524844E+00
  1.10543631E+00  1.10563858E+00  1.11635560E+00  1.14182901E+00  1.15290638E+00
  1.16606181E+00  1.18482237E+00  1.20846389E+00  1.21658813E+00  1.22559466E+00
  1.25333317E+00  1.26598776E+00  1.28533384E+00  1.33895099E+00  1.34384305E+00
  1.35943933E+00  1.39744756E+00  1.43552213E+00  1.48192312E+00  1.50391806E+00
  1.52926807E+00  1.56155447E+00  1.61878668E+00  1.65767317E+00  1.67923810E+00
  1.71103638E+00  1.73043267E+00  1.76436458E+00  1.78241067E+00  1.81753058E+00
  1.93040090E+00  1.97061672E+00  2.03167877E+00  2.08975331E+00  2.10377755E+00
  2.12300007E+00  2.15936904E+00  2.18742495E+00  2.20531242E+00  2.23870489E+00
  2.25553978E+00  2.28162415E+00  2.35041123E+00  2.39394654E+00  2.39507614E+00
  2.43020028E+00  2.44937550E+00  2.48397758E+00  2.52319209E+00  2.56324868E+00
  2.59047108E+00  2.59781646E+00  2.61905635E+00  2.63657374E+00  2.66685425E+00
  2.69100651E+00  2.71953653E+00  2.78562675E+00  2.82681179E+00  2.87373369E+00
  2.94902670E+00  2.96640959E+00  3.00421438E+00  3.08498688E+00  3.12552917E+00
  3.13743041E+00  3.14793163E+00  3.20007368E+00  3.29610876E+00  3.46597054E+00
  3.78721319E+00  4.17297917E+00  4.51483307E+00  4.54533281E+00  4.55245872E+00
  4.68840019E+00  4.73529789E+00  4.80602786E+00  4.86521783E+00  5.16104471E+00
Alpha MO coefficients                      R   N=       24025
  9.94662094E-01  2.11310463E-02 -1.08291423E-03 -7.01735415E-04 -2.23259028E-05
  3.93767935E-03  5.54506039E-04  3.97333946E-04 -6.77273399E-06 -4.02657758E-03
 -3.91242417E-03 -4.18909905E-03 -1.19236812E-04 -7.37514612E-05  3.91868405E-05
 -8.13695570E-06  1.37637249E-05 -4.22882038E-05 -1.72165678E-05 -3.21026025E-05
  1.37128952E-04 -1.86456526E-04  7.76748588E-04  1.57954730E-04 -7.83935250E-05
 -1.65958178E-05 -3.14915897E-05 -8.00077678E-06 -1.99760592E-05  8.75765705E-06
  6.26205113E-06  2.69960374E-05  6.18261474E-06 -6.68361447E-06  2.43908011E-06
 -4.95408613E-04 -2.20188717E-04  5.62220279E-04  2.05853168E-05  1.40891218E-05
 -1.02505617E-05  1.68615647E-05  8.88465500E-06 -1.38598781E-06 -3.23418555E-06
 -3.19023347E-05  1.69964152E-04  2.16832100E-04  7.31790271E-05  2.85990571E-04
  4.06077433E-04 -4.64701284E-04 -3.26214079E-04  6.27163180E-05 -9.49714376E-06
 -7.84906803E-05  2.58344425E-05  1.26253528E-06  6.12014745E-05  2.57951464E-05
 -7.90958435E-07 -1.70482588E-05  2.05837366E-05  5.85718487E-06 -2.95786330E-06
  3.54795983E-04  9.50647447E-05  7.53344096E-05 -4.66708600E-05  2.25306478E-05
  2.68582201E-06  3.26826505E-06  5.37781130E-06 -8.36983065E-06 -6.79101026E-06
  1.58260612E-06  1.09524822E-05  3.59903305E-06  3.59847355E-06  4.95978679E-08
 -1.30519920E-04 -1.50647792E-04 -1.25509669E-04  2.87921453E-05 -5.65636601E-06
  3.41096044E-07  3.62489571E-06 -2.95923537E-06  3.70317282E-06 -2.20700165E-06
 -3.67998738E-06 -1.73783715E-05 -5.27726114E-06 -1.85431970E-05 -1.48658039E-05
  1.21251559E-04  1.88763448E-04  1.97569056E-05  9.94075103E-05 -1.79265855E-05
  2.83869816E-06 -1.23044186E-06 -9.43558430E-06  6.02218932E-06 -4.17673937E-08