074_CCl4 Gaussian SP Calculation on g2-node38.bme.utexas.edu            
Freq      RMP2-FC                                                     6-31G(d)            
Number of atoms                            I                5
Info1-9                                    I   N=           9
          16          15        1002           0           0         100
           6           2           1
Charge                                     I                0
Multiplicity                               I                1
Number of electrons                        I               74
Number of alpha electrons                  I               37
Number of beta electrons                   I               37
Number of basis functions                  I               91
Number of independent functions            I               91
Number of point charges in /Mol/           I                0
Number of translation vectors              I                0
Atomic numbers                             I   N=           5
          17          17          17          17           6
Nuclear charges                            R   N=           5
  1.70000000E+01  1.70000000E+01  1.70000000E+01  1.70000000E+01  6.00000000E+00
Current cartesian coordinates              R   N=          15
 -3.00325119E+00  1.45813633E+00 -2.24616938E-01  3.31131296E-01 -2.25482606E+00
 -2.44990879E+00  2.80378427E-01 -1.52522279E+00  2.96495992E+00  2.39174164E+00
  2.32191998E+00 -2.90437060E-01 -5.01577810E-07 -2.11158879E-05  8.10935937E-06
Force Field                                I                0
Int Atom Types                             I   N=           5
           0           0           0           0           0
MM charges                                 R   N=           5
  0.00000000E+00  0.00000000E+00  0.00000000E+00  0.00000000E+00  0.00000000E+00
Integer atomic weights                     I   N=           5
          35          35          35          35          12
Real atomic weights                        R   N=           5
  3.49688527E+01  3.49688527E+01  3.49688527E+01  3.49688527E+01  1.20000000E+01
Atom fragment info                         I   N=           5
           0           0           0           0           0
Atom residue num                           I   N=           5
           0           0           0           0           0
Nuclear spins                              I   N=           5
           3           3           3           3           0
Nuclear ZEff                               R   N=           5
 -1.42400000E+01 -1.42400000E+01 -1.42400000E+01 -1.42400000E+01 -3.60000000E+00
Nuclear QMom                               R   N=           5
 -8.16500000E+00 -8.16500000E+00 -8.16500000E+00 -8.16500000E+00  0.00000000E+00
Nuclear GFac                               R   N=           5
  8.21874000E-01  8.21874000E-01  8.21874000E-01  8.21874000E-01  0.00000000E+00
MicOpt                                     I   N=           5
          -1          -1          -1          -1          -1
Number of contracted shells                I               24
Number of primitive shells                 I               79
Pure/Cartesian d shells                    I                1
Pure/Cartesian f shells                    I                0
Highest angular momentum                   I                2
Largest degree of contraction              I                6
Shell types                                I   N=          24
           0          -1          -1          -1           2           0
          -1          -1          -1           2           0          -1
          -1          -1           2           0          -1          -1
          -1           2           0          -1          -1           2
Number of primitives per shell             I   N=          24
           6           6           3           1           1           6
           6           3           1           1           6           6
           3           1           1           6           6           3
           1           1           6           3           1           1
Shell to atom map                          I   N=          24
           1           1           1           1           1           2
           2           2           2           2           3           3
           3           3           3           4           4           4
           4           4           5           5           5           5
Primitive exponents                        R   N=          79
  2.51801000E+04  3.78035000E+03  8.60474000E+02  2.42145000E+02  7.73349000E+01
  2.62470000E+01  4.91765000E+02  1.16984000E+02  3.74153000E+01  1.37834000E+01
  5.45215000E+00  2.22588000E+00  3.18649000E+00  1.14427000E+00  4.20377000E-01
  1.42657000E-01  7.50000000E-01  2.51801000E+04  3.78035000E+03  8.60474000E+02
  2.42145000E+02  7.73349000E+01  2.62470000E+01  4.91765000E+02  1.16984000E+02
  3.74153000E+01  1.37834000E+01  5.45215000E+00  2.22588000E+00  3.18649000E+00
  1.14427000E+00  4.20377000E-01  1.42657000E-01  7.50000000E-01  2.51801000E+04
  3.78035000E+03  8.60474000E+02  2.42145000E+02  7.73349000E+01  2.62470000E+01
  4.91765000E+02  1.16984000E+02  3.74153000E+01  1.37834000E+01  5.45215000E+00
  2.22588000E+00  3.18649000E+00  1.14427000E+00  4.20377000E-01  1.42657000E-01
  7.50000000E-01  2.51801000E+04  3.78035000E+03  8.60474000E+02  2.42145000E+02
  7.73349000E+01  2.62470000E+01  4.91765000E+02  1.16984000E+02  3.74153000E+01
  1.37834000E+01  5.45215000E+00  2.22588000E+00  3.18649000E+00  1.14427000E+00
  4.20377000E-01  1.42657000E-01  7.50000000E-01  3.04752488E+03  4.57369518E+02
  1.03948685E+02  2.92101553E+01  9.28666296E+00  3.16392696E+00  7.86827235E+00
  1.88128854E+00  5.44249258E-01  1.68714478E-01  8.00000000E-01
Contraction coefficients                   R   N=          79
  1.83295985E-03  1.40341988E-02  6.90973943E-02  2.37451980E-01  4.83033960E-01
  3.39855972E-01 -2.29739142E-03 -3.07137189E-02 -1.12528069E-01  4.50163278E-02
  5.89353363E-01  4.65206287E-01 -2.51828028E-01  6.15892514E-02  1.06018433E+00
  1.00000000E+00  1.00000000E+00  1.83295985E-03  1.40341988E-02  6.90973943E-02
  2.37451980E-01  4.83033960E-01  3.39855972E-01 -2.29739142E-03 -3.07137189E-02
 -1.12528069E-01  4.50163278E-02  5.89353363E-01  4.65206287E-01 -2.51828028E-01
  6.15892514E-02  1.06018433E+00  1.00000000E+00  1.00000000E+00  1.83295985E-03
  1.40341988E-02  6.90973943E-02  2.37451980E-01  4.83033960E-01  3.39855972E-01
 -2.29739142E-03 -3.07137189E-02 -1.12528069E-01  4.50163278E-02  5.89353363E-01
  4.65206287E-01 -2.51828028E-01  6.15892514E-02  1.06018433E+00  1.00000000E+00
  1.00000000E+00  1.83295985E-03  1.40341988E-02  6.90973943E-02  2.37451980E-01
  4.83033960E-01  3.39855972E-01 -2.29739142E-03 -3.07137189E-02 -1.12528069E-01
  4.50163278E-02  5.89353363E-01  4.65206287E-01 -2.51828028E-01  6.15892514E-02
  1.06018433E+00  1.00000000E+00  1.00000000E+00  1.83473713E-03  1.40373228E-02
  6.88426223E-02  2.32184443E-01  4.67941348E-01  3.62311985E-01 -1.19332420E-01
 -1.60854152E-01  1.14345644E+00  1.00000000E+00  1.00000000E+00
P(S=P) Contraction coefficients            R   N=          79
  0.00000000E+00  0.00000000E+00  0.00000000E+00  0.00000000E+00  0.00000000E+00
  0.00000000E+00  3.98940088E-03  3.03177067E-02  1.29880029E-01  3.27951072E-01
  4.53527100E-01  2.52154056E-01 -1.42993147E-02  3.23572333E-01  7.43507765E-01
  1.00000000E+00  0.00000000E+00  0.00000000E+00  0.00000000E+00  0.00000000E+00
  0.00000000E+00  0.00000000E+00  0.00000000E+00  3.98940088E-03  3.03177067E-02
  1.29880029E-01  3.27951072E-01  4.53527100E-01  2.52154056E-01 -1.42993147E-02
  3.23572333E-01  7.43507765E-01  1.00000000E+00  0.00000000E+00  0.00000000E+00
  0.00000000E+00  0.00000000E+00  0.00000000E+00  0.00000000E+00  0.00000000E+00
  3.98940088E-03  3.03177067E-02  1.29880029E-01  3.27951072E-01  4.53527100E-01
  2.52154056E-01 -1.42993147E-02  3.23572333E-01  7.43507765E-01  1.00000000E+00
  0.00000000E+00  0.00000000E+00  0.00000000E+00  0.00000000E+00  0.00000000E+00
  0.00000000E+00  0.00000000E+00  3.98940088E-03  3.03177067E-02  1.29880029E-01
  3.27951072E-01  4.53527100E-01  2.52154056E-01 -1.42993147E-02  3.23572333E-01
  7.43507765E-01  1.00000000E+00  0.00000000E+00  0.00000000E+00  0.00000000E+00
  0.00000000E+00  0.00000000E+00  0.00000000E+00  0.00000000E+00  6.89990666E-02
  3.16423961E-01  7.44308291E-01  1.00000000E+00  0.00000000E+00
Coordinates of each shell                  R   N=          72
 -3.00325119E+00  1.45813633E+00 -2.24616938E-01 -3.00325119E+00  1.45813633E+00
 -2.24616938E-01 -3.00325119E+00  1.45813633E+00 -2.24616938E-01 -3.00325119E+00
  1.45813633E+00 -2.24616938E-01 -3.00325119E+00  1.45813633E+00 -2.24616938E-01
  3.31131296E-01 -2.25482606E+00 -2.44990879E+00  3.31131296E-01 -2.25482606E+00
 -2.44990879E+00  3.31131296E-01 -2.25482606E+00 -2.44990879E+00  3.31131296E-01
 -2.25482606E+00 -2.44990879E+00  3.31131296E-01 -2.25482606E+00 -2.44990879E+00
  2.80378427E-01 -1.52522279E+00  2.96495992E+00  2.80378427E-01 -1.52522279E+00
  2.96495992E+00  2.80378427E-01 -1.52522279E+00  2.96495992E+00  2.80378427E-01
 -1.52522279E+00  2.96495992E+00  2.80378427E-01 -1.52522279E+00  2.96495992E+00
  2.39174164E+00  2.32191998E+00 -2.90437060E-01  2.39174164E+00  2.32191998E+00
 -2.90437060E-01  2.39174164E+00  2.32191998E+00 -2.90437060E-01  2.39174164E+00
  2.32191998E+00 -2.90437060E-01  2.39174164E+00  2.32191998E+00 -2.90437060E-01
 -5.01577810E-07 -2.11158879E-05  8.10935937E-06 -5.01577810E-07 -2.11158879E-05
  8.10935937E-06 -5.01577810E-07 -2.11158879E-05  8.10935937E-06 -5.01577810E-07
 -2.11158879E-05  8.10935937E-06
Constraint Structure                       R   N=          15
 -3.00325119E+00  1.45813633E+00 -2.24616938E-01  3.31131296E-01 -2.25482606E+00
 -2.44990879E+00  2.80378427E-01 -1.52522279E+00  2.96495992E+00  2.39174164E+00
  2.32191998E+00 -2.90437060E-01 -5.01577810E-07 -2.11158879E-05  8.10935937E-06
Num ILSW                                   I              100
ILSW                                       I   N=         100
           0           1           0           0           2           0
           0           0           0           0           0          -1
           0           0           0           0           0           0
           0           0           0           0           1           0
           1           0           0           0           0           0
           0           0      100000           0          -1           0
           0           0           0           0           0           0
           0           0           0           1           1           0
           0           0           1           0           0           0
           0           0           4          40           0           0
           0           0           0           0           0           0
           0           0           0           0           0           0
           0           0           0           0           0           0
           0           0           0           0           0           0
           0           0           0           0           0           0
           0           0           0           0           0           0
           0           0           0           0
Num RLSW                                   I               40
RLSW                                       R   N=          40
  1.00000000E+00  1.00000000E+00  1.00000000E+00  1.00000000E+00  1.00000000E+00
  0.00000000E+00  0.00000000E+00  1.00000000E+00  0.00000000E+00  0.00000000E+00
  0.00000000E+00  0.00000000E+00  1.00000000E+00  0.00000000E+00  0.00000000E+00
  0.00000000E+00  0.00000000E+00  1.00000000E+00  0.00000000E+00  0.00000000E+00
  0.00000000E+00  0.00000000E+00  1.00000000E+00  0.00000000E+00  0.00000000E+00
  0.00000000E+00  0.00000000E+00  1.00000000E+00  0.00000000E+00  0.00000000E+00
  0.00000000E+00  0.00000000E+00  0.00000000E+00  0.00000000E+00  0.00000000E+00
  0.00000000E+00  0.00000000E+00  0.00000000E+00  1.00000000E+00  1.00000000E+00
MxBond                                     I                4
NBond                                      I   N=           5
           1           1           1           1           4
IBond                                      I   N=          20
           5           0           0           0           5           0
           0           0           5           0           0           0
           5           0           0           0           1           2
           3           4
RBond                                      R   N=          20
  1.00000000E+00  0.00000000E+00  0.00000000E+00  0.00000000E+00  1.00000000E+00
  0.00000000E+00  0.00000000E+00  0.00000000E+00  1.00000000E+00  0.00000000E+00
  0.00000000E+00  0.00000000E+00  1.00000000E+00  0.00000000E+00  0.00000000E+00
  0.00000000E+00  1.00000000E+00  1.00000000E+00  1.00000000E+00  1.00000000E+00
Virial Ratio                               R      2.000398240794650E+00
SCF Energy                                 R     -1.875744793834716E+03
MP2 Energy                                 R     -1.876407167115893E+03
Total Energy                               R     -1.876407167115893E+03
Post-SCF wavefunction norm                 R      1.578127747833331E+00
RMS Force                                  R      3.579945721162657E-06
RMS Density                                R      1.217466143537079E-09
External E-field                           R   N=          35
  0.00000000E+00  0.00000000E+00  0.00000000E+00  0.00000000E+00  0.00000000E+00
  0.00000000E+00  0.00000000E+00  0.00000000E+00  0.00000000E+00  0.00000000E+00
  0.00000000E+00  0.00000000E+00  0.00000000E+00  0.00000000E+00  0.00000000E+00
  0.00000000E+00  0.00000000E+00  0.00000000E+00  0.00000000E+00  0.00000000E+00
  0.00000000E+00  0.00000000E+00  0.00000000E+00  0.00000000E+00  0.00000000E+00
  0.00000000E+00  0.00000000E+00  0.00000000E+00  0.00000000E+00  0.00000000E+00
  0.00000000E+00  0.00000000E+00  0.00000000E+00  0.00000000E+00  0.00000000E+00
IOpCl                                      I                0
IROHF                                      I                0
Alpha Orbital Energies                     R   N=          91
 -1.04868607E+02 -1.04868606E+02 -1.04868605E+02 -1.04868603E+02 -1.14990608E+01
 -1.06029768E+01 -1.06029753E+01 -1.06029739E+01 -1.06029460E+01 -8.07239151E+00
 -8.07237481E+00 -8.07237319E+00 -8.07237189E+00 -8.06833146E+00 -8.06833127E+00
 -8.06833005E+00 -8.06832953E+00 -8.06832819E+00 -8.06832736E+00 -8.06832701E+00
 -8.06832659E+00 -1.29163497E+00 -1.13357947E+00 -1.13357577E+00 -1.13357248E+00
 -8.39338231E-01 -6.63925467E-01 -6.63924040E-01 -6.63922772E-01 -5.33133470E-01
 -5.33133444E-01 -4.92301519E-01 -4.92299553E-01 -4.92297789E-01 -4.64168966E-01
 -4.64168588E-01 -4.64168292E-01  9.18716978E-02  1.54763138E-01  1.54768245E-01
  1.54773968E-01  4.13452580E-01  5.08826214E-01  5.08826442E-01  5.08826579E-01
  5.75807571E-01  5.75809162E-01  5.75810757E-01  6.20855729E-01  6.20855745E-01
  6.21831636E-01  6.64084347E-01  6.64088619E-01  6.64092471E-01  6.84747948E-01
  6.84749155E-01  6.84750484E-01  8.00852304E-01  8.00853800E-01  8.00855426E-01
  9.66835406E-01  9.66835433E-01  1.10482231E+00  1.10482307E+00  1.10482393E+00
  1.12010621E+00  1.12010622E+00  1.12249094E+00  1.12249319E+00  1.12249567E+00
  1.15627491E+00  1.15627507E+00  1.15627578E+00  1.27871615E+00  1.33144185E+00
  1.33144823E+00  1.33145531E+00  1.49269415E+00  1.49269658E+00  1.49269978E+00
  1.60727326E+00  2.02161561E+00  2.02161564E+00  2.39586675E+00  2.39588227E+00
  2.39589917E+00  4.31749555E+00  4.68786370E+00  4.68786464E+00  4.68786569E+00
  4.72791656E+00
Alpha MO coefficients                      R   N=        8281
 -9.73446505E-02 -1.42965836E-03 -4.11505798E-06  2.00577870E-06 -3.53679178E-07
  1.74876637E-03 -4.99109792E-07 -2.81101252E-07  3.04034500E-06 -1.92161921E-04
 -2.26277099E-05  1.96908894E-05 -5.28752313E-05 -6.14033561E-04 -6.11989472E-04
 -6.15893852E-04  5.22478589E-06 -1.34067748E-05  1.25885143E-05 -4.26474833E-01
 -6.26637767E-03  2.34989523E-06 -1.60092491E-05 -1.74503901E-05  7.62243016E-03
 -1.35605597E-06  9.77638948E-06  1.43697002E-05 -7.26069200E-04  2.10550658E-06
 -2.33595531E-05 -8.77102698E-05 -2.67341184E-03 -2.67474386E-03 -2.70056394E-03
 -1.10512527E-09  3.72938800E-07 -5.31236396E-06  8.91111406E-01  1.30961572E-02
 -4.44749070E-06  2.41885365E-05 -4.70503257E-05 -1.58912383E-02  4.29507966E-06
 -2.30530863E-05  4.67279024E-05  1.41128242E-03 -7.87587740E-06  3.76613709E-05
 -1.05038481E-04  5.59327862E-03  5.59531636E-03  5.60998567E-03 -5.83235958E-07
  9.01649594E-07 -3.27996222E-06 -8.25285941E-02 -1.21192965E-03  2.65522225E-06
  2.58918894E-06 -3.68830607E-07  1.48435901E-03  1.22002797E-06  4.15550463E-07
  2.96250671E-06 -1.68128239E-04  1.20998477E-05  2.45335367E-05 -5.32022798E-05
 -5.17373569E-04 -5.21736201E-04 -5.23403452E-04 -4.33632383E-06  8.66699455E-06
  1.62409637E-05 -3.95904674E-06  3.61004460E-06  3.06568112E-06 -1.10087756E-05
  5.62084617E-05  6.74752879E-05 -1.53475553E-06  5.51244440E-06 -2.81498376E-05
 -3.40573815E-06 -5.03408808E-06 -2.19239675E-05  3.07299807E-07 -3.49997953E-06
  2.04401334E-05 -3.48789190E-01 -5.12393079E-03 -1.63501997E-05  7.97694395E-06
 -1.21123223E-06  6.24699106E-03  6.36697154E-06 -5.67232763E-06 -3.06620511E-07
 -6.32490564E-04 -6.14172427E-05  7.27419819E-05  8.42539342E-06 -2.19626950E-03
 -2.20038405E-03 -2.19289842E-03  1.85284815E-05  2.24873383E-06 -3.58015658E-06
  8.30421508E-01  1.22051110E-02 -5.01159655E-06  3.41025704E-05  3.70175306E-05
 -1.47972201E-02  5.74980219E-06 -3.76016749E-05 -3.84406253E-05  1.28038437E-03
 -1.50490314E-05  7.66711326E-05  4.31419005E-05  5.21672245E-03  5.22331847E-03
  5.20818712E-03 -2.25526988E-06 -1.73932952E-06  6.66373747E-06  3.35046961E-01
  4.92535479E-03 -1.82491681E-06  9.91734659E-06 -1.91842091E-05 -5.95675821E-03
  2.93181014E-06 -1.52921427E-05  2.33605523E-05  4.76802994E-04 -1.09383997E-05
  4.85829651E-05  1.14603738E-05  2.10861818E-03  2.11020399E-03  2.08753697E-03
 -1.33051923E-06  2.14451408E-06 -1.01251239E-05 -2.62178156E-01 -3.85114207E-03
  9.39423253E-06  9.17271335E-06 -1.13104570E-06  4.70133006E-03 -8.58490770E-07
 -4.36604759E-06 -5.50324046E-07 -4.91994444E-04  2.42143709E-05  8.22574256E-05
  7.94591017E-06 -1.64110759E-03 -1.66569749E-03 -1.64942063E-03 -1.27197101E-05
 -1.21327361E-06 -3.76585604E-06 -7.70927262E-06  7.02804735E-06  1.18861585E-05
 -5.27158310E-05 -1.33499830E-05  1.31388999E-04 -5.95063554E-06  2.63959482E-05
  6.68556307E-06 -1.16912436E-06 -2.18903333E-05 -3.60630285E-05  2.24522799E-06
  1.45465770E-06 -1.09130801E-05  7.29862932E-01  1.07262285E-02  3.88709958E-05
 -1.88412176E-05  2.90375899E-06 -1.30176858E-02 -3.84562614E-05  1.65466249E-05
 -2.63715543E-06  1.16185131E-03  9.84435175E-05 -1.24598545E-05  3.38635305E-06
  4.60082632E-03  4.57995047E-03  4.57912988E-03  2.24940013E-06  1.31528890E-07
 -3.14935272E-07  7.32268419E-02  1.07666078E-03 -4.45954556E-07  3.36135908E-06
  3.64219136E-06 -1.29935277E-03 -2.40422013E-06 -5.43530184E-06 -5.23280510E-06
  9.66833246E-05  5.20518663E-05  8.26186864E-06 -2.21405479E-06  4.55381217E-04
  4.63519940E-04  4.58041669E-04  1.60903199E-05  8.98471808E-06  1.58329903E-07
  5.25505308E-02  7.72812912E-04 -2.69505984E-07  1.72719997E-06 -3.33995440E-06
 -9.30363078E-04 -2.59767010E-06 -3.41257207E-06  5.44779264E-06  6.31428528E-05
  5.21530687E-05  8.10220901E-06  3.97943848E-06  3.26012187E-04  3.33352667E-04
  3.27660162E-04  1.31556971E-05 -1.29874289E-05 -1.53720262E-06 -6.71880621E-01
 -9.87303445E-03  2.75410133E-05  2.67013100E-05 -3.33895069E-06  1.19978426E-02
 -2.41335047E-05 -2.10208443E-05  2.55899118E-06 -1.11200080E-03  9.83441393E-05
  5.54216348E-05 -5.76101536E-06 -4.23815568E-03 -4.22071394E-03 -4.21556216E-03
 -8.98458262E-06  8.39417762E-07  4.69677400E-07 -2.55488758E-06  2.32674569E-06
 -5.66177567E-05 -1.11593479E-05  1.14624646E-07  4.35393161E-05  2.83451608E-05
  5.58724947E-06 -5.73679939E-08 -1.23319491E-05 -1.75943531E-07 -7.07994836E-06
  2.27200219E-05 -3.05997496E-06 -1.23571648E-06  5.73078477E-01  8.42737694E-03
  3.64745487E-05 -1.77249071E-05  2.73191374E-06 -1.01507643E-02 -5.79208553E-05
  2.91683643E-05 -4.59025438E-06  7.03107156E-04 -4.12360215E-05  2.61911814E-06
  1.20976563E-06  3.57319359E-03  3.59459084E-03  3.59861557E-03  7.07491265E-06
 -7.33499708E-07  1.94073100E-07  3.39714417E-01  4.99798526E-03 -2.67670940E-06
  1.82030637E-05  1.97981444E-05 -5.98614908E-03  5.34830657E-06 -3.48305211E-05
 -3.91875391E-05  3.24551147E-04  4.89211277E-06 -5.97421790E-05 -4.25696429E-05
  2.13028275E-03  2.11442892E-03  2.12086523E-03  1.40249713E-06  2.08710425E-06
 -1.82530987E-05  2.88359423E-01  4.24330007E-03 -2.01577174E-06  1.09434661E-05
 -2.12990591E-05 -5.06966756E-03  4.33056413E-06 -2.20866110E-05  4.46367387E-05
  2.41244206E-04  4.28321879E-06 -4.77745636E-05  6.45777791E-05  1.80814333E-03
  1.80063436E-03  1.78833691E-03  5.18317098E-07 -2.07053487E-06  1.76080515E-05
  6.82112012E-01  1.00296746E-02 -3.35937810E-05 -3.26270146E-05  4.08309717E-06
 -1.20965777E-02  5.01061901E-05  4.95652876E-05 -6.32602450E-06  8.79976470E-04
  2.37610802E-05  7.74446335E-06  1.12839174E-06  4.26641603E-03  4.27349501E-03
  4.28266264E-03 -1.18932023E-05  1.11263236E-06  6.92372587E-07 -2.61843958E-05
  2.38372028E-05  1.56108145E-06  1.82746520E-05 -4.57945497E-06  4.46208640E-04
 -7.79856770E-07 -9.15066793E-06  2.29310291E-06 -7.28140210E-05 -6.76569574E-05
 -6.02613973E-05 -2.92357303E-06  3.99317123E-07  2.43321738E-07 -2.85160832E-05
  7.27160085E-05 -4.48119546E-05  2.17572554E-05 -3.35159340E-06  3.47802132E-04
  3.67654226E-04 -1.78505213E-04  2.74979620E-05  2.14644738E-03  1.20065439E-03
 -5.82949003E-04  8.98018052E-05 -1.52246167E-04 -1.37302022E-04 -1.32803569E-04
  1.09632301E-05 -1.68881031E-06  8.19962280E-07 -2.85186827E-05  7.27284022E-05
  4.94026571E-06 -3.36410865E-05 -3.65519669E-05  3.47847350E-04 -4.05349039E-05
  2.76022861E-04  2.99906936E-04  2.14651914E-03 -1.32387517E-04  9.01471061E-04
  9.79476115E-04 -1.32933237E-04 -1.43739139E-04 -1.45733592E-04  1.87283658E-06
  2.03454975E-06 -1.38536538E-05 -2.85194947E-05  7.27320502E-05  4.18289710E-06
 -2.27548110E-05  4.42346675E-05  3.47861067E-04 -3.43215313E-05  1.86705885E-04
 -3.62951006E-04  2.14653966E-03 -1.12097803E-04  6.09782628E-04 -1.18539999E-03
 -1.32867443E-04 -1.37753591E-04 -1.51803251E-04  1.07337938E-06 -2.08618986E-06
  1.13477682E-05 -2.85160182E-05  7.27161323E-05  3.56878616E-05  3.46463846E-05
 -4.33376755E-06  3.47801740E-04 -2.92795687E-04 -2.84251067E-04  3.55559097E-05
  2.14644913E-03 -9.56183968E-04 -9.28276426E-04  1.16115622E-04 -1.45091891E-04
 -1.44379280E-04 -1.32876463E-04 -1.39014256E-05  1.73881979E-06  1.68811059E-06
  9.96249987E-01  2.61664306E-02  5.03678490E-09 -2.10565391E-08  6.47542460E-09
 -1.43003698E-02 -1.43273404E-08  2.32667433E-08 -4.66736363E-09 -1.11901050E-03
 -1.11898484E-03 -1.11895367E-03 -5.68821246E-09  1.16942836E-09 -1.55866838E-09
  3.10902505E-02 -1.11761126E-01 -4.32862867E-04  2.08341438E-04 -6.32003208E-06
 -2.86600237E-03 -1.31034943E-04  7.47264679E-05 -1.68355046E-04  8.83380067E-04
  1.61162443E-04 -1.18823355E-04  5.91351003E-04  1.03012016E-04  1.32884799E-04
  1.98164665E-04  1.55666988E-05  8.13362608E-05 -1.07463719E-04  1.62687019E-01
 -5.84803757E-01  2.51215065E-04 -1.70649554E-03 -1.82555850E-03 -1.49658204E-02
  6.64808150E-05 -4.77687195E-04 -6.93080212E-04  4.45887240E-03 -5.27597794E-05
  4.50579459E-04  1.12552172E-03  8.16859382E-04  6.81554892E-04  8.20575544E-04
  2.46640460E-05  3.01579034E-05 -1.85393929E-04 -2.32464102E-01  8.35621136E-01
 -3.01867324E-04  1.64489554E-03 -3.17593833E-03  2.13667981E-02 -9.29908228E-05
  4.88679857E-04 -1.08198612E-03 -6.27738409E-03  1.06355427E-04 -5.15817674E-04
  1.48504258E-03 -1.22172312E-03 -1.14592531E-03 -9.73312615E-04 -1.60645627E-05
  3.85329477E-05 -2.23581153E-04  2.72136565E-02 -9.78261777E-02  3.03337155E-04
  2.91292814E-04 -1.05967795E-05 -2.50956670E-03  8.16812338E-05  9.87157781E-05
 -1.69592693E-04  7.78057617E-04 -7.85140278E-05 -1.47169392E-04  5.92926332E-04
  9.32877408E-05  1.04496124E-04  1.80751544E-04 -2.17957879E-05 -4.17988019E-05
 -1.27057645E-04 -6.35587052E-06  3.25416364E-05 -3.85667553E-07  9.38391067E-07
 -1.07567841E-05 -4.22986912E-05  8.15442093E-06 -1.98271487E-05  2.27175391E-04
  8.59222508E-05  9.82191139E-05 -2.04231319E-04 -1.58205183E-06 -7.22343015E-05
  4.29478318E-04  1.50786221E-01 -5.42028227E-01 -2.09743182E-03  9.96151054E-04
 -1.59816125E-04 -1.38803423E-02 -6.46035195E-04  4.48806896E-04 -3.04286081E-05
  4.18153322E-03  7.80807233E-04 -8.72842243E-04 -6.96690292E-06  5.22614297E-04
  7.83462126E-04  8.29040291E-04  3.10589348E-05 -2.69283290E-05  3.46415164E-05
 -1.90690565E-01  6.85456909E-01 -2.86952536E-04  1.97216786E-03  2.16786296E-03
  1.75170772E-02 -1.23418211E-04  7.29544394E-04  6.40302739E-04 -5.09633704E-03
  2.22581363E-04 -1.11061848E-03 -6.50013411E-04 -1.06799936E-03 -9.27770431E-04
 -7.60250903E-04 -1.17458251E-05 -1.72748828E-05  1.62194342E-04 -9.98660205E-02
  3.58975626E-01 -1.23686295E-04  6.82281293E-04 -1.37800242E-03  9.16612022E-03
 -7.63538184E-05  3.57766221E-04 -3.81087525E-04 -2.62863903E-03  1.76271142E-04
 -7.48501024E-04  3.06355184E-04 -5.99680022E-04 -5.46632118E-04 -3.08783710E-04
  1.17881528E-06 -4.55751148E-06  7.31513993E-06  1.14635210E-01 -4.12078464E-01
  1.28016942E-03  1.21128845E-03 -1.57145265E-04 -1.05564113E-02  3.28798470E-04
  5.10994316E-04 -2.96708358E-05  3.19933442E-03 -2.51147602E-04 -9.44543133E-04
 -6.97888749E-06  3.88678529E-04  5.87173326E-04  6.41457793E-04 -7.45405098E-05
  1.73598554E-05  3.98138329E-05 -1.39246066E-05  7.12938287E-05 -2.62528384E-06
  1.04027373E-05  1.01241530E-06 -9.26748375E-05  5.55800768E-05 -2.20094293E-04
 -2.14096627E-05  3.88106364E-04 -4.74612589E-05 -3.84656682E-04  3.60731467E-05
  2.09575488E-05 -1.62824759E-04  1.90537426E-01 -6.84911541E-01 -2.63289952E-03
  1.29714215E-03 -1.99174488E-04 -1.75157214E-02 -9.21155869E-04  3.32848140E-04
 -5.52146009E-05  5.15901917E-03  1.32187155E-03 -2.23850698E-04  4.88790400E-05
  8.22408662E-04  9.30981467E-04  9.80958003E-04  2.14099815E-04 -2.96481548E-05
  8.70204521E-06  1.62153113E-02 -5.82867967E-02  5.03833559E-05 -1.63400726E-04
 -1.84891242E-04 -1.48753210E-03 -1.47626767E-04 -8.81188670E-05 -5.10109120E-05
  4.22746524E-04  5.59228839E-04  1.86694173E-04  3.94112461E-05  5.68002496E-05
  1.17587019E-04  6.30654776E-05  1.31228013E-04  4.95951797E-05 -8.02221693E-06
  1.18583526E-02 -4.26251113E-02  4.08851748E-05 -7.75705724E-05  1.62983111E-04
 -1.08692745E-03 -1.50363291E-04 -6.33999588E-05  4.90811565E-05  3.04368472E-04
  5.61835378E-04  1.63801465E-04 -4.74479646E-05  3.64579989E-05  9.66399094E-05
  4.19480419E-05  1.13090400E-04 -8.18246787E-05 -1.19635485E-05 -2.13320751E-01
  7.66812059E-01 -2.34479099E-03 -2.29460496E-03  2.87487456E-04  1.96173654E-02
 -8.38295456E-04 -7.02777958E-04  8.51046318E-05 -5.81370164E-03  1.25213729E-03
  8.09861374E-04 -9.10585685E-05 -1.02304999E-03 -9.23155389E-04 -1.10409407E-03
  2.23486227E-04 -2.96876159E-05 -2.80329818E-05  2.92931426E-06 -1.50017604E-05
 -1.04357887E-05 -2.64689270E-06  1.42036277E-07  1.94965041E-05  2.21208020E-04
  5.60691074E-05 -3.00673662E-06  9.62345906E-05 -1.23633153E-04  3.66613356E-05
 -4.55110170E-04  6.11117967E-05  2.62402118E-05 -1.49026784E-01  5.35549567E-01
  2.07747624E-03 -1.00748498E-03  1.54969753E-04  1.33338907E-02  5.86796296E-04
 -2.92116091E-04  4.64064817E-05 -2.11867079E-03  1.86293432E-04 -6.41142265E-05
  4.73759293E-06 -6.73523297E-04 -9.67601460E-04 -1.05567963E-03 -2.07325188E-04
  3.12632552E-05 -1.48167427E-05 -1.38288411E-01  4.96949013E-01 -2.12620107E-04
  1.44857412E-03  1.57218188E-03  1.23465653E-02 -5.95048001E-05  4.00463550E-04
  4.45705265E-04 -1.82686947E-03 -2.68730952E-05  2.00293721E-04  1.78953733E-04
 -9.90938921E-04 -7.89554895E-04 -7.62496798E-04 -3.41677252E-05 -3.78526448E-05
  2.58449147E-04 -1.34399319E-01  4.82969139E-01 -1.74977991E-04  9.52696459E-04
 -1.85006938E-03  1.19889850E-02 -4.88646241E-05  2.60547674E-04 -5.18339042E-04
 -1.72119564E-03 -2.44284214E-05  1.52146061E-04 -2.52525655E-04 -9.72121008E-04
 -8.83116491E-04 -6.32047918E-04 -1.89616505E-05  3.80890585E-05 -2.10376507E-04
 -1.51092763E-01  5.42976014E-01 -1.67753992E-03 -1.62729974E-03  2.03288643E-04
  1.35238491E-02 -4.73231553E-04 -4.67203550E-04  6.00623655E-05 -2.17479273E-03
 -1.44339175E-04 -1.11710286E-04  8.05169539E-06 -8.19956129E-04 -8.41473159E-04
 -1.06496433E-03  2.69073729E-04 -3.31346006E-05 -3.14360745E-05 -3.16881388E-04
  1.62437945E-03  2.53337770E-08 -4.78715301E-07  1.64758369E-07 -2.11225690E-03
 -5.80648757E-07  1.06133865E-05 -3.64780519E-06 -3.52723869E-04 -3.35901852E-04
 -3.13585035E-04 -5.75096059E-06  1.09087135E-06 -1.21417773E-06 -6.91123631E-04
  2.65499603E-03 -4.12845138E-01  2.00556624E-01 -3.09239203E-02 -1.01330926E-03
 -9.90212782E-03  4.81430416E-03 -7.43350589E-04 -1.52402572E-03  1.42773703E-03
 -6.40896990E-04  8.50172250E-05 -1.64418851E-04  3.60418080E-04  5.32333073E-04
  4.15805655E-04 -6.85499437E-05  3.49242832E-05 -7.81074250E-04  2.98525286E-03
  5.14107839E-02 -3.50022406E-01 -3.80480301E-01 -1.19150044E-03  1.23071327E-03
 -8.37724694E-03 -9.11232925E-03 -1.48640337E-03 -1.91646569E-04  1.33003032E-03
  1.36391954E-03  5.85170135E-04  1.67976694E-04  5.00111078E-05  7.36926059E-05
  8.15463428E-05 -5.49913450E-04 -8.23959105E-04  3.14270663E-03  4.59119399E-02
 -2.49685467E-01  4.85556778E-01 -1.27645774E-03  1.09832245E-03 -5.97074494E-03
  1.16174607E-02 -1.46844652E-03 -1.74819085E-04  9.81920220E-04 -1.82516279E-03