opt=Tight                                                               
Freq      RMP2-FC                                                     6-31G(d)            
Number of atoms                            I               20
Info1-9                                    I   N=           9
          29          29        1002           0           0         100
           6           2           1
Charge                                     I                0
Multiplicity                               I                1
Number of electrons                        I               64
Number of alpha electrons                  I               32
Number of beta electrons                   I               32
Number of basis functions                  I              144
Number of independent functions            I              144
Number of point charges in /Mol/           I                0
Number of translation vectors              I                0
Atomic numbers                             I   N=          20
           8           8           6           6           6           6
           6           6           1           1           1           1
           1           1           1           1           1           1
           1           1
Nuclear charges                            R   N=          20
  8.00000000E+00  8.00000000E+00  6.00000000E+00  6.00000000E+00  6.00000000E+00
  6.00000000E+00  6.00000000E+00  6.00000000E+00  1.00000000E+00  1.00000000E+00
  1.00000000E+00  1.00000000E+00  1.00000000E+00  1.00000000E+00  1.00000000E+00
  1.00000000E+00  1.00000000E+00  1.00000000E+00  1.00000000E+00  1.00000000E+00
Current cartesian coordinates              R   N=          60
  7.35407712E-01 -1.07570581E+00  3.97437752E-01 -1.54723028E+00  2.05217833E+00
 -1.49324458E+00  3.06164924E+00  1.07075662E-01 -4.86795342E-01  3.77314058E+00
  2.23694630E+00  1.29656567E+00  4.99634330E+00 -2.00105935E+00 -5.77674161E-01
 -3.69644605E+00 -1.30564580E+00  7.86133630E-01 -1.44491484E+00  1.12005958E-01
 -2.47597587E-01 -6.19143256E+00 -6.11496479E-02  7.95688086E-02  2.70091942E+00
  8.60295932E-01 -2.37759484E+00  5.55794912E+00  3.09798490E+00  7.05170204E-01
  2.31258070E+00  3.69349051E+00  1.29325865E+00  3.99962048E+00  1.50111907E+00
  3.21461312E+00  6.80550852E+00 -1.27375100E+00 -1.26384884E+00  4.36885785E+00
 -3.50948221E+00 -1.83985248E+00  5.27706401E+00 -2.79389773E+00  1.30946683E+00
 -3.59022454E+00 -3.25144578E+00  8.66798480E-02 -3.46536089E+00 -1.43296988E+00
  2.84007507E+00 -6.40739802E+00  3.41227848E-02 -1.96989209E+00 -7.77533298E+00
 -1.13335002E+00  8.59575947E-01 -6.27964309E+00  1.86706454E+00  8.07585801E-01
Force Field                                I                0
Int Atom Types                             I   N=          20
           0           0           0           0           0           0
           0           0           0           0           0           0
           0           0           0           0           0           0
           0           0
MM charges                                 R   N=          20
  0.00000000E+00  0.00000000E+00  0.00000000E+00  0.00000000E+00  0.00000000E+00
  0.00000000E+00  0.00000000E+00  0.00000000E+00  0.00000000E+00  0.00000000E+00
  0.00000000E+00  0.00000000E+00  0.00000000E+00  0.00000000E+00  0.00000000E+00
  0.00000000E+00  0.00000000E+00  0.00000000E+00  0.00000000E+00  0.00000000E+00
Integer atomic weights                     I   N=          20
          16          16          12          12          12          12
          12          12           1           1           1           1
           1           1           1           1           1           1
           1           1
Real atomic weights                        R   N=          20
  1.59949146E+01  1.59949146E+01  1.20000000E+01  1.20000000E+01  1.20000000E+01
  1.20000000E+01  1.20000000E+01  1.20000000E+01  1.00782504E+00  1.00782504E+00
  1.00782504E+00  1.00782504E+00  1.00782504E+00  1.00782504E+00  1.00782504E+00
  1.00782504E+00  1.00782504E+00  1.00782504E+00  1.00782504E+00  1.00782504E+00
Atom fragment info                         I   N=          20
           0           0           0           0           0           0
           0           0           0           0           0           0
           0           0           0           0           0           0
           0           0
Atom residue num                           I   N=          20
           0           0           0           0           0           0
           0           0           0           0           0           0
           0           0           0           0           0           0
           0           0
Nuclear spins                              I   N=          20
           0           0           0           0           0           0
           0           0           1           1           1           1
           1           1           1           1           1           1
           1           1
Nuclear ZEff                               R   N=          20
 -5.60000000E+00 -5.60000000E+00 -3.60000000E+00 -3.60000000E+00 -3.60000000E+00
 -3.60000000E+00 -3.60000000E+00 -3.60000000E+00 -1.00000000E+00 -1.00000000E+00
 -1.00000000E+00 -1.00000000E+00 -1.00000000E+00 -1.00000000E+00 -1.00000000E+00
 -1.00000000E+00 -1.00000000E+00 -1.00000000E+00 -1.00000000E+00 -1.00000000E+00
Nuclear QMom                               R   N=          20
  0.00000000E+00  0.00000000E+00  0.00000000E+00  0.00000000E+00  0.00000000E+00
  0.00000000E+00  0.00000000E+00  0.00000000E+00  0.00000000E+00  0.00000000E+00
  0.00000000E+00  0.00000000E+00  0.00000000E+00  0.00000000E+00  0.00000000E+00
  0.00000000E+00  0.00000000E+00  0.00000000E+00  0.00000000E+00  0.00000000E+00
Nuclear GFac                               R   N=          20
  0.00000000E+00  0.00000000E+00  0.00000000E+00  0.00000000E+00  0.00000000E+00
  0.00000000E+00  0.00000000E+00  0.00000000E+00  2.79284600E+00  2.79284600E+00
  2.79284600E+00  2.79284600E+00  2.79284600E+00  2.79284600E+00  2.79284600E+00
  2.79284600E+00  2.79284600E+00  2.79284600E+00  2.79284600E+00  2.79284600E+00
MicOpt                                     I   N=          20
          -1          -1          -1          -1          -1          -1
          -1          -1          -1          -1          -1          -1
          -1          -1          -1          -1          -1          -1
          -1          -1
Number of contracted shells                I               56
Number of primitive shells                 I              136
Pure/Cartesian d shells                    I                1
Pure/Cartesian f shells                    I                0
Highest angular momentum                   I                2
Largest degree of contraction              I                6
Shell types                                I   N=          56
           0          -1          -1           2           0          -1
          -1           2           0          -1          -1           2
           0          -1          -1           2           0          -1
          -1           2           0          -1          -1           2
           0          -1          -1           2           0          -1
          -1           2           0           0           0           0
           0           0           0           0           0           0
           0           0           0           0           0           0
           0           0           0           0           0           0
           0           0
Number of primitives per shell             I   N=          56
           6           3           1           1           6           3
           1           1           6           3           1           1
           6           3           1           1           6           3
           1           1           6           3           1           1
           6           3           1           1           6           3
           1           1           3           1           3           1
           3           1           3           1           3           1
           3           1           3           1           3           1
           3           1           3           1           3           1
           3           1
Shell to atom map                          I   N=          56
           1           1           1           1           2           2
           2           2           3           3           3           3
           4           4           4           4           5           5
           5           5           6           6           6           6
           7           7           7           7           8           8
           8           8           9           9          10          10
          11          11          12          12          13          13
          14          14          15          15          16          16
          17          17          18          18          19          19
          20          20
Primitive exponents                        R   N=         136
  5.48467166E+03  8.25234946E+02  1.88046958E+02  5.29645000E+01  1.68975704E+01
  5.79963534E+00  1.55396162E+01  3.59993359E+00  1.01376175E+00  2.70005823E-01
  8.00000000E-01  5.48467166E+03  8.25234946E+02  1.88046958E+02  5.29645000E+01
  1.68975704E+01  5.79963534E+00  1.55396162E+01  3.59993359E+00  1.01376175E+00
  2.70005823E-01  8.00000000E-01  3.04752488E+03  4.57369518E+02  1.03948685E+02
  2.92101553E+01  9.28666296E+00  3.16392696E+00  7.86827235E+00  1.88128854E+00
  5.44249258E-01  1.68714478E-01  8.00000000E-01  3.04752488E+03  4.57369518E+02
  1.03948685E+02  2.92101553E+01  9.28666296E+00  3.16392696E+00  7.86827235E+00
  1.88128854E+00  5.44249258E-01  1.68714478E-01  8.00000000E-01  3.04752488E+03
  4.57369518E+02  1.03948685E+02  2.92101553E+01  9.28666296E+00  3.16392696E+00
  7.86827235E+00  1.88128854E+00  5.44249258E-01  1.68714478E-01  8.00000000E-01
  3.04752488E+03  4.57369518E+02  1.03948685E+02  2.92101553E+01  9.28666296E+00
  3.16392696E+00  7.86827235E+00  1.88128854E+00  5.44249258E-01  1.68714478E-01
  8.00000000E-01  3.04752488E+03  4.57369518E+02  1.03948685E+02  2.92101553E+01
  9.28666296E+00  3.16392696E+00  7.86827235E+00  1.88128854E+00  5.44249258E-01
  1.68714478E-01  8.00000000E-01  3.04752488E+03  4.57369518E+02  1.03948685E+02
  2.92101553E+01  9.28666296E+00  3.16392696E+00  7.86827235E+00  1.88128854E+00
  5.44249258E-01  1.68714478E-01  8.00000000E-01  1.87311370E+01  2.82539436E+00
  6.40121692E-01  1.61277759E-01  1.87311370E+01  2.82539436E+00  6.40121692E-01
  1.61277759E-01  1.87311370E+01  2.82539436E+00  6.40121692E-01  1.61277759E-01
  1.87311370E+01  2.82539436E+00  6.40121692E-01  1.61277759E-01  1.87311370E+01
  2.82539436E+00  6.40121692E-01  1.61277759E-01  1.87311370E+01  2.82539436E+00
  6.40121692E-01  1.61277759E-01  1.87311370E+01  2.82539436E+00  6.40121692E-01
  1.61277759E-01  1.87311370E+01  2.82539436E+00  6.40121692E-01  1.61277759E-01
  1.87311370E+01  2.82539436E+00  6.40121692E-01  1.61277759E-01  1.87311370E+01
  2.82539436E+00  6.40121692E-01  1.61277759E-01  1.87311370E+01  2.82539436E+00
  6.40121692E-01  1.61277759E-01  1.87311370E+01  2.82539436E+00  6.40121692E-01
  1.61277759E-01
Contraction coefficients                   R   N=         136
  1.83107443E-03  1.39501722E-02  6.84450781E-02  2.32714336E-01  4.70192898E-01
  3.58520853E-01 -1.10777550E-01 -1.48026263E-01  1.13076702E+00  1.00000000E+00
  1.00000000E+00  1.83107443E-03  1.39501722E-02  6.84450781E-02  2.32714336E-01
  4.70192898E-01  3.58520853E-01 -1.10777550E-01 -1.48026263E-01  1.13076702E+00
  1.00000000E+00  1.00000000E+00  1.83473713E-03  1.40373228E-02  6.88426223E-02
  2.32184443E-01  4.67941348E-01  3.62311985E-01 -1.19332420E-01 -1.60854152E-01
  1.14345644E+00  1.00000000E+00  1.00000000E+00  1.83473713E-03  1.40373228E-02
  6.88426223E-02  2.32184443E-01  4.67941348E-01  3.62311985E-01 -1.19332420E-01
 -1.60854152E-01  1.14345644E+00  1.00000000E+00  1.00000000E+00  1.83473713E-03
  1.40373228E-02  6.88426223E-02  2.32184443E-01  4.67941348E-01  3.62311985E-01
 -1.19332420E-01 -1.60854152E-01  1.14345644E+00  1.00000000E+00  1.00000000E+00
  1.83473713E-03  1.40373228E-02  6.88426223E-02  2.32184443E-01  4.67941348E-01
  3.62311985E-01 -1.19332420E-01 -1.60854152E-01  1.14345644E+00  1.00000000E+00
  1.00000000E+00  1.83473713E-03  1.40373228E-02  6.88426223E-02  2.32184443E-01
  4.67941348E-01  3.62311985E-01 -1.19332420E-01 -1.60854152E-01  1.14345644E+00
  1.00000000E+00  1.00000000E+00  1.83473713E-03  1.40373228E-02  6.88426223E-02
  2.32184443E-01  4.67941348E-01  3.62311985E-01 -1.19332420E-01 -1.60854152E-01
  1.14345644E+00  1.00000000E+00  1.00000000E+00  3.34946043E-02  2.34726953E-01
  8.13757326E-01  1.00000000E+00  3.34946043E-02  2.34726953E-01  8.13757326E-01
  1.00000000E+00  3.34946043E-02  2.34726953E-01  8.13757326E-01  1.00000000E+00
  3.34946043E-02  2.34726953E-01  8.13757326E-01  1.00000000E+00  3.34946043E-02
  2.34726953E-01  8.13757326E-01  1.00000000E+00  3.34946043E-02  2.34726953E-01
  8.13757326E-01  1.00000000E+00  3.34946043E-02  2.34726953E-01  8.13757326E-01
  1.00000000E+00  3.34946043E-02  2.34726953E-01  8.13757326E-01  1.00000000E+00
  3.34946043E-02  2.34726953E-01  8.13757326E-01  1.00000000E+00  3.34946043E-02
  2.34726953E-01  8.13757326E-01  1.00000000E+00  3.34946043E-02  2.34726953E-01
  8.13757326E-01  1.00000000E+00  3.34946043E-02  2.34726953E-01  8.13757326E-01
  1.00000000E+00
P(S=P) Contraction coefficients            R   N=         136
  0.00000000E+00  0.00000000E+00  0.00000000E+00  0.00000000E+00  0.00000000E+00
  0.00000000E+00  7.08742682E-02  3.39752839E-01  7.27158577E-01  1.00000000E+00
  0.00000000E+00  0.00000000E+00  0.00000000E+00  0.00000000E+00  0.00000000E+00
  0.00000000E+00  0.00000000E+00  7.08742682E-02  3.39752839E-01  7.27158577E-01
  1.00000000E+00  0.00000000E+00  0.00000000E+00  0.00000000E+00  0.00000000E+00
  0.00000000E+00  0.00000000E+00  0.00000000E+00  6.89990666E-02  3.16423961E-01
  7.44308291E-01  1.00000000E+00  0.00000000E+00  0.00000000E+00  0.00000000E+00
  0.00000000E+00  0.00000000E+00  0.00000000E+00  0.00000000E+00  6.89990666E-02
  3.16423961E-01  7.44308291E-01  1.00000000E+00  0.00000000E+00  0.00000000E+00
  0.00000000E+00  0.00000000E+00  0.00000000E+00  0.00000000E+00  0.00000000E+00
  6.89990666E-02  3.16423961E-01  7.44308291E-01  1.00000000E+00  0.00000000E+00
  0.00000000E+00  0.00000000E+00  0.00000000E+00  0.00000000E+00  0.00000000E+00
  0.00000000E+00  6.89990666E-02  3.16423961E-01  7.44308291E-01  1.00000000E+00
  0.00000000E+00  0.00000000E+00  0.00000000E+00  0.00000000E+00  0.00000000E+00
  0.00000000E+00  0.00000000E+00  6.89990666E-02  3.16423961E-01  7.44308291E-01
  1.00000000E+00  0.00000000E+00  0.00000000E+00  0.00000000E+00  0.00000000E+00
  0.00000000E+00  0.00000000E+00  0.00000000E+00  6.89990666E-02  3.16423961E-01
  7.44308291E-01  1.00000000E+00  0.00000000E+00  0.00000000E+00  0.00000000E+00
  0.00000000E+00  0.00000000E+00  0.00000000E+00  0.00000000E+00  0.00000000E+00
  0.00000000E+00  0.00000000E+00  0.00000000E+00  0.00000000E+00  0.00000000E+00
  0.00000000E+00  0.00000000E+00  0.00000000E+00  0.00000000E+00  0.00000000E+00
  0.00000000E+00  0.00000000E+00  0.00000000E+00  0.00000000E+00  0.00000000E+00
  0.00000000E+00  0.00000000E+00  0.00000000E+00  0.00000000E+00  0.00000000E+00
  0.00000000E+00  0.00000000E+00  0.00000000E+00  0.00000000E+00  0.00000000E+00
  0.00000000E+00  0.00000000E+00  0.00000000E+00  0.00000000E+00  0.00000000E+00
  0.00000000E+00  0.00000000E+00  0.00000000E+00  0.00000000E+00  0.00000000E+00
  0.00000000E+00  0.00000000E+00  0.00000000E+00  0.00000000E+00  0.00000000E+00
  0.00000000E+00
Coordinates of each shell                  R   N=         168
  7.35407776E-01 -1.07570579E+00  3.97437929E-01  7.35407776E-01 -1.07570579E+00
  3.97437929E-01  7.35407776E-01 -1.07570579E+00  3.97437929E-01  7.35407776E-01
 -1.07570579E+00  3.97437929E-01 -1.54723032E+00  2.05217828E+00 -1.49324441E+00
 -1.54723032E+00  2.05217828E+00 -1.49324441E+00 -1.54723032E+00  2.05217828E+00
 -1.49324441E+00 -1.54723032E+00  2.05217828E+00 -1.49324441E+00  3.06164927E+00
  1.07075761E-01 -4.86795164E-01  3.06164927E+00  1.07075761E-01 -4.86795164E-01
  3.06164927E+00  1.07075761E-01 -4.86795164E-01  3.06164927E+00  1.07075761E-01
 -4.86795164E-01  3.77314054E+00  2.23694642E+00  1.29656584E+00  3.77314054E+00
  2.23694642E+00  1.29656584E+00  3.77314054E+00  2.23694642E+00  1.29656584E+00
  3.77314054E+00  2.23694642E+00  1.29656584E+00  4.99634339E+00 -2.00105919E+00
 -5.77673984E-01  4.99634339E+00 -2.00105919E+00 -5.77673984E-01  4.99634339E+00
 -2.00105919E+00 -5.77673984E-01  4.99634339E+00 -2.00105919E+00 -5.77673984E-01
 -3.69644597E+00 -1.30564592E+00  7.86133807E-01 -3.69644597E+00 -1.30564592E+00
  7.86133807E-01 -3.69644597E+00 -1.30564592E+00  7.86133807E-01 -3.69644597E+00
 -1.30564592E+00  7.86133807E-01 -1.44491481E+00  1.12005911E-01 -2.47597410E-01
 -1.44491481E+00  1.12005911E-01 -2.47597410E-01 -1.44491481E+00  1.12005911E-01
 -2.47597410E-01 -1.44491481E+00  1.12005911E-01 -2.47597410E-01 -6.19143253E+00
 -6.11498471E-02  7.95689857E-02 -6.19143253E+00 -6.11498471E-02  7.95689857E-02
 -6.19143253E+00 -6.11498471E-02  7.95689857E-02 -6.19143253E+00 -6.11498471E-02
  7.95689857E-02  2.70091942E+00  8.60296019E-01 -2.37759466E+00  2.70091942E+00
  8.60296019E-01 -2.37759466E+00  5.55794905E+00  3.09798508E+00  7.05170381E-01
  5.55794905E+00  3.09798508E+00  7.05170381E-01  2.31258061E+00  3.69349059E+00
  1.29325882E+00  2.31258061E+00  3.69349059E+00  1.29325882E+00  3.99962046E+00
  1.50111920E+00  3.21461330E+00  3.99962046E+00  1.50111920E+00  3.21461330E+00
  6.80550859E+00 -1.27375078E+00 -1.26384866E+00  6.80550859E+00 -1.27375078E+00
 -1.26384866E+00  4.36885799E+00 -3.50948207E+00 -1.83985230E+00  4.36885799E+00
 -3.50948207E+00 -1.83985230E+00  5.27706412E+00 -2.79389756E+00  1.30946700E+00
  5.27706412E+00 -2.79389756E+00  1.30946700E+00 -3.59022441E+00 -3.25144589E+00
  8.66800252E-02 -3.59022441E+00 -3.25144589E+00  8.66800252E-02 -3.46536081E+00
 -1.43296999E+00  2.84007525E+00 -3.46536081E+00 -1.43296999E+00  2.84007525E+00
 -6.40739799E+00  3.41225786E-02 -1.96989192E+00 -6.40739799E+00  3.41225786E-02
 -1.96989192E+00 -7.77533291E+00 -1.13335027E+00  8.59576124E-01 -7.77533291E+00
 -1.13335027E+00  8.59576124E-01 -6.27964312E+00  1.86706434E+00  8.07585978E-01
 -6.27964312E+00  1.86706434E+00  8.07585978E-01
Constraint Structure                       R   N=          60
  7.35407776E-01 -1.07570579E+00  3.97437929E-01 -1.54723032E+00  2.05217828E+00
 -1.49324441E+00  3.06164927E+00  1.07075761E-01 -4.86795164E-01  3.77314054E+00
  2.23694642E+00  1.29656584E+00  4.99634339E+00 -2.00105919E+00 -5.77673984E-01
 -3.69644597E+00 -1.30564592E+00  7.86133807E-01 -1.44491481E+00  1.12005911E-01
 -2.47597410E-01 -6.19143253E+00 -6.11498471E-02  7.95689857E-02  2.70091942E+00
  8.60296019E-01 -2.37759466E+00  5.55794905E+00  3.09798508E+00  7.05170381E-01
  2.31258061E+00  3.69349059E+00  1.29325882E+00  3.99962046E+00  1.50111920E+00
  3.21461330E+00  6.80550859E+00 -1.27375078E+00 -1.26384866E+00  4.36885799E+00
 -3.50948207E+00 -1.83985230E+00  5.27706412E+00 -2.79389756E+00  1.30946700E+00
 -3.59022441E+00 -3.25144589E+00  8.66800252E-02 -3.46536081E+00 -1.43296999E+00
  2.84007525E+00 -6.40739799E+00  3.41225786E-02 -1.96989192E+00 -7.77533291E+00
 -1.13335027E+00  8.59576124E-01 -6.27964312E+00  1.86706434E+00  8.07585978E-01
Num ILSW                                   I              100
ILSW                                       I   N=         100
           0           1           0           0           2           0
           0           0           0           0           0          -1
           0           0           0           0           0           0
           0           0           0           0           1           0
           1           0           0           0           0           0
           0           0      100000           0          -1           0
           0           0           0           0           0           0
           0           0           0           1           1           0
           0           0           1           0           0           0
           0           0           4          40           0           0
           0           0           0           0           0           0
           0           0           0           0           0           0
           0           0           0           0           0           0
           0           0           0           0           0           0
           0           0           0           0           0           0
           0           0           0           0           0           0
           0           0           0           0
Num RLSW                                   I               40
RLSW                                       R   N=          40
  1.00000000E+00  1.00000000E+00  1.00000000E+00  1.00000000E+00  1.00000000E+00
  0.00000000E+00  0.00000000E+00  1.00000000E+00  0.00000000E+00  0.00000000E+00
  0.00000000E+00  0.00000000E+00  1.00000000E+00  0.00000000E+00  0.00000000E+00
  0.00000000E+00  0.00000000E+00  1.00000000E+00  0.00000000E+00  0.00000000E+00
  0.00000000E+00  0.00000000E+00  1.00000000E+00  0.00000000E+00  0.00000000E+00
  0.00000000E+00  0.00000000E+00  1.00000000E+00  0.00000000E+00  0.00000000E+00
  0.00000000E+00  0.00000000E+00  0.00000000E+00  0.00000000E+00  0.00000000E+00
  0.00000000E+00  0.00000000E+00  0.00000000E+00  1.00000000E+00  1.00000000E+00
MxBond                                     I                4
NBond                                      I   N=          20
           2           1           4           4           4           4
           3           4           1           1           1           1
           1           1           1           1           1           1
           1           1
IBond                                      I   N=          80
           3           7           0           0           7           0
           0           0           1           4           5           9
           3          10          11          12           3          13
          14          15           7           8          16          17
           1           2           6           0           6          18
          19          20           3           0           0           0
           4           0           0           0           4           0
           0           0           4           0           0           0
           5           0           0           0           5           0
           0           0           5           0           0           0
           6           0           0           0           6           0
           0           0           8           0           0           0
           8           0           0           0           8           0
           0           0
RBond                                      R   N=          80
  1.00000000E+00  1.50000000E+00  0.00000000E+00  0.00000000E+00  2.00000000E+00
  0.00000000E+00  0.00000000E+00  0.00000000E+00  1.00000000E+00  1.00000000E+00
  1.00000000E+00  1.00000000E+00  1.00000000E+00  1.00000000E+00  1.00000000E+00
  1.00000000E+00  1.00000000E+00  1.00000000E+00  1.00000000E+00  1.00000000E+00
  1.00000000E+00  1.00000000E+00  1.00000000E+00  1.00000000E+00  1.50000000E+00
  2.00000000E+00  1.00000000E+00  0.00000000E+00  1.00000000E+00  1.00000000E+00
  1.00000000E+00  1.00000000E+00  1.00000000E+00  0.00000000E+00  0.00000000E+00
  0.00000000E+00  1.00000000E+00  0.00000000E+00  0.00000000E+00  0.00000000E+00
  1.00000000E+00  0.00000000E+00  0.00000000E+00  0.00000000E+00  1.00000000E+00
  0.00000000E+00  0.00000000E+00  0.00000000E+00  1.00000000E+00  0.00000000E+00
  0.00000000E+00  0.00000000E+00  1.00000000E+00  0.00000000E+00  0.00000000E+00
  0.00000000E+00  1.00000000E+00  0.00000000E+00  0.00000000E+00  0.00000000E+00
  1.00000000E+00  0.00000000E+00  0.00000000E+00  0.00000000E+00  1.00000000E+00
  0.00000000E+00  0.00000000E+00  0.00000000E+00  1.00000000E+00  0.00000000E+00
  0.00000000E+00  0.00000000E+00  1.00000000E+00  0.00000000E+00  0.00000000E+00
  0.00000000E+00  1.00000000E+00  0.00000000E+00  0.00000000E+00  0.00000000E+00
Virial Ratio                               R      2.002252084758710E+00
SCF Energy                                 R     -3.839464355950464E+02
MP2 Energy                                 R     -3.850829885895857E+02
Total Energy                               R     -3.850829885895857E+02
Post-SCF wavefunction norm                 R      1.648244689729478E+00
RMS Force                                  R      2.606870787435590E-07
RMS Density                                R      1.671974803511667E-09
External E-field                           R   N=          35
  0.00000000E+00  0.00000000E+00  0.00000000E+00  0.00000000E+00  0.00000000E+00
  0.00000000E+00  0.00000000E+00  0.00000000E+00  0.00000000E+00  0.00000000E+00
  0.00000000E+00  0.00000000E+00  0.00000000E+00  0.00000000E+00  0.00000000E+00
  0.00000000E+00  0.00000000E+00  0.00000000E+00  0.00000000E+00  0.00000000E+00
  0.00000000E+00  0.00000000E+00  0.00000000E+00  0.00000000E+00  0.00000000E+00
  0.00000000E+00  0.00000000E+00  0.00000000E+00  0.00000000E+00  0.00000000E+00
  0.00000000E+00  0.00000000E+00  0.00000000E+00  0.00000000E+00  0.00000000E+00
IOpCl                                      I                0
IROHF                                      I                0
Alpha Orbital Energies                     R   N=         144
 -2.06004505E+01 -2.05487646E+01 -1.13805046E+01 -1.12907236E+01 -1.12427514E+01
 -1.12218856E+01 -1.12193853E+01 -1.12175423E+01 -1.44482003E+00 -1.34658824E+00
 -1.07947870E+00 -1.04422539E+00 -9.44603270E-01 -9.02113151E-01 -8.14484761E-01
 -7.58036099E-01 -6.94820250E-01 -6.64419481E-01 -6.52058861E-01 -6.20927570E-01
 -6.01283205E-01 -5.70751731E-01 -5.57988747E-01 -5.48531504E-01 -5.35555422E-01
 -5.19161682E-01 -5.07719010E-01 -5.06116862E-01 -4.92049580E-01 -4.79585154E-01
 -4.46278925E-01 -4.34753239E-01  1.86054218E-01  2.30790234E-01  2.46570412E-01
  2.80071030E-01  2.88750450E-01  2.96981314E-01  3.02898299E-01  3.07817924E-01
  3.18842860E-01  3.25253127E-01  3.44734728E-01  3.46972330E-01  3.55077110E-01
  3.60308428E-01  3.92008650E-01  4.17158859E-01  4.35018086E-01  4.48653325E-01
  5.00692673E-01  5.54172136E-01  6.94594774E-01  7.13155284E-01  7.30313555E-01
  7.40138601E-01  7.49459814E-01  7.75013943E-01  7.89698468E-01  8.19756940E-01
  8.47246450E-01  8.91935040E-01  9.02202122E-01  9.17583833E-01  9.45262567E-01
  9.67162247E-01  9.73893231E-01  9.93901355E-01  1.02074190E+00  1.04629662E+00
  1.09287502E+00  1.10997167E+00  1.12238430E+00  1.14892252E+00  1.15811760E+00
  1.16056279E+00  1.17239042E+00  1.17603016E+00  1.18631811E+00  1.20304605E+00
  1.21087476E+00  1.21892319E+00  1.23428688E+00  1.24127665E+00  1.25303077E+00
  1.32874674E+00  1.34864854E+00  1.40188636E+00  1.42702465E+00  1.46328572E+00
  1.60552298E+00  1.62850071E+00  1.67587384E+00  1.69213869E+00  1.76159287E+00
  1.77105091E+00  1.79618872E+00  1.83950433E+00  1.89459257E+00  1.97558338E+00
  2.05079269E+00  2.07232787E+00  2.08365576E+00  2.10599953E+00  2.12980380E+00
  2.15055945E+00  2.18679634E+00  2.20342306E+00  2.26692761E+00  2.27863192E+00
  2.29485968E+00  2.31835070E+00  2.33363652E+00  2.36143632E+00  2.42622302E+00
  2.45993734E+00  2.49697431E+00  2.52568893E+00  2.56937047E+00  2.58991011E+00
  2.59505708E+00  2.64810085E+00  2.65884042E+00  2.73944015E+00  2.75547922E+00
  2.79066680E+00  2.84098105E+00  2.87154985E+00  2.90569856E+00  3.02128117E+00
  3.06725597E+00  3.09116335E+00  3.14018858E+00  3.32279193E+00  3.43681874E+00
  3.52387744E+00  4.41303144E+00  4.54750796E+00  4.58656023E+00  4.65663589E+00
  4.72474541E+00  4.75933857E+00  4.92348364E+00  4.99222636E+00
Alpha MO coefficients                      R   N=       20736
  9.94651317E-01  2.12514011E-02 -1.49963296E-04  1.00589040E-03 -6.26906732E-04
  3.64821893E-03 -8.70709569E-05 -6.82480704E-04  4.14295127E-04 -4.19358705E-03
 -4.01742027E-03 -3.96247833E-03 -3.33715122E-05  3.31063881E-05  8.77046865E-05
 -3.05498222E-04  4.52092684E-05 -2.19695355E-05  2.25844173E-05 -1.16869968E-05
 -3.26796336E-04 -1.00612045E-04  7.98507761E-05 -6.03394940E-05  1.34928474E-05
 -9.23467596E-07  1.00824027E-05  6.25479107E-05 -4.03422915E-05  1.17597880E-05
 -2.95845259E-05  6.54331444E-05 -2.98267804E-04 -1.70389710E-04  1.28492513E-04
  5.93029800E-04 -1.28802587E-04  7.56293799E-05 -1.85919736E-06  1.21996864E-04
 -1.69337151E-06 -2.57533711E-05  8.50815866E-05 -7.19370912E-05 -2.02642220E-05
  3.19005466E-06  5.85575243E-05  1.22766796E-05  2.12510786E-05  8.83680915E-06
 -1.73237335E-04  1.34950233E-04  8.47426864E-05  8.00326222E-05 -2.89292867E-05
 -2.96866040E-05 -1.42722731E-05 -2.98752096E-05 -1.91468527E-05 -7.95260842E-06
  1.01459199E-05  9.10784189E-05 -1.63268176E-05 -1.72006144E-05  1.11083037E-05
 -1.60072277E-04  3.15010744E-04  4.55625523E-05 -9.34945800E-05 -4.82217632E-05
  1.08515296E-05 -6.51448268E-06  2.47689862E-05  7.63750727E-06 -6.62510712E-06
 -3.04561997E-06  3.88837754E-05  1.38190446E-05 -1.20626393E-05  1.14862663E-05
  3.37513693E-04 -3.33527907E-04  1.28279295E-04 -1.03554142E-04 -7.92006375E-05
 -9.32033508E-06 -2.20301967E-05 -2.47268544E-05  1.80828505E-05 -1.38150022E-05
  2.24787906E-06  3.75443471E-04  3.13000471E-04 -1.50147825E-04  7.21662892E-05
  7.53769791E-05  1.12560172E-04  2.44556883E-04 -1.22637619E-04 -2.50697284E-05