521324                                                                  
Freq      RMP2-FC                                                     6-31G(d)            
Number of atoms                            I               18
Info1-9                                    I   N=           9
          30          28        1002           0           0         100
           6           2           1
Charge                                     I                0
Multiplicity                               I                1
Number of electrons                        I               56
Number of alpha electrons                  I               28
Number of beta electrons                   I               28
Number of basis functions                  I              127
Number of independent functions            I              127
Number of point charges in /Mol/           I                0
Number of translation vectors              I                0
Atomic numbers                             I   N=          18
           8           7           6           6           6           6
           6           1           1           1           1           1
           1           1           1           1           1           1
Nuclear charges                            R   N=          18
  8.00000000E+00  7.00000000E+00  6.00000000E+00  6.00000000E+00  6.00000000E+00
  6.00000000E+00  6.00000000E+00  1.00000000E+00  1.00000000E+00  1.00000000E+00
  1.00000000E+00  1.00000000E+00  1.00000000E+00  1.00000000E+00  1.00000000E+00
  1.00000000E+00  1.00000000E+00  1.00000000E+00
Current cartesian coordinates              R   N=          54
  6.34656076E-01  2.45012222E+00 -2.98514264E-01 -1.20105318E+00 -1.43127161E+00
 -5.99280050E-01 -3.69207177E+00 -4.06910157E-01 -1.15948336E+00  3.19154472E+00
 -1.17664520E+00  7.96161981E-01  7.87443863E-01  1.31886631E-01 -7.83073223E-02
 -5.12235794E+00  4.06061174E-01  1.20531097E+00  5.53980145E+00  2.29140923E-01
 -1.03203514E-01 -3.40617349E+00  1.21094686E+00 -2.40822344E+00 -4.74196719E+00
 -1.84597645E+00 -2.20956989E+00  3.14858934E+00 -1.22820840E+00  2.86893646E+00
  3.21511270E+00 -3.14429858E+00  1.48848480E-01 -1.04630771E+00 -3.28597337E+00
 -1.62369014E-01 -5.39833470E+00 -1.19208387E+00  2.48680983E+00 -4.05368844E+00
  1.87203599E+00  2.18827382E+00 -6.97984615E+00  1.16817624E+00  7.09202559E-01
  5.44815006E+00  2.19953665E+00  4.93882399E-01  7.25103548E+00 -6.33131675E-01
  6.68775114E-01  5.66739184E+00  1.95699849E-01 -2.16436441E+00
Force Field                                I                0
Int Atom Types                             I   N=          18
           0           0           0           0           0           0
           0           0           0           0           0           0
           0           0           0           0           0           0
MM charges                                 R   N=          18
  0.00000000E+00  0.00000000E+00  0.00000000E+00  0.00000000E+00  0.00000000E+00
  0.00000000E+00  0.00000000E+00  0.00000000E+00  0.00000000E+00  0.00000000E+00
  0.00000000E+00  0.00000000E+00  0.00000000E+00  0.00000000E+00  0.00000000E+00
  0.00000000E+00  0.00000000E+00  0.00000000E+00
Integer atomic weights                     I   N=          18
          16          14          12          12          12          12
          12           1           1           1           1           1
           1           1           1           1           1           1
Real atomic weights                        R   N=          18
  1.59949146E+01  1.40030740E+01  1.20000000E+01  1.20000000E+01  1.20000000E+01
  1.20000000E+01  1.20000000E+01  1.00782504E+00  1.00782504E+00  1.00782504E+00
  1.00782504E+00  1.00782504E+00  1.00782504E+00  1.00782504E+00  1.00782504E+00
  1.00782504E+00  1.00782504E+00  1.00782504E+00
Atom fragment info                         I   N=          18
           0           0           0           0           0           0
           0           0           0           0           0           0
           0           0           0           0           0           0
Atom residue num                           I   N=          18
           0           0           0           0           0           0
           0           0           0           0           0           0
           0           0           0           0           0           0
Nuclear spins                              I   N=          18
           0           2           0           0           0           0
           0           1           1           1           1           1
           1           1           1           1           1           1
Nuclear ZEff                               R   N=          18
 -5.60000000E+00 -4.55000000E+00 -3.60000000E+00 -3.60000000E+00 -3.60000000E+00
 -3.60000000E+00 -3.60000000E+00 -1.00000000E+00 -1.00000000E+00 -1.00000000E+00
 -1.00000000E+00 -1.00000000E+00 -1.00000000E+00 -1.00000000E+00 -1.00000000E+00
 -1.00000000E+00 -1.00000000E+00 -1.00000000E+00
Nuclear QMom                               R   N=          18
  0.00000000E+00  2.04400000E+00  0.00000000E+00  0.00000000E+00  0.00000000E+00
  0.00000000E+00  0.00000000E+00  0.00000000E+00  0.00000000E+00  0.00000000E+00
  0.00000000E+00  0.00000000E+00  0.00000000E+00  0.00000000E+00  0.00000000E+00
  0.00000000E+00  0.00000000E+00  0.00000000E+00
Nuclear GFac                               R   N=          18
  0.00000000E+00  4.03761000E-01  0.00000000E+00  0.00000000E+00  0.00000000E+00
  0.00000000E+00  0.00000000E+00  2.79284600E+00  2.79284600E+00  2.79284600E+00
  2.79284600E+00  2.79284600E+00  2.79284600E+00  2.79284600E+00  2.79284600E+00
  2.79284600E+00  2.79284600E+00  2.79284600E+00
MicOpt                                     I   N=          18
          -1          -1          -1          -1          -1          -1
          -1          -1          -1          -1          -1          -1
          -1          -1          -1          -1          -1          -1
Number of contracted shells                I               50
Number of primitive shells                 I              121
Pure/Cartesian d shells                    I                1
Pure/Cartesian f shells                    I                0
Highest angular momentum                   I                2
Largest degree of contraction              I                6
Shell types                                I   N=          50
           0          -1          -1           2           0          -1
          -1           2           0          -1          -1           2
           0          -1          -1           2           0          -1
          -1           2           0          -1          -1           2
           0          -1          -1           2           0           0
           0           0           0           0           0           0
           0           0           0           0           0           0
           0           0           0           0           0           0
           0           0
Number of primitives per shell             I   N=          50
           6           3           1           1           6           3
           1           1           6           3           1           1
           6           3           1           1           6           3
           1           1           6           3           1           1
           6           3           1           1           3           1
           3           1           3           1           3           1
           3           1           3           1           3           1
           3           1           3           1           3           1
           3           1
Shell to atom map                          I   N=          50
           1           1           1           1           2           2
           2           2           3           3           3           3
           4           4           4           4           5           5
           5           5           6           6           6           6
           7           7           7           7           8           8
           9           9          10          10          11          11
          12          12          13          13          14          14
          15          15          16          16          17          17
          18          18
Primitive exponents                        R   N=         121
  5.48467166E+03  8.25234946E+02  1.88046958E+02  5.29645000E+01  1.68975704E+01
  5.79963534E+00  1.55396162E+01  3.59993359E+00  1.01376175E+00  2.70005823E-01
  8.00000000E-01  4.17351146E+03  6.27457911E+02  1.42902093E+02  4.02343293E+01
  1.28202129E+01  4.39043701E+00  1.16263619E+01  2.71627981E+00  7.72218397E-01
  2.12031498E-01  8.00000000E-01  3.04752488E+03  4.57369518E+02  1.03948685E+02
  2.92101553E+01  9.28666296E+00  3.16392696E+00  7.86827235E+00  1.88128854E+00
  5.44249258E-01  1.68714478E-01  8.00000000E-01  3.04752488E+03  4.57369518E+02
  1.03948685E+02  2.92101553E+01  9.28666296E+00  3.16392696E+00  7.86827235E+00
  1.88128854E+00  5.44249258E-01  1.68714478E-01  8.00000000E-01  3.04752488E+03
  4.57369518E+02  1.03948685E+02  2.92101553E+01  9.28666296E+00  3.16392696E+00
  7.86827235E+00  1.88128854E+00  5.44249258E-01  1.68714478E-01  8.00000000E-01
  3.04752488E+03  4.57369518E+02  1.03948685E+02  2.92101553E+01  9.28666296E+00
  3.16392696E+00  7.86827235E+00  1.88128854E+00  5.44249258E-01  1.68714478E-01
  8.00000000E-01  3.04752488E+03  4.57369518E+02  1.03948685E+02  2.92101553E+01
  9.28666296E+00  3.16392696E+00  7.86827235E+00  1.88128854E+00  5.44249258E-01
  1.68714478E-01  8.00000000E-01  1.87311370E+01  2.82539436E+00  6.40121692E-01
  1.61277759E-01  1.87311370E+01  2.82539436E+00  6.40121692E-01  1.61277759E-01
  1.87311370E+01  2.82539436E+00  6.40121692E-01  1.61277759E-01  1.87311370E+01
  2.82539436E+00  6.40121692E-01  1.61277759E-01  1.87311370E+01  2.82539436E+00
  6.40121692E-01  1.61277759E-01  1.87311370E+01  2.82539436E+00  6.40121692E-01
  1.61277759E-01  1.87311370E+01  2.82539436E+00  6.40121692E-01  1.61277759E-01
  1.87311370E+01  2.82539436E+00  6.40121692E-01  1.61277759E-01  1.87311370E+01
  2.82539436E+00  6.40121692E-01  1.61277759E-01  1.87311370E+01  2.82539436E+00
  6.40121692E-01  1.61277759E-01  1.87311370E+01  2.82539436E+00  6.40121692E-01
  1.61277759E-01
Contraction coefficients                   R   N=         121
  1.83107443E-03  1.39501722E-02  6.84450781E-02  2.32714336E-01  4.70192898E-01
  3.58520853E-01 -1.10777550E-01 -1.48026263E-01  1.13076702E+00  1.00000000E+00
  1.00000000E+00  1.83477216E-03  1.39946270E-02  6.85865518E-02  2.32240873E-01
  4.69069948E-01  3.60455199E-01 -1.14961182E-01 -1.69117479E-01  1.14585195E+00
  1.00000000E+00  1.00000000E+00  1.83473713E-03  1.40373228E-02  6.88426223E-02
  2.32184443E-01  4.67941348E-01  3.62311985E-01 -1.19332420E-01 -1.60854152E-01
  1.14345644E+00  1.00000000E+00  1.00000000E+00  1.83473713E-03  1.40373228E-02
  6.88426223E-02  2.32184443E-01  4.67941348E-01  3.62311985E-01 -1.19332420E-01
 -1.60854152E-01  1.14345644E+00  1.00000000E+00  1.00000000E+00  1.83473713E-03
  1.40373228E-02  6.88426223E-02  2.32184443E-01  4.67941348E-01  3.62311985E-01
 -1.19332420E-01 -1.60854152E-01  1.14345644E+00  1.00000000E+00  1.00000000E+00
  1.83473713E-03  1.40373228E-02  6.88426223E-02  2.32184443E-01  4.67941348E-01
  3.62311985E-01 -1.19332420E-01 -1.60854152E-01  1.14345644E+00  1.00000000E+00
  1.00000000E+00  1.83473713E-03  1.40373228E-02  6.88426223E-02  2.32184443E-01
  4.67941348E-01  3.62311985E-01 -1.19332420E-01 -1.60854152E-01  1.14345644E+00
  1.00000000E+00  1.00000000E+00  3.34946043E-02  2.34726953E-01  8.13757326E-01
  1.00000000E+00  3.34946043E-02  2.34726953E-01  8.13757326E-01  1.00000000E+00
  3.34946043E-02  2.34726953E-01  8.13757326E-01  1.00000000E+00  3.34946043E-02
  2.34726953E-01  8.13757326E-01  1.00000000E+00  3.34946043E-02  2.34726953E-01
  8.13757326E-01  1.00000000E+00  3.34946043E-02  2.34726953E-01  8.13757326E-01
  1.00000000E+00  3.34946043E-02  2.34726953E-01  8.13757326E-01  1.00000000E+00
  3.34946043E-02  2.34726953E-01  8.13757326E-01  1.00000000E+00  3.34946043E-02
  2.34726953E-01  8.13757326E-01  1.00000000E+00  3.34946043E-02  2.34726953E-01
  8.13757326E-01  1.00000000E+00  3.34946043E-02  2.34726953E-01  8.13757326E-01
  1.00000000E+00
P(S=P) Contraction coefficients            R   N=         121
  0.00000000E+00  0.00000000E+00  0.00000000E+00  0.00000000E+00  0.00000000E+00
  0.00000000E+00  7.08742682E-02  3.39752839E-01  7.27158577E-01  1.00000000E+00
  0.00000000E+00  0.00000000E+00  0.00000000E+00  0.00000000E+00  0.00000000E+00
  0.00000000E+00  0.00000000E+00  6.75797439E-02  3.23907296E-01  7.40895140E-01
  1.00000000E+00  0.00000000E+00  0.00000000E+00  0.00000000E+00  0.00000000E+00
  0.00000000E+00  0.00000000E+00  0.00000000E+00  6.89990666E-02  3.16423961E-01
  7.44308291E-01  1.00000000E+00  0.00000000E+00  0.00000000E+00  0.00000000E+00
  0.00000000E+00  0.00000000E+00  0.00000000E+00  0.00000000E+00  6.89990666E-02
  3.16423961E-01  7.44308291E-01  1.00000000E+00  0.00000000E+00  0.00000000E+00
  0.00000000E+00  0.00000000E+00  0.00000000E+00  0.00000000E+00  0.00000000E+00
  6.89990666E-02  3.16423961E-01  7.44308291E-01  1.00000000E+00  0.00000000E+00
  0.00000000E+00  0.00000000E+00  0.00000000E+00  0.00000000E+00  0.00000000E+00
  0.00000000E+00  6.89990666E-02  3.16423961E-01  7.44308291E-01  1.00000000E+00
  0.00000000E+00  0.00000000E+00  0.00000000E+00  0.00000000E+00  0.00000000E+00
  0.00000000E+00  0.00000000E+00  6.89990666E-02  3.16423961E-01  7.44308291E-01
  1.00000000E+00  0.00000000E+00  0.00000000E+00  0.00000000E+00  0.00000000E+00
  0.00000000E+00  0.00000000E+00  0.00000000E+00  0.00000000E+00  0.00000000E+00
  0.00000000E+00  0.00000000E+00  0.00000000E+00  0.00000000E+00  0.00000000E+00
  0.00000000E+00  0.00000000E+00  0.00000000E+00  0.00000000E+00  0.00000000E+00
  0.00000000E+00  0.00000000E+00  0.00000000E+00  0.00000000E+00  0.00000000E+00
  0.00000000E+00  0.00000000E+00  0.00000000E+00  0.00000000E+00  0.00000000E+00
  0.00000000E+00  0.00000000E+00  0.00000000E+00  0.00000000E+00  0.00000000E+00
  0.00000000E+00  0.00000000E+00  0.00000000E+00  0.00000000E+00  0.00000000E+00
  0.00000000E+00  0.00000000E+00  0.00000000E+00  0.00000000E+00  0.00000000E+00
  0.00000000E+00
Coordinates of each shell                  R   N=         150
  6.34656076E-01  2.45012222E+00 -2.98514264E-01  6.34656076E-01  2.45012222E+00
 -2.98514264E-01  6.34656076E-01  2.45012222E+00 -2.98514264E-01  6.34656076E-01
  2.45012222E+00 -2.98514264E-01 -1.20105318E+00 -1.43127161E+00 -5.99280050E-01
 -1.20105318E+00 -1.43127161E+00 -5.99280050E-01 -1.20105318E+00 -1.43127161E+00
 -5.99280050E-01 -1.20105318E+00 -1.43127161E+00 -5.99280050E-01 -3.69207177E+00
 -4.06910157E-01 -1.15948336E+00 -3.69207177E+00 -4.06910157E-01 -1.15948336E+00
 -3.69207177E+00 -4.06910157E-01 -1.15948336E+00 -3.69207177E+00 -4.06910157E-01
 -1.15948336E+00  3.19154472E+00 -1.17664520E+00  7.96161981E-01  3.19154472E+00
 -1.17664520E+00  7.96161981E-01  3.19154472E+00 -1.17664520E+00  7.96161981E-01
  3.19154472E+00 -1.17664520E+00  7.96161981E-01  7.87443863E-01  1.31886631E-01
 -7.83073223E-02  7.87443863E-01  1.31886631E-01 -7.83073223E-02  7.87443863E-01
  1.31886631E-01 -7.83073223E-02  7.87443863E-01  1.31886631E-01 -7.83073223E-02
 -5.12235794E+00  4.06061174E-01  1.20531097E+00 -5.12235794E+00  4.06061174E-01
  1.20531097E+00 -5.12235794E+00  4.06061174E-01  1.20531097E+00 -5.12235794E+00
  4.06061174E-01  1.20531097E+00  5.53980145E+00  2.29140923E-01 -1.03203514E-01
  5.53980145E+00  2.29140923E-01 -1.03203514E-01  5.53980145E+00  2.29140923E-01
 -1.03203514E-01  5.53980145E+00  2.29140923E-01 -1.03203514E-01 -3.40617349E+00
  1.21094686E+00 -2.40822344E+00 -3.40617349E+00  1.21094686E+00 -2.40822344E+00
 -4.74196719E+00 -1.84597645E+00 -2.20956989E+00 -4.74196719E+00 -1.84597645E+00
 -2.20956989E+00  3.14858934E+00 -1.22820840E+00  2.86893646E+00  3.14858934E+00
 -1.22820840E+00  2.86893646E+00  3.21511270E+00 -3.14429858E+00  1.48848480E-01
  3.21511270E+00 -3.14429858E+00  1.48848480E-01 -1.04630771E+00 -3.28597337E+00
 -1.62369014E-01 -1.04630771E+00 -3.28597337E+00 -1.62369014E-01 -5.39833470E+00
 -1.19208387E+00  2.48680983E+00 -5.39833470E+00 -1.19208387E+00  2.48680983E+00
 -4.05368844E+00  1.87203599E+00  2.18827382E+00 -4.05368844E+00  1.87203599E+00
  2.18827382E+00 -6.97984615E+00  1.16817624E+00  7.09202559E-01 -6.97984615E+00
  1.16817624E+00  7.09202559E-01  5.44815006E+00  2.19953665E+00  4.93882399E-01
  5.44815006E+00  2.19953665E+00  4.93882399E-01  7.25103548E+00 -6.33131675E-01
  6.68775114E-01  7.25103548E+00 -6.33131675E-01  6.68775114E-01  5.66739184E+00
  1.95699849E-01 -2.16436441E+00  5.66739184E+00  1.95699849E-01 -2.16436441E+00
Constraint Structure                       R   N=          54
  6.34656076E-01  2.45012222E+00 -2.98514264E-01 -1.20105318E+00 -1.43127161E+00
 -5.99280050E-01 -3.69207177E+00 -4.06910157E-01 -1.15948336E+00  3.19154472E+00
 -1.17664520E+00  7.96161981E-01  7.87443863E-01  1.31886631E-01 -7.83073223E-02
 -5.12235794E+00  4.06061174E-01  1.20531097E+00  5.53980145E+00  2.29140923E-01
 -1.03203514E-01 -3.40617349E+00  1.21094686E+00 -2.40822344E+00 -4.74196719E+00
 -1.84597645E+00 -2.20956989E+00  3.14858934E+00 -1.22820840E+00  2.86893646E+00
  3.21511270E+00 -3.14429858E+00  1.48848480E-01 -1.04630771E+00 -3.28597337E+00
 -1.62369014E-01 -5.39833470E+00 -1.19208387E+00  2.48680983E+00 -4.05368844E+00
  1.87203599E+00  2.18827382E+00 -6.97984615E+00  1.16817624E+00  7.09202559E-01
  5.44815006E+00  2.19953665E+00  4.93882399E-01  7.25103548E+00 -6.33131675E-01
  6.68775114E-01  5.66739184E+00  1.95699849E-01 -2.16436441E+00
Num ILSW                                   I              100
ILSW                                       I   N=         100
           0           1           0           0           2           0
           0           0           0           0           0          -1
           0           0           0           0           0           0
           0           0           0           0           1           0
           1           0           0           0           0           0
           0           0      100000           0          -1           0
           0           0           0           0           0           0
           0           0           0           1           1           0
           0           0           1           0           0           0
           0           0           4          40           0           0
           0           0           0           0           0           0
           0           0           0           0           0           0
           0           0           0           0           0           0
           0           0           0           0           0           0
           0           0           0           0           0           0
           0           0           0           0           0           0
           0           0           0           0
Num RLSW                                   I               40
RLSW                                       R   N=          40
  1.00000000E+00  1.00000000E+00  1.00000000E+00  1.00000000E+00  1.00000000E+00
  0.00000000E+00  0.00000000E+00  1.00000000E+00  0.00000000E+00  0.00000000E+00
  0.00000000E+00  0.00000000E+00  1.00000000E+00  0.00000000E+00  0.00000000E+00
  0.00000000E+00  0.00000000E+00  1.00000000E+00  0.00000000E+00  0.00000000E+00
  0.00000000E+00  0.00000000E+00  1.00000000E+00  0.00000000E+00  0.00000000E+00
  0.00000000E+00  0.00000000E+00  1.00000000E+00  0.00000000E+00  0.00000000E+00
  0.00000000E+00  0.00000000E+00  0.00000000E+00  0.00000000E+00  0.00000000E+00
  0.00000000E+00  0.00000000E+00  0.00000000E+00  1.00000000E+00  1.00000000E+00
MxBond                                     I                4
NBond                                      I   N=          18
           1           3           4           4           3           4
           4           1           1           1           1           1
           1           1           1           1           1           1
IBond                                      I   N=          72
           5           0           0           0           3           5
          12           0           2           6           8           9
           5           7          10          11           1           2
           4           0           3          13          14          15
           4          16          17          18           3           0
           0           0           3           0           0           0
           4           0           0           0           4           0
           0           0           2           0           0           0
           6           0           0           0           6           0
           0           0           6           0           0           0
           7           0           0           0           7           0
           0           0           7           0           0           0
RBond                                      R   N=          72
  2.00000000E+00  0.00000000E+00  0.00000000E+00  0.00000000E+00  1.00000000E+00
  1.00000000E+00  1.00000000E+00  0.00000000E+00  1.00000000E+00  1.00000000E+00
  1.00000000E+00  1.00000000E+00  1.00000000E+00  1.00000000E+00  1.00000000E+00
  1.00000000E+00  2.00000000E+00  1.00000000E+00  1.00000000E+00  0.00000000E+00
  1.00000000E+00  1.00000000E+00  1.00000000E+00  1.00000000E+00  1.00000000E+00
  1.00000000E+00  1.00000000E+00  1.00000000E+00  1.00000000E+00  0.00000000E+00
  0.00000000E+00  0.00000000E+00  1.00000000E+00  0.00000000E+00  0.00000000E+00
  0.00000000E+00  1.00000000E+00  0.00000000E+00  0.00000000E+00  0.00000000E+00
  1.00000000E+00  0.00000000E+00  0.00000000E+00  0.00000000E+00  1.00000000E+00
  0.00000000E+00  0.00000000E+00  0.00000000E+00  1.00000000E+00  0.00000000E+00
  0.00000000E+00  0.00000000E+00  1.00000000E+00  0.00000000E+00  0.00000000E+00
  0.00000000E+00  1.00000000E+00  0.00000000E+00  0.00000000E+00  0.00000000E+00
  1.00000000E+00  0.00000000E+00  0.00000000E+00  0.00000000E+00  1.00000000E+00
  0.00000000E+00  0.00000000E+00  0.00000000E+00  1.00000000E+00  0.00000000E+00
  0.00000000E+00  0.00000000E+00
Virial Ratio                               R      2.002233180633452E+00
SCF Energy                                 R     -3.250761408680074E+02
MP2 Energy                                 R     -3.260656615530086E+02
Total Energy                               R     -3.260656615530086E+02
Post-SCF wavefunction norm                 R      1.622279804229057E+00
RMS Force                                  R      6.598227317433230E-08
RMS Density                                R      1.229978381746914E-09
External E-field                           R   N=          35
  0.00000000E+00  0.00000000E+00  0.00000000E+00  0.00000000E+00  0.00000000E+00
  0.00000000E+00  0.00000000E+00  0.00000000E+00  0.00000000E+00  0.00000000E+00
  0.00000000E+00  0.00000000E+00  0.00000000E+00  0.00000000E+00  0.00000000E+00
  0.00000000E+00  0.00000000E+00  0.00000000E+00  0.00000000E+00  0.00000000E+00
  0.00000000E+00  0.00000000E+00  0.00000000E+00  0.00000000E+00  0.00000000E+00
  0.00000000E+00  0.00000000E+00  0.00000000E+00  0.00000000E+00  0.00000000E+00
  0.00000000E+00  0.00000000E+00  0.00000000E+00  0.00000000E+00  0.00000000E+00
IOpCl                                      I                0
IROHF                                      I                0
Alpha Orbital Energies                     R   N=         127
 -2.05171052E+01 -1.55852822E+01 -1.13465323E+01 -1.12613275E+01 -1.12402016E+01
 -1.12166410E+01 -1.12146584E+01 -1.36403911E+00 -1.22336725E+00 -1.05609937E+00
 -1.00807000E+00 -8.94291994E-01 -8.37401143E-01 -7.76192806E-01 -6.90420043E-01
 -6.53264262E-01 -6.19334531E-01 -6.03590794E-01 -5.89466741E-01 -5.78982616E-01
 -5.30493338E-01 -5.26199183E-01 -5.13012442E-01 -5.03423642E-01 -4.94640599E-01
 -4.80122646E-01 -4.10418020E-01 -3.82118851E-01  1.94652731E-01  2.15112319E-01
  2.56139070E-01  2.66470808E-01  2.94855888E-01  3.03364676E-01  3.07706022E-01
  3.20294994E-01  3.22109974E-01  3.31570320E-01  3.41539685E-01  3.49538258E-01
  3.93672579E-01  4.15735624E-01  4.20621226E-01  4.46447107E-01  5.21313732E-01
  5.94772343E-01  7.13710050E-01  7.27478133E-01  7.32508094E-01  7.45801031E-01
  7.54709511E-01  7.98247226E-01  8.08147069E-01  8.18434131E-01  8.57126555E-01
  9.20248662E-01  9.31360458E-01  9.41671432E-01  9.94873517E-01  1.02004339E+00
  1.04255236E+00  1.08418890E+00  1.08603051E+00  1.11290383E+00  1.12672841E+00
  1.13870717E+00  1.15828535E+00  1.16550565E+00  1.17848625E+00  1.18430125E+00
  1.19706385E+00  1.20898361E+00  1.23312050E+00  1.24025862E+00  1.25573655E+00
  1.28722737E+00  1.29896905E+00  1.37630092E+00  1.44790005E+00  1.48874033E+00
  1.53371996E+00  1.62312100E+00  1.67087205E+00  1.69140114E+00  1.72234800E+00
  1.78875293E+00  1.85883753E+00  1.88540309E+00  2.01564303E+00  2.05538707E+00
  2.08969980E+00  2.11448053E+00  2.12118814E+00  2.15592931E+00  2.21004993E+00
  2.24587205E+00  2.25903617E+00  2.28634437E+00  2.32128103E+00  2.33153621E+00
  2.34662051E+00  2.40499584E+00  2.52384830E+00  2.56566666E+00  2.59170619E+00
  2.61341785E+00  2.65388945E+00  2.67634365E+00  2.69099678E+00  2.72941279E+00
  2.74494565E+00  2.81599972E+00  2.84109852E+00  2.95683271E+00  2.96495155E+00
  3.03012740E+00  3.08643458E+00  3.25999148E+00  3.37525034E+00  3.50871220E+00
  4.39630853E+00  4.50739443E+00  4.58941435E+00  4.63723647E+00  4.78811463E+00
  4.85857247E+00  4.96339009E+00
Alpha MO coefficients                      R   N=       16129
  9.94692934E-01  2.09884680E-02  7.60997219E-05 -1.51358222E-03  1.38405304E-04
  4.34098761E-03 -2.27068360E-05  1.21593836E-04 -1.92620371E-05 -3.90735369E-03
 -3.67349452E-03 -4.08379629E-03 -1.45915942E-05  6.21361081E-05 -4.25427941E-05
 -8.66358172E-06 -4.15574530E-05 -2.45044479E-06 -3.94576508E-05  2.98888795E-07
  1.59162708E-04 -2.31235378E-05  1.08610603E-04  1.42941443E-06  6.85803322E-05
 -8.70389500E-05 -4.08300879E-05 -2.24121788E-05  4.01053202E-05 -2.27864064E-07
 -2.37951971E-06  1.17226329E-05 -1.68413386E-05  2.01597279E-05  6.41367478E-06
  1.34720695E-05 -8.92589587E-05 -3.71761051E-05 -7.21973779E-05 -3.64836820E-05
 -1.31824984E-05 -7.54176568E-06  1.63133261E-05 -6.03447630E-06  5.85502836E-06
 -3.25285740E-06 -3.41512980E-06  7.07596889E-06 -2.37198075E-05  5.22725111E-06
  1.33070476E-06  1.16114024E-04 -1.64266713E-05 -2.09499366E-05  2.26659114E-05
 -5.11124992E-05 -2.03667790E-05  3.71480813E-05  8.06208968E-06  1.15024610E-05
 -3.69902204E-06  5.08182190E-04  2.20408536E-08 -8.81686021E-07 -1.33913450E-06
 -2.65980616E-04  1.36376736E-04 -3.84260434E-04  8.09826262E-05 -5.81209759E-05
 -7.31217315E-04 -5.78605988E-05  3.86118292E-05 -2.31246484E-06  6.89314664E-05
 -2.28611258E-06 -1.34489473E-05  6.36014618E-06 -6.95686912E-06 -8.37083782E-06
  1.03756559E-04  2.67902063E-05  5.55974754E-05  3.03626453E-05  3.25603327E-06
 -2.47039815E-06 -5.00546277E-06  1.77954519E-06 -2.24797330E-06 -5.11178865E-06
  3.07980603E-06  1.56423467E-05 -1.44819612E-05  3.35661287E-06 -1.26985405E-05
 -3.44766957E-05  1.08628724E-04  4.55492905E-05  4.01121056E-05  1.79726285E-08
 -1.53511894E-06  1.47806547E-06 -6.42009236E-06  7.52498178E-06  4.59353513E-06
  2.80105294E-05 -8.84405305E-05 -1.47958036E-05 -4.64924301E-05  1.34097488E-05
 -1.88506881E-05  1.08285176E-06 -3.90548338E-05  2.81961838E-05 -5.54930035E-06
 -4.03165923E-06  8.16823375E-06  2.00945182E-05 -1.17640910E-04 -5.82025649E-06
 -9.14862299E-06  2.88702914E-05 -1.09588037E-04 -6.95955855E-06 -4.82174708E-05
  1.41525470E-05  1.85141598E-05 -1.27862544E-05 -9.83104625E-05 -5.91769433E-06
  1.99558023E-05 -3.21020881E-06  5.29790858E-04  3.26425656E-04 -1.06750636E-04
  8.95407238E-05 -4.06010334E-05 -3.06983706E-05 -8.24741543E-05 -7.54356077E-05
  2.52892986E-05 -2.31759088E-05  9.94968844E-01  2.53115129E-02 -6.17830842E-07
  5.64278170E-05  3.46668814E-04 -3.55472125E-03 -3.08679890E-04 -7.90806806E-04
 -3.42118141E-04 -3.46722662E-03 -3.44802658E-03 -3.30940740E-03  2.86849468E-05
 -5.01651390E-05  1.30111092E-05 -3.31299984E-06  1.57283031E-04  2.60183846E-04
 -9.71249277E-05  6.50461524E-05  1.03221584E-03  4.24052190E-04 -1.78319405E-05
  2.79242487E-05 -5.30539797E-05 -1.04679457E-04 -5.19960866E-05  1.53272157E-05
  3.90499346E-06 -4.62824453E-06 -6.79529988E-06 -1.73302211E-05  2.33199342E-05
 -9.67339864E-06 -1.02905181E-05  1.12611611E-04  2.34864890E-04  3.56729598E-04
  1.87581947E-04 -6.89578538E-05  2.25551831E-05 -3.21855227E-05 -1.97016253E-05
 -1.56601445E-05 -2.04369965E-05  1.72716094E-05  1.69313546E-04 -1.62612831E-04
 -1.21953141E-04 -4.23976179E-05  1.59574338E-03 -1.30384098E-03 -1.18611374E-03
 -2.45370773E-04 -5.43557919E-05 -1.36185204E-04 -6.56455647E-05 -4.95812216E-05
 -3.98589294E-06 -1.02599162E-05 -1.88979262E-05 -5.99653280E-05 -7.29852029E-05
  4.05323008E-05  1.93737455E-05  1.93678109E-04  1.37251249E-04 -1.15540970E-04
  7.32346363E-05 -5.65849253E-05 -4.77134258E-05 -3.94059787E-05 -5.08913453E-06
  9.10015135E-06 -9.62059180E-07 -9.97563146E-06 -4.53404551E-05  2.61727599E-05
 -5.90963630E-06  7.25107190E-06  6.13478009E-07 -1.40321855E-04  8.50587141E-05
 -1.88636235E-04  2.67596273E-06 -1.23473075E-05 -2.44292943E-05  3.62298433E-06
  6.90681522E-06  9.63773438E-06 -8.76661987E-05 -1.60648691E-04 -4.82170713E-05
 -1.00914686E-04 -1.24429763E-05 -1.31222708E-04  2.77389338E-05  9.90794671E-05
  2.45020327E-04  2.91947721E-04 -3.28712166E-05 -1.07380430E-04 -1.06992891E-05