4376677                                                                 
Freq      RMP2-FC                                                     6-31G(d)            
Number of atoms                            I               16
Info1-9                                    I   N=           9
          28          26        1002           0           0         100
           6           2           1
Charge                                     I                0
Multiplicity                               I                1
Number of electrons                        I               54
Number of alpha electrons                  I               27
Number of beta electrons                   I               27
Number of basis functions                  I              123
Number of independent functions            I              123
Number of point charges in /Mol/           I                0
Number of translation vectors              I                0
Atomic numbers                             I   N=          16
           8           7           6           6           6           6
           6           1           1           1           1           1
           1           1           1           1
Nuclear charges                            R   N=          16
  8.00000000E+00  7.00000000E+00  6.00000000E+00  6.00000000E+00  6.00000000E+00
  6.00000000E+00  6.00000000E+00  1.00000000E+00  1.00000000E+00  1.00000000E+00
  1.00000000E+00  1.00000000E+00  1.00000000E+00  1.00000000E+00  1.00000000E+00
  1.00000000E+00
Current cartesian coordinates              R   N=          48
  2.29119804E+00  2.58902435E+00  2.86364693E-01  2.69758876E-01 -1.22590766E+00
  2.67700072E-01 -2.11086168E+00 -1.92425547E-01  1.02463878E+00 -3.52944676E+00
  1.38124461E+00 -8.54219261E-01 -4.44171696E+00 -1.23465496E+00 -2.22523840E-01
  2.37938373E+00  2.76841653E-01  6.40295387E-02  4.81989484E+00 -1.14338884E+00
 -4.22334904E-01 -2.25368453E+00  3.65586904E-01  2.99986491E+00 -2.62383023E+00
  1.66880027E+00 -2.66793694E+00 -4.57653343E+00  2.99351160E+00 -1.44908413E-01
 -6.13016092E+00 -1.44645101E+00  9.20634310E-01 -4.17063959E+00 -2.69912920E+00
 -1.63227096E+00  5.10101990E-01 -3.12070168E+00  3.94974063E-01  4.52397127E+00
 -2.85274121E+00 -1.54406520E+00  6.11889362E+00  1.14985622E-01 -1.40858108E+00
  5.68046630E+00 -1.68040405E+00  1.37992940E+00
Force Field                                I                0
Int Atom Types                             I   N=          16
           0           0           0           0           0           0
           0           0           0           0           0           0
           0           0           0           0
MM charges                                 R   N=          16
  0.00000000E+00  0.00000000E+00  0.00000000E+00  0.00000000E+00  0.00000000E+00
  0.00000000E+00  0.00000000E+00  0.00000000E+00  0.00000000E+00  0.00000000E+00
  0.00000000E+00  0.00000000E+00  0.00000000E+00  0.00000000E+00  0.00000000E+00
  0.00000000E+00
Integer atomic weights                     I   N=          16
          16          14          12          12          12          12
          12           1           1           1           1           1
           1           1           1           1
Real atomic weights                        R   N=          16
  1.59949146E+01  1.40030740E+01  1.20000000E+01  1.20000000E+01  1.20000000E+01
  1.20000000E+01  1.20000000E+01  1.00782504E+00  1.00782504E+00  1.00782504E+00
  1.00782504E+00  1.00782504E+00  1.00782504E+00  1.00782504E+00  1.00782504E+00
  1.00782504E+00
Atom fragment info                         I   N=          16
           0           0           0           0           0           0
           0           0           0           0           0           0
           0           0           0           0
Atom residue num                           I   N=          16
           0           0           0           0           0           0
           0           0           0           0           0           0
           0           0           0           0
Nuclear spins                              I   N=          16
           0           2           0           0           0           0
           0           1           1           1           1           1
           1           1           1           1
Nuclear ZEff                               R   N=          16
 -5.60000000E+00 -4.55000000E+00 -3.60000000E+00 -3.60000000E+00 -3.60000000E+00
 -3.60000000E+00 -3.60000000E+00 -1.00000000E+00 -1.00000000E+00 -1.00000000E+00
 -1.00000000E+00 -1.00000000E+00 -1.00000000E+00 -1.00000000E+00 -1.00000000E+00
 -1.00000000E+00
Nuclear QMom                               R   N=          16
  0.00000000E+00  2.04400000E+00  0.00000000E+00  0.00000000E+00  0.00000000E+00
  0.00000000E+00  0.00000000E+00  0.00000000E+00  0.00000000E+00  0.00000000E+00
  0.00000000E+00  0.00000000E+00  0.00000000E+00  0.00000000E+00  0.00000000E+00
  0.00000000E+00
Nuclear GFac                               R   N=          16
  0.00000000E+00  4.03761000E-01  0.00000000E+00  0.00000000E+00  0.00000000E+00
  0.00000000E+00  0.00000000E+00  2.79284600E+00  2.79284600E+00  2.79284600E+00
  2.79284600E+00  2.79284600E+00  2.79284600E+00  2.79284600E+00  2.79284600E+00
  2.79284600E+00
MicOpt                                     I   N=          16
          -1          -1          -1          -1          -1          -1
          -1          -1          -1          -1          -1          -1
          -1          -1          -1          -1
Number of contracted shells                I               46
Number of primitive shells                 I              113
Pure/Cartesian d shells                    I                1
Pure/Cartesian f shells                    I                0
Highest angular momentum                   I                2
Largest degree of contraction              I                6
Shell types                                I   N=          46
           0          -1          -1           2           0          -1
          -1           2           0          -1          -1           2
           0          -1          -1           2           0          -1
          -1           2           0          -1          -1           2
           0          -1          -1           2           0           0
           0           0           0           0           0           0
           0           0           0           0           0           0
           0           0           0           0
Number of primitives per shell             I   N=          46
           6           3           1           1           6           3
           1           1           6           3           1           1
           6           3           1           1           6           3
           1           1           6           3           1           1
           6           3           1           1           3           1
           3           1           3           1           3           1
           3           1           3           1           3           1
           3           1           3           1
Shell to atom map                          I   N=          46
           1           1           1           1           2           2
           2           2           3           3           3           3
           4           4           4           4           5           5
           5           5           6           6           6           6
           7           7           7           7           8           8
           9           9          10          10          11          11
          12          12          13          13          14          14
          15          15          16          16
Primitive exponents                        R   N=         113
  5.48467166E+03  8.25234946E+02  1.88046958E+02  5.29645000E+01  1.68975704E+01
  5.79963534E+00  1.55396162E+01  3.59993359E+00  1.01376175E+00  2.70005823E-01
  8.00000000E-01  4.17351146E+03  6.27457911E+02  1.42902093E+02  4.02343293E+01
  1.28202129E+01  4.39043701E+00  1.16263619E+01  2.71627981E+00  7.72218397E-01
  2.12031498E-01  8.00000000E-01  3.04752488E+03  4.57369518E+02  1.03948685E+02
  2.92101553E+01  9.28666296E+00  3.16392696E+00  7.86827235E+00  1.88128854E+00
  5.44249258E-01  1.68714478E-01  8.00000000E-01  3.04752488E+03  4.57369518E+02
  1.03948685E+02  2.92101553E+01  9.28666296E+00  3.16392696E+00  7.86827235E+00
  1.88128854E+00  5.44249258E-01  1.68714478E-01  8.00000000E-01  3.04752488E+03
  4.57369518E+02  1.03948685E+02  2.92101553E+01  9.28666296E+00  3.16392696E+00
  7.86827235E+00  1.88128854E+00  5.44249258E-01  1.68714478E-01  8.00000000E-01
  3.04752488E+03  4.57369518E+02  1.03948685E+02  2.92101553E+01  9.28666296E+00
  3.16392696E+00  7.86827235E+00  1.88128854E+00  5.44249258E-01  1.68714478E-01
  8.00000000E-01  3.04752488E+03  4.57369518E+02  1.03948685E+02  2.92101553E+01
  9.28666296E+00  3.16392696E+00  7.86827235E+00  1.88128854E+00  5.44249258E-01
  1.68714478E-01  8.00000000E-01  1.87311370E+01  2.82539436E+00  6.40121692E-01
  1.61277759E-01  1.87311370E+01  2.82539436E+00  6.40121692E-01  1.61277759E-01
  1.87311370E+01  2.82539436E+00  6.40121692E-01  1.61277759E-01  1.87311370E+01
  2.82539436E+00  6.40121692E-01  1.61277759E-01  1.87311370E+01  2.82539436E+00
  6.40121692E-01  1.61277759E-01  1.87311370E+01  2.82539436E+00  6.40121692E-01
  1.61277759E-01  1.87311370E+01  2.82539436E+00  6.40121692E-01  1.61277759E-01
  1.87311370E+01  2.82539436E+00  6.40121692E-01  1.61277759E-01  1.87311370E+01
  2.82539436E+00  6.40121692E-01  1.61277759E-01
Contraction coefficients                   R   N=         113
  1.83107443E-03  1.39501722E-02  6.84450781E-02  2.32714336E-01  4.70192898E-01
  3.58520853E-01 -1.10777550E-01 -1.48026263E-01  1.13076702E+00  1.00000000E+00
  1.00000000E+00  1.83477216E-03  1.39946270E-02  6.85865518E-02  2.32240873E-01
  4.69069948E-01  3.60455199E-01 -1.14961182E-01 -1.69117479E-01  1.14585195E+00
  1.00000000E+00  1.00000000E+00  1.83473713E-03  1.40373228E-02  6.88426223E-02
  2.32184443E-01  4.67941348E-01  3.62311985E-01 -1.19332420E-01 -1.60854152E-01
  1.14345644E+00  1.00000000E+00  1.00000000E+00  1.83473713E-03  1.40373228E-02
  6.88426223E-02  2.32184443E-01  4.67941348E-01  3.62311985E-01 -1.19332420E-01
 -1.60854152E-01  1.14345644E+00  1.00000000E+00  1.00000000E+00  1.83473713E-03
  1.40373228E-02  6.88426223E-02  2.32184443E-01  4.67941348E-01  3.62311985E-01
 -1.19332420E-01 -1.60854152E-01  1.14345644E+00  1.00000000E+00  1.00000000E+00
  1.83473713E-03  1.40373228E-02  6.88426223E-02  2.32184443E-01  4.67941348E-01
  3.62311985E-01 -1.19332420E-01 -1.60854152E-01  1.14345644E+00  1.00000000E+00
  1.00000000E+00  1.83473713E-03  1.40373228E-02  6.88426223E-02  2.32184443E-01
  4.67941348E-01  3.62311985E-01 -1.19332420E-01 -1.60854152E-01  1.14345644E+00
  1.00000000E+00  1.00000000E+00  3.34946043E-02  2.34726953E-01  8.13757326E-01
  1.00000000E+00  3.34946043E-02  2.34726953E-01  8.13757326E-01  1.00000000E+00
  3.34946043E-02  2.34726953E-01  8.13757326E-01  1.00000000E+00  3.34946043E-02
  2.34726953E-01  8.13757326E-01  1.00000000E+00  3.34946043E-02  2.34726953E-01
  8.13757326E-01  1.00000000E+00  3.34946043E-02  2.34726953E-01  8.13757326E-01
  1.00000000E+00  3.34946043E-02  2.34726953E-01  8.13757326E-01  1.00000000E+00
  3.34946043E-02  2.34726953E-01  8.13757326E-01  1.00000000E+00  3.34946043E-02
  2.34726953E-01  8.13757326E-01  1.00000000E+00
P(S=P) Contraction coefficients            R   N=         113
  0.00000000E+00  0.00000000E+00  0.00000000E+00  0.00000000E+00  0.00000000E+00
  0.00000000E+00  7.08742682E-02  3.39752839E-01  7.27158577E-01  1.00000000E+00
  0.00000000E+00  0.00000000E+00  0.00000000E+00  0.00000000E+00  0.00000000E+00
  0.00000000E+00  0.00000000E+00  6.75797439E-02  3.23907296E-01  7.40895140E-01
  1.00000000E+00  0.00000000E+00  0.00000000E+00  0.00000000E+00  0.00000000E+00
  0.00000000E+00  0.00000000E+00  0.00000000E+00  6.89990666E-02  3.16423961E-01
  7.44308291E-01  1.00000000E+00  0.00000000E+00  0.00000000E+00  0.00000000E+00
  0.00000000E+00  0.00000000E+00  0.00000000E+00  0.00000000E+00  6.89990666E-02
  3.16423961E-01  7.44308291E-01  1.00000000E+00  0.00000000E+00  0.00000000E+00
  0.00000000E+00  0.00000000E+00  0.00000000E+00  0.00000000E+00  0.00000000E+00
  6.89990666E-02  3.16423961E-01  7.44308291E-01  1.00000000E+00  0.00000000E+00
  0.00000000E+00  0.00000000E+00  0.00000000E+00  0.00000000E+00  0.00000000E+00
  0.00000000E+00  6.89990666E-02  3.16423961E-01  7.44308291E-01  1.00000000E+00
  0.00000000E+00  0.00000000E+00  0.00000000E+00  0.00000000E+00  0.00000000E+00
  0.00000000E+00  0.00000000E+00  6.89990666E-02  3.16423961E-01  7.44308291E-01
  1.00000000E+00  0.00000000E+00  0.00000000E+00  0.00000000E+00  0.00000000E+00
  0.00000000E+00  0.00000000E+00  0.00000000E+00  0.00000000E+00  0.00000000E+00
  0.00000000E+00  0.00000000E+00  0.00000000E+00  0.00000000E+00  0.00000000E+00
  0.00000000E+00  0.00000000E+00  0.00000000E+00  0.00000000E+00  0.00000000E+00
  0.00000000E+00  0.00000000E+00  0.00000000E+00  0.00000000E+00  0.00000000E+00
  0.00000000E+00  0.00000000E+00  0.00000000E+00  0.00000000E+00  0.00000000E+00
  0.00000000E+00  0.00000000E+00  0.00000000E+00  0.00000000E+00  0.00000000E+00
  0.00000000E+00  0.00000000E+00  0.00000000E+00
Coordinates of each shell                  R   N=         138
  2.29119804E+00  2.58902435E+00  2.86364693E-01  2.29119804E+00  2.58902435E+00
  2.86364693E-01  2.29119804E+00  2.58902435E+00  2.86364693E-01  2.29119804E+00
  2.58902435E+00  2.86364693E-01  2.69758876E-01 -1.22590766E+00  2.67700072E-01
  2.69758876E-01 -1.22590766E+00  2.67700072E-01  2.69758876E-01 -1.22590766E+00
  2.67700072E-01  2.69758876E-01 -1.22590766E+00  2.67700072E-01 -2.11086168E+00
 -1.92425547E-01  1.02463878E+00 -2.11086168E+00 -1.92425547E-01  1.02463878E+00
 -2.11086168E+00 -1.92425547E-01  1.02463878E+00 -2.11086168E+00 -1.92425547E-01
  1.02463878E+00 -3.52944676E+00  1.38124461E+00 -8.54219261E-01 -3.52944676E+00
  1.38124461E+00 -8.54219261E-01 -3.52944676E+00  1.38124461E+00 -8.54219261E-01
 -3.52944676E+00  1.38124461E+00 -8.54219261E-01 -4.44171696E+00 -1.23465496E+00
 -2.22523840E-01 -4.44171696E+00 -1.23465496E+00 -2.22523840E-01 -4.44171696E+00
 -1.23465496E+00 -2.22523840E-01 -4.44171696E+00 -1.23465496E+00 -2.22523840E-01
  2.37938373E+00  2.76841653E-01  6.40295387E-02  2.37938373E+00  2.76841653E-01
  6.40295387E-02  2.37938373E+00  2.76841653E-01  6.40295387E-02  2.37938373E+00
  2.76841653E-01  6.40295387E-02  4.81989484E+00 -1.14338884E+00 -4.22334904E-01
  4.81989484E+00 -1.14338884E+00 -4.22334904E-01  4.81989484E+00 -1.14338884E+00
 -4.22334904E-01  4.81989484E+00 -1.14338884E+00 -4.22334904E-01 -2.25368453E+00
  3.65586904E-01  2.99986491E+00 -2.25368453E+00  3.65586904E-01  2.99986491E+00
 -2.62383023E+00  1.66880027E+00 -2.66793694E+00 -2.62383023E+00  1.66880027E+00
 -2.66793694E+00 -4.57653343E+00  2.99351160E+00 -1.44908413E-01 -4.57653343E+00
  2.99351160E+00 -1.44908413E-01 -6.13016092E+00 -1.44645101E+00  9.20634310E-01
 -6.13016092E+00 -1.44645101E+00  9.20634310E-01 -4.17063959E+00 -2.69912920E+00
 -1.63227096E+00 -4.17063959E+00 -2.69912920E+00 -1.63227096E+00  5.10101990E-01
 -3.12070168E+00  3.94974063E-01  5.10101990E-01 -3.12070168E+00  3.94974063E-01
  4.52397127E+00 -2.85274121E+00 -1.54406520E+00  4.52397127E+00 -2.85274121E+00
 -1.54406520E+00  6.11889362E+00  1.14985622E-01 -1.40858108E+00  6.11889362E+00
  1.14985622E-01 -1.40858108E+00  5.68046630E+00 -1.68040405E+00  1.37992940E+00
  5.68046630E+00 -1.68040405E+00  1.37992940E+00
Constraint Structure                       R   N=          48
  2.29119804E+00  2.58902435E+00  2.86364693E-01  2.69758876E-01 -1.22590766E+00
  2.67700072E-01 -2.11086168E+00 -1.92425547E-01  1.02463878E+00 -3.52944676E+00
  1.38124461E+00 -8.54219261E-01 -4.44171696E+00 -1.23465496E+00 -2.22523840E-01
  2.37938373E+00  2.76841653E-01  6.40295387E-02  4.81989484E+00 -1.14338884E+00
 -4.22334904E-01 -2.25368453E+00  3.65586904E-01  2.99986491E+00 -2.62383023E+00
  1.66880027E+00 -2.66793694E+00 -4.57653343E+00  2.99351160E+00 -1.44908413E-01
 -6.13016092E+00 -1.44645101E+00  9.20634310E-01 -4.17063959E+00 -2.69912920E+00
 -1.63227096E+00  5.10101990E-01 -3.12070168E+00  3.94974063E-01  4.52397127E+00
 -2.85274121E+00 -1.54406520E+00  6.11889362E+00  1.14985622E-01 -1.40858108E+00
  5.68046630E+00 -1.68040405E+00  1.37992940E+00
Num ILSW                                   I              100
ILSW                                       I   N=         100
           0           1           0           0           2           0
           0           0           0           0           0          -1
           0           0           0           0           0           0
           0           0           0           0           1           0
           1           0           0           0           0           0
           0           0      100000           0          -1           0
           0           0           0           0           0           0
           0           0           0           1           1           0
           0           0           1           0           0           0
           0           0           4          40           0           0
           0           0           0           0           0           0
           0           0           0           0           0           0
           0           0           0           0           0           0
           0           0           0           0           0           0
           0           0           0           0           0           0
           0           0           0           0           0           0
           0           0           0           0
Num RLSW                                   I               40
RLSW                                       R   N=          40
  1.00000000E+00  1.00000000E+00  1.00000000E+00  1.00000000E+00  1.00000000E+00
  0.00000000E+00  0.00000000E+00  1.00000000E+00  0.00000000E+00  0.00000000E+00
  0.00000000E+00  0.00000000E+00  1.00000000E+00  0.00000000E+00  0.00000000E+00
  0.00000000E+00  0.00000000E+00  1.00000000E+00  0.00000000E+00  0.00000000E+00
  0.00000000E+00  0.00000000E+00  1.00000000E+00  0.00000000E+00  0.00000000E+00
  0.00000000E+00  0.00000000E+00  1.00000000E+00  0.00000000E+00  0.00000000E+00
  0.00000000E+00  0.00000000E+00  0.00000000E+00  0.00000000E+00  0.00000000E+00
  0.00000000E+00  0.00000000E+00  0.00000000E+00  1.00000000E+00  1.00000000E+00
MxBond                                     I                4
NBond                                      I   N=          16
           1           3           4           4           4           3
           4           1           1           1           1           1
           1           1           1           1
IBond                                      I   N=          64
           6           0           0           0           3           6
          13           0           2           4           5           8
           3           5           9          10           3           4
          11          12           1           2           7           0
           6          14          15          16           3           0
           0           0           4           0           0           0
           4           0           0           0           5           0
           0           0           5           0           0           0
           2           0           0           0           7           0
           0           0           7           0           0           0
           7           0           0           0
RBond                                      R   N=          64
  2.00000000E+00  0.00000000E+00  0.00000000E+00  0.00000000E+00  1.00000000E+00
  1.00000000E+00  1.00000000E+00  0.00000000E+00  1.00000000E+00  1.00000000E+00
  1.00000000E+00  1.00000000E+00  1.00000000E+00  1.00000000E+00  1.00000000E+00
  1.00000000E+00  1.00000000E+00  1.00000000E+00  1.00000000E+00  1.00000000E+00
  2.00000000E+00  1.00000000E+00  1.00000000E+00  0.00000000E+00  1.00000000E+00
  1.00000000E+00  1.00000000E+00  1.00000000E+00  1.00000000E+00  0.00000000E+00
  0.00000000E+00  0.00000000E+00  1.00000000E+00  0.00000000E+00  0.00000000E+00
  0.00000000E+00  1.00000000E+00  0.00000000E+00  0.00000000E+00  0.00000000E+00
  1.00000000E+00  0.00000000E+00  0.00000000E+00  0.00000000E+00  1.00000000E+00
  0.00000000E+00  0.00000000E+00  0.00000000E+00  1.00000000E+00  0.00000000E+00
  0.00000000E+00  0.00000000E+00  1.00000000E+00  0.00000000E+00  0.00000000E+00
  0.00000000E+00  1.00000000E+00  0.00000000E+00  0.00000000E+00  0.00000000E+00
  1.00000000E+00  0.00000000E+00  0.00000000E+00  0.00000000E+00
Virial Ratio                               R      2.002374952712118E+00
SCF Energy                                 R     -3.238716561584282E+02
MP2 Energy                                 R     -3.248544839288304E+02
Total Energy                               R     -3.248544839288304E+02
Post-SCF wavefunction norm                 R      1.622047081396826E+00
RMS Force                                  R      3.569695220667735E-07
RMS Density                                R      2.346193133661505E-09
External E-field                           R   N=          35
  0.00000000E+00  0.00000000E+00  0.00000000E+00  0.00000000E+00  0.00000000E+00
  0.00000000E+00  0.00000000E+00  0.00000000E+00  0.00000000E+00  0.00000000E+00
  0.00000000E+00  0.00000000E+00  0.00000000E+00  0.00000000E+00  0.00000000E+00
  0.00000000E+00  0.00000000E+00  0.00000000E+00  0.00000000E+00  0.00000000E+00
  0.00000000E+00  0.00000000E+00  0.00000000E+00  0.00000000E+00  0.00000000E+00
  0.00000000E+00  0.00000000E+00  0.00000000E+00  0.00000000E+00  0.00000000E+00
  0.00000000E+00  0.00000000E+00  0.00000000E+00  0.00000000E+00  0.00000000E+00
IOpCl                                      I                0
IROHF                                      I                0
Alpha Orbital Energies                     R   N=         123
 -2.05191710E+01 -1.55880229E+01 -1.13502237E+01 -1.12664923E+01 -1.12371162E+01
 -1.12317497E+01 -1.12247730E+01 -1.36581391E+00 -1.23557452E+00 -1.12169833E+00
 -1.00057860E+00 -8.38758274E-01 -8.28703027E-01 -7.67859706E-01 -6.99448531E-01
 -6.69521580E-01 -6.47504165E-01 -6.05937134E-01 -5.89489169E-01 -5.68111382E-01
 -5.44012067E-01 -5.17712486E-01 -5.12257612E-01 -4.43182085E-01 -4.27032957E-01
 -4.09989084E-01 -3.78300606E-01  1.93688523E-01  2.19261671E-01  2.52703816E-01
  2.62143193E-01  2.74320524E-01  3.00539829E-01  3.06795477E-01  3.19177327E-01
  3.25821211E-01  3.48981347E-01  3.78934370E-01  3.99923414E-01  4.24685402E-01
  4.31839967E-01  4.73546685E-01  5.01930397E-01  5.88347554E-01  6.99032227E-01
  7.39665726E-01  7.49936397E-01  7.55747633E-01  7.79475188E-01  8.08008617E-01
  8.24622336E-01  8.39161492E-01  8.74720815E-01  8.91278620E-01  9.12780853E-01
  9.40849755E-01  9.54429546E-01  9.74271876E-01  1.00408215E+00  1.02435382E+00
  1.08386334E+00  1.12085732E+00  1.13860046E+00  1.14332066E+00  1.16293677E+00
  1.18011258E+00  1.18330771E+00  1.18930745E+00  1.19916184E+00  1.21243304E+00
  1.21433241E+00  1.23112760E+00  1.36036820E+00  1.38484499E+00  1.43011110E+00
  1.47754208E+00  1.50132207E+00  1.56275397E+00  1.63636910E+00  1.68867366E+00
  1.70222685E+00  1.73164509E+00  1.89904649E+00  1.97306506E+00  2.03603906E+00
  2.06163289E+00  2.10512827E+00  2.10928612E+00  2.14512841E+00  2.17044978E+00
  2.17684062E+00  2.19064181E+00  2.22227375E+00  2.26787553E+00  2.33721164E+00
  2.35528573E+00  2.37701302E+00  2.46423674E+00  2.48925460E+00  2.52465506E+00
  2.56994676E+00  2.62471591E+00  2.69971762E+00  2.71557228E+00  2.76320107E+00
  2.82473892E+00  2.85438976E+00  2.88779407E+00  2.90426807E+00  2.96179245E+00
  3.02516640E+00  3.09420578E+00  3.15876394E+00  3.25918802E+00  3.35886069E+00
  3.51763905E+00  4.38250760E+00  4.45127637E+00  4.58804397E+00  4.63453881E+00
  4.82729296E+00  4.85019280E+00  4.94897491E+00
Alpha MO coefficients                      R   N=       15129
  9.94692732E-01  2.09741771E-02  4.54883452E-05 -1.53315204E-03 -1.46732905E-04
  4.46484259E-03 -2.37741010E-05  6.80904515E-05  7.70328031E-06 -3.90445666E-03
 -3.64850509E-03 -4.10312446E-03 -1.11625014E-05 -4.75448990E-05  4.83205503E-05
 -7.82644477E-06 -3.63157841E-05 -2.46358686E-06 -4.01677071E-05 -3.03940075E-06
  9.84098087E-05 -7.33407434E-05  1.19408749E-04  3.07229633E-05  7.37733570E-05
 -8.64117052E-05 -4.27038693E-05 -2.75308891E-05 -2.95939155E-05  5.45170596E-06
 -2.02256679E-06  7.82617214E-06 -1.84511780E-05  2.68775171E-05  1.00127067E-05
 -7.21360411E-06 -1.27227897E-04 -2.92346240E-05 -1.56400151E-05 -2.78423306E-05
 -1.04415843E-05 -8.51025980E-06  1.82344506E-05  1.56259877E-05 -6.18315985E-06
  3.12602820E-06 -1.94639690E-06  1.77687524E-05  6.45822335E-06  3.97171892E-06
 -2.44805646E-06 -6.10832162E-05 -3.65112927E-05  3.76541942E-06  1.33054085E-05
  1.60038122E-05  5.54433416E-06  6.95577246E-06  1.73547607E-06  1.64983047E-06
  3.47279934E-06  1.74420231E-05 -6.08154286E-06  3.51157094E-07  8.47292155E-07
 -1.59078484E-04 -1.48846319E-05 -5.56838204E-05 -3.57117869E-05  2.94809519E-06
  1.12002831E-06  4.89467786E-06 -2.46973924E-06 -7.87344611E-07  2.06456922E-06
 -4.27493841E-06  4.98686887E-04  4.83113243E-06 -2.02798754E-05 -4.24985708E-06
 -2.50267889E-04  1.20587471E-04 -5.44842692E-04 -6.21996729E-05 -4.97426990E-05
 -7.59236078E-04 -5.46659597E-05  2.05363727E-05  4.53905848E-06 -7.73196916E-05
 -1.21505198E-07  1.29901859E-05  2.43211062E-06 -2.46923595E-05 -9.74305485E-07
 -1.36333390E-04  1.22964161E-04 -2.78344692E-05 -3.24237626E-05  2.57664349E-05
 -5.09919937E-05 -1.77933678E-05  2.90956872E-05 -5.10876529E-06 -7.00447287E-06
  1.27647357E-05 -1.39763125E-06  1.87032826E-05 -1.42467951E-06 -1.16308164E-06
  3.32400582E-06  9.85377964E-06  1.64032914E-05 -1.22440968E-06 -6.50791584E-06
  3.71313954E-05 -6.92417131E-06  1.09953731E-05 -2.93418555E-05  1.02521489E-05
 -5.26511769E-05  1.46100231E-05 -2.68728613E-05  8.33336202E-07 -3.60934635E-05
 -7.87419009E-06  1.53748701E-05  6.39229289E-06  1.30827159E-04  2.98906005E-04
 -1.90548253E-05 -8.60893318E-05 -2.39079786E-06  3.94298860E-06 -4.63588283E-05
 -7.00379657E-05 -1.82376214E-05  2.45892931E-05  9.94965752E-01  2.53080098E-02
  9.81146078E-05  3.54626385E-05  3.79152002E-04 -3.49278915E-03 -5.84055099E-05
 -7.40111813E-04 -3.48138364E-04 -3.47220639E-03 -3.46160990E-03 -3.30426497E-03
  3.13555037E-05  4.86496207E-05 -1.69059697E-05 -4.78212716E-06  1.54670770E-04
  2.36551829E-04 -7.94706760E-05 -4.96900629E-05  1.36285003E-03  6.26603560E-04
 -3.11288984E-04 -3.51321680E-04 -6.09099509E-05 -1.23869988E-04 -4.30424218E-05
  1.01709532E-05  2.27265798E-05 -1.50699014E-06 -9.29683636E-06 -1.79144632E-05
 -5.50078691E-05  5.10238637E-05 -1.55617539E-05 -2.92439348E-05 -5.21396291E-05
 -1.17217893E-04  3.65253781E-05 -6.71009909E-05 -2.63513831E-05 -1.62360910E-06
  2.11842035E-05 -8.74374961E-06 -1.04082330E-05  7.36982016E-07  2.54122602E-05
 -5.49089402E-05 -2.42204378E-05 -7.57090875E-06 -3.05529759E-04 -1.62573792E-04
  9.98149927E-05  8.03281590E-05 -5.59446377E-05  5.75566117E-07  2.17594147E-06
  1.02565982E-05 -1.68771205E-06  7.86476461E-06  1.72912364E-05  1.89498712E-04
 -1.91222544E-04 -1.14470025E-04  2.34149348E-05  1.37242319E-03 -1.12496016E-03
 -6.91008617E-04  2.12561641E-04 -6.94545740E-05 -1.29832417E-04 -5.85922143E-05
 -6.04415446E-05 -1.17838777E-05  3.54317195E-06 -5.14781862E-06 -1.63711324E-05
  3.42962243E-05 -3.71873258E-06 -1.22067015E-05  1.74079006E-04  1.26590597E-04
  2.75104356E-04  8.73231201E-06 -6.75827986E-05  3.54333165E-05 -2.97758238E-05
 -1.47480447E-05  7.06568543E-07 -9.97622641E-06 -6.84577410E-05  4.89036512E-05
 -1.26962531E-05  2.36369728E-05  1.51356452E-05  5.98592534E-05  5.55284649E-06
 -1.36587256E-05  2.08846003E-05  8.99748547E-05  2.42764310E-04  2.67924774E-04
  1.83451994E-05  3.55399111E-05 -2.92021750E-05 -5.16304236E-05  7.08498345E-06
 -5.11162592E-05 -2.18986821E-04  7.66301956E-04 -4.17475647E-05 -3.03130393E-04
 -1.79038298E-05 -3.97713897E-03  4.43351686E-04  1.84882187E-03  1.00556345E-04
  2.95248752E-04  1.20384730E-04  4.94233096E-04 -8.95396790E-05  3.63099143E-05
 -3.08038947E-05 -2.53722069E-04  3.42821195E-04 -1.21216671E-04  9.67942914E-05
  2.11382007E-05  3.45606937E-04  1.04141355E-03 -2.17193160E-03 -3.09108240E-04
 -5.39479060E-04 -3.18782828E-04  1.18292293E-04 -3.18245054E-04  1.31753779E-04
 -3.62753901E-05 -6.33708361E-05 -1.52516688E-04  1.15527416E-04 -9.13772921E-05
 -3.08921257E-05  1.05045559E-03  1.00130341E-03  1.67471742E-05 -4.07683527E-04
  2.58920906E-04 -3.86186904E-06  5.37847634E-05 -4.96556595E-05 -8.82692204E-05
  2.31569755E-05 -2.13955211E-05 -7.22726883E-06 -8.47602512E-05  5.56831190E-05
  9.13827191E-06 -8.45495804E-05  1.42434979E-04 -4.44338936E-04 -1.50400224E-04
 -6.41462065E-05  6.10476502E-06  1.14789337E-05  6.16974973E-06 -1.00146588E-05
 -2.07344328E-05  2.11290344E-05  5.04154898E-05  4.41472457E-05 -4.40864282E-05
 -4.03383993E-05 -1.13659981E-04 -4.34426840E-04  1.43444366E-04  5.48969472E-04
 -1.00352096E-05 -1.16767462E-05  2.09535482E-05 -1.53432049E-05 -4.90269753E-06
 -1.38851651E-05  9.95858095E-01  2.61933444E-02 -5.02944451E-04 -9.78093975E-06
  6.07997644E-05 -7.19168228E-03 -2.48740947E-03  4.37160904E-03  7.84878770E-04
 -1.31966117E-03 -6.98194261E-04 -2.23574134E-03  1.34200164E-04 -1.55491320E-04
  1.31972274E-04  2.59523159E-03  1.18483109E-04  5.72903256E-05 -4.29978242E-05
  1.97336363E-05  4.31474192E-03 -2.24308184E-03  6.32114268E-04  1.96484158E-04