opt=Tight                                                               
Freq      RMP2-FC                                                     6-31G(d)            
Number of atoms                            I               10
Info1-9                                    I   N=           9
          19          19        1002           0           0         100
           6           2           1
Charge                                     I                0
Multiplicity                               I                1
Number of electrons                        I               66
Number of alpha electrons                  I               33
Number of beta electrons                   I               33
Number of basis functions                  I              100
Number of independent functions            I              100
Number of point charges in /Mol/           I                0
Number of translation vectors              I                0
Atomic numbers                             I   N=          10
          35           8           6           6           6           1
           1           1           1           1
Nuclear charges                            R   N=          10
  3.50000000E+01  8.00000000E+00  6.00000000E+00  6.00000000E+00  6.00000000E+00
  1.00000000E+00  1.00000000E+00  1.00000000E+00  1.00000000E+00  1.00000000E+00
Current cartesian coordinates              R   N=          30
 -2.61474980E+00 -2.78054303E-01  2.86322141E-08  1.55619325E+00  3.00951359E+00
  2.86322141E-08  2.75724838E+00 -1.43772065E+00  2.86322141E-08  5.53026652E+00
 -6.66527194E-01 -1.88972613E-06  1.02169555E+00  8.13451511E-01  2.86322141E-08
  2.25976664E+00 -2.58229942E+00  1.65194378E+00  2.25976475E+00 -2.58230509E+00
 -1.65193622E+00  5.98345686E+00  4.57825840E-01 -1.66947288E+00  5.98346253E+00
  4.57823950E-01  1.66947099E+00  6.72496650E+00 -2.35046593E+00 -3.77945227E-06
Force Field                                I                0
Int Atom Types                             I   N=          10
           0           0           0           0           0           0
           0           0           0           0
MM charges                                 R   N=          10
  0.00000000E+00  0.00000000E+00  0.00000000E+00  0.00000000E+00  0.00000000E+00
  0.00000000E+00  0.00000000E+00  0.00000000E+00  0.00000000E+00  0.00000000E+00
Integer atomic weights                     I   N=          10
          79          16          12          12          12           1
           1           1           1           1
Real atomic weights                        R   N=          10
  7.89183361E+01  1.59949146E+01  1.20000000E+01  1.20000000E+01  1.20000000E+01
  1.00782504E+00  1.00782504E+00  1.00782504E+00  1.00782504E+00  1.00782504E+00
Atom fragment info                         I   N=          10
           0           0           0           0           0           0
           0           0           0           0
Atom residue num                           I   N=          10
           0           0           0           0           0           0
           0           0           0           0
Nuclear spins                              I   N=          10
           3           0           0           0           0           1
           1           1           1           1
Nuclear ZEff                               R   N=          10
 -2.45000000E+01 -5.60000000E+00 -3.60000000E+00 -3.60000000E+00 -3.60000000E+00
 -1.00000000E+00 -1.00000000E+00 -1.00000000E+00 -1.00000000E+00 -1.00000000E+00
Nuclear QMom                               R   N=          10
  3.13000000E+01  0.00000000E+00  0.00000000E+00  0.00000000E+00  0.00000000E+00
  0.00000000E+00  0.00000000E+00  0.00000000E+00  0.00000000E+00  0.00000000E+00
Nuclear GFac                               R   N=          10
  2.10639900E+00  0.00000000E+00  0.00000000E+00  0.00000000E+00  0.00000000E+00
  2.79284600E+00  2.79284600E+00  2.79284600E+00  2.79284600E+00  2.79284600E+00
MicOpt                                     I   N=          10
          -1          -1          -1          -1          -1          -1
          -1          -1          -1          -1
Number of contracted shells                I               38
Number of primitive shells                 I               95
Pure/Cartesian d shells                    I                1
Pure/Cartesian f shells                    I                0
Highest angular momentum                   I                2
Largest degree of contraction              I                8
Shell types                                I   N=          38
           0           0           0           0           0           0
           1           1           1           1           2           2
           0          -1          -1           2           0          -1
          -1           2           0          -1          -1           2
           0          -1          -1           2           0           0
           0           0           0           0           0           0
           0           0
Number of primitives per shell             I   N=          38
           8           2           1           1           1           1
           6           3           1           1           5           1
           6           3           1           1           6           3
           1           1           6           3           1           1
           6           3           1           1           3           1
           3           1           3           1           3           1
           3           1
Shell to atom map                          I   N=          38
           1           1           1           1           1           1
           1           1           1           1           1           1
           2           2           2           2           3           3
           3           3           4           4           4           4
           5           5           5           5           6           6
           7           7           8           8           9           9
          10          10
Primitive exponents                        R   N=          95
  5.74300000E+05  8.90700000E+04  2.02100000E+04  5.73600000E+03  1.89900000E+03
  6.98700000E+02  2.77800000E+02  1.15200000E+02  3.59700000E+01  1.55000000E+01
  4.77100000E+00  2.07700000E+00  4.21100000E-01  1.61000000E-01  4.40600000E+03
  1.04200000E+03  3.32100000E+02  1.21900000E+02  4.92400000E+01  2.11600000E+01
  8.83600000E+00  3.82900000E+00  1.64300000E+00  4.65000000E-01  1.42700000E-01
  1.08400000E+02  3.07100000E+01  1.06600000E+01  3.85100000E+00  1.31700000E+00
  3.38000000E-01  5.48467166E+03  8.25234946E+02  1.88046958E+02  5.29645000E+01
  1.68975704E+01  5.79963534E+00  1.55396162E+01  3.59993359E+00  1.01376175E+00
  2.70005823E-01  8.00000000E-01  3.04752488E+03  4.57369518E+02  1.03948685E+02
  2.92101553E+01  9.28666296E+00  3.16392696E+00  7.86827235E+00  1.88128854E+00
  5.44249258E-01  1.68714478E-01  8.00000000E-01  3.04752488E+03  4.57369518E+02
  1.03948685E+02  2.92101553E+01  9.28666296E+00  3.16392696E+00  7.86827235E+00
  1.88128854E+00  5.44249258E-01  1.68714478E-01  8.00000000E-01  3.04752488E+03
  4.57369518E+02  1.03948685E+02  2.92101553E+01  9.28666296E+00  3.16392696E+00
  7.86827235E+00  1.88128854E+00  5.44249258E-01  1.68714478E-01  8.00000000E-01
  1.87311370E+01  2.82539436E+00  6.40121692E-01  1.61277759E-01  1.87311370E+01
  2.82539436E+00  6.40121692E-01  1.61277759E-01  1.87311370E+01  2.82539436E+00
  6.40121692E-01  1.61277759E-01  1.87311370E+01  2.82539436E+00  6.40121692E-01
  1.61277759E-01  1.87311370E+01  2.82539436E+00  6.40121692E-01  1.61277759E-01
Contraction coefficients                   R   N=          95
  2.10682753E-04  1.61271721E-03  8.36010959E-03  3.40275588E-02  1.08515001E-01
  2.67396944E-01  4.29567221E-01  2.86993117E-01  2.77772914E-01  7.47057636E-01
  1.00000000E+00  1.00000000E+00  1.00000000E+00  1.00000000E+00  1.39552623E-03
  1.23748283E-02  6.10175241E-02  2.26775547E-01  4.05975875E-01  4.50692322E-01
  2.92018585E-01  5.30220862E-01  2.75287404E-01  1.00000000E+00  1.00000000E+00
  2.15879371E-02  1.34176036E-01  3.67870647E-01  4.91895206E-01  2.68321979E-01
  1.00000000E+00  1.83107443E-03  1.39501722E-02  6.84450781E-02  2.32714336E-01
  4.70192898E-01  3.58520853E-01 -1.10777550E-01 -1.48026263E-01  1.13076702E+00
  1.00000000E+00  1.00000000E+00  1.83473713E-03  1.40373228E-02  6.88426223E-02
  2.32184443E-01  4.67941348E-01  3.62311985E-01 -1.19332420E-01 -1.60854152E-01
  1.14345644E+00  1.00000000E+00  1.00000000E+00  1.83473713E-03  1.40373228E-02
  6.88426223E-02  2.32184443E-01  4.67941348E-01  3.62311985E-01 -1.19332420E-01
 -1.60854152E-01  1.14345644E+00  1.00000000E+00  1.00000000E+00  1.83473713E-03
  1.40373228E-02  6.88426223E-02  2.32184443E-01  4.67941348E-01  3.62311985E-01
 -1.19332420E-01 -1.60854152E-01  1.14345644E+00  1.00000000E+00  1.00000000E+00
  3.34946043E-02  2.34726953E-01  8.13757326E-01  1.00000000E+00  3.34946043E-02
  2.34726953E-01  8.13757326E-01  1.00000000E+00  3.34946043E-02  2.34726953E-01
  8.13757326E-01  1.00000000E+00  3.34946043E-02  2.34726953E-01  8.13757326E-01
  1.00000000E+00  3.34946043E-02  2.34726953E-01  8.13757326E-01  1.00000000E+00
P(S=P) Contraction coefficients            R   N=          95
  0.00000000E+00  0.00000000E+00  0.00000000E+00  0.00000000E+00  0.00000000E+00
  0.00000000E+00  0.00000000E+00  0.00000000E+00  0.00000000E+00  0.00000000E+00
  0.00000000E+00  0.00000000E+00  0.00000000E+00  0.00000000E+00  0.00000000E+00
  0.00000000E+00  0.00000000E+00  0.00000000E+00  0.00000000E+00  0.00000000E+00
  0.00000000E+00  0.00000000E+00  0.00000000E+00  0.00000000E+00  0.00000000E+00
  0.00000000E+00  0.00000000E+00  0.00000000E+00  0.00000000E+00  0.00000000E+00
  0.00000000E+00  0.00000000E+00  0.00000000E+00  0.00000000E+00  0.00000000E+00
  0.00000000E+00  0.00000000E+00  7.08742682E-02  3.39752839E-01  7.27158577E-01
  1.00000000E+00  0.00000000E+00  0.00000000E+00  0.00000000E+00  0.00000000E+00
  0.00000000E+00  0.00000000E+00  0.00000000E+00  6.89990666E-02  3.16423961E-01
  7.44308291E-01  1.00000000E+00  0.00000000E+00  0.00000000E+00  0.00000000E+00
  0.00000000E+00  0.00000000E+00  0.00000000E+00  0.00000000E+00  6.89990666E-02
  3.16423961E-01  7.44308291E-01  1.00000000E+00  0.00000000E+00  0.00000000E+00
  0.00000000E+00  0.00000000E+00  0.00000000E+00  0.00000000E+00  0.00000000E+00
  6.89990666E-02  3.16423961E-01  7.44308291E-01  1.00000000E+00  0.00000000E+00
  0.00000000E+00  0.00000000E+00  0.00000000E+00  0.00000000E+00  0.00000000E+00
  0.00000000E+00  0.00000000E+00  0.00000000E+00  0.00000000E+00  0.00000000E+00
  0.00000000E+00  0.00000000E+00  0.00000000E+00  0.00000000E+00  0.00000000E+00
  0.00000000E+00  0.00000000E+00  0.00000000E+00  0.00000000E+00  0.00000000E+00
Coordinates of each shell                  R   N=         114
 -2.61474952E+00 -2.78054658E-01  1.47933106E-07 -2.61474952E+00 -2.78054658E-01
  1.47933106E-07 -2.61474952E+00 -2.78054658E-01  1.47933106E-07 -2.61474952E+00
 -2.78054658E-01  1.47933106E-07 -2.61474952E+00 -2.78054658E-01  1.47933106E-07
 -2.61474952E+00 -2.78054658E-01  1.47933106E-07 -2.61474952E+00 -2.78054658E-01
  1.47933106E-07 -2.61474952E+00 -2.78054658E-01  1.47933106E-07 -2.61474952E+00
 -2.78054658E-01  1.47933106E-07 -2.61474952E+00 -2.78054658E-01  1.47933106E-07
 -2.61474952E+00 -2.78054658E-01  1.47933106E-07 -2.61474952E+00 -2.78054658E-01
  1.47933106E-07  1.55619326E+00  3.00951357E+00  1.47933106E-07  1.55619326E+00
  3.00951357E+00  1.47933106E-07  1.55619326E+00  3.00951357E+00  1.47933106E-07
  1.55619326E+00  3.00951357E+00  1.47933106E-07  2.75724875E+00 -1.43772057E+00
  1.47933106E-07  2.75724875E+00 -1.43772057E+00  1.47933106E-07  2.75724875E+00
 -1.43772057E+00  1.47933106E-07  2.75724875E+00 -1.43772057E+00  1.47933106E-07
  5.53026683E+00 -6.66526890E-01 -1.77042524E-06  5.53026683E+00 -6.66526890E-01
 -1.77042524E-06  5.53026683E+00 -6.66526890E-01 -1.77042524E-06  5.53026683E+00
 -6.66526890E-01 -1.77042524E-06  1.02169574E+00  8.13451451E-01  1.47933106E-07
  1.02169574E+00  8.13451451E-01  1.47933106E-07  1.02169574E+00  8.13451451E-01
  1.47933106E-07  1.02169574E+00  8.13451451E-01  1.47933106E-07  2.25976710E+00
 -2.58229938E+00  1.65194390E+00  2.25976710E+00 -2.58229938E+00  1.65194390E+00
  2.25976521E+00 -2.58230505E+00 -1.65193611E+00  2.25976521E+00 -2.58230505E+00
 -1.65193611E+00  5.98345708E+00  4.57826181E-01 -1.66947276E+00  5.98345708E+00
  4.57826181E-01 -1.66947276E+00  5.98346275E+00  4.57824291E-01  1.66947111E+00
  5.98346275E+00  4.57824291E-01  1.66947111E+00  6.72496695E+00 -2.35046553E+00
 -3.66015137E-06  6.72496695E+00 -2.35046553E+00 -3.66015137E-06
Constraint Structure                       R   N=          30
 -2.61474952E+00 -2.78054658E-01  1.47933106E-07  1.55619326E+00  3.00951357E+00
  1.47933106E-07  2.75724875E+00 -1.43772057E+00  1.47933106E-07  5.53026683E+00
 -6.66526890E-01 -1.77042524E-06  1.02169574E+00  8.13451451E-01  1.47933106E-07
  2.25976710E+00 -2.58229938E+00  1.65194390E+00  2.25976521E+00 -2.58230505E+00
 -1.65193611E+00  5.98345708E+00  4.57826181E-01 -1.66947276E+00  5.98346275E+00
  4.57824291E-01  1.66947111E+00  6.72496695E+00 -2.35046553E+00 -3.66015137E-06
Num ILSW                                   I              100
ILSW                                       I   N=         100
           0           1           0           0           2           0
           0           0           0           0           0          -1
           0           0           0           0           0           0
           0           0           0           0           1           0
           1           0           0           0           0           0
           0           0      100000           0          -1           0
           0           0           0           0           0           0
           0           0           0           1           1           0
           0           0           1           0           0           0
           0           0           4          40           0           0
           0           0           0           0           0           0
           0           0           0           0           0           0
           0           0           0           0           0           0
           0           0           0           0           0           0
           0           0           0           0           0           0
           0           0           0           0           0           0
           0           0           0           0
Num RLSW                                   I               40
RLSW                                       R   N=          40
  1.00000000E+00  1.00000000E+00  1.00000000E+00  1.00000000E+00  1.00000000E+00
  0.00000000E+00  0.00000000E+00  1.00000000E+00  0.00000000E+00  0.00000000E+00
  0.00000000E+00  0.00000000E+00  1.00000000E+00  0.00000000E+00  0.00000000E+00
  0.00000000E+00  0.00000000E+00  1.00000000E+00  0.00000000E+00  0.00000000E+00
  0.00000000E+00  0.00000000E+00  1.00000000E+00  0.00000000E+00  0.00000000E+00
  0.00000000E+00  0.00000000E+00  1.00000000E+00  0.00000000E+00  0.00000000E+00
  0.00000000E+00  0.00000000E+00  0.00000000E+00  0.00000000E+00  0.00000000E+00
  0.00000000E+00  0.00000000E+00  0.00000000E+00  1.00000000E+00  1.00000000E+00
MxBond                                     I                4
NBond                                      I   N=          10
           1           1           4           4           3           1
           1           1           1           1
IBond                                      I   N=          40
           5           0           0           0           5           0
           0           0           4           5           6           7
           3           8           9          10           1           2
           3           0           3           0           0           0
           3           0           0           0           4           0
           0           0           4           0           0           0
           4           0           0           0
RBond                                      R   N=          40
  1.00000000E+00  0.00000000E+00  0.00000000E+00  0.00000000E+00  2.00000000E+00
  0.00000000E+00  0.00000000E+00  0.00000000E+00  1.00000000E+00  1.00000000E+00
  1.00000000E+00  1.00000000E+00  1.00000000E+00  1.00000000E+00  1.00000000E+00
  1.00000000E+00  1.00000000E+00  2.00000000E+00  1.00000000E+00  0.00000000E+00
  1.00000000E+00  0.00000000E+00  0.00000000E+00  0.00000000E+00  1.00000000E+00
  0.00000000E+00  0.00000000E+00  0.00000000E+00  1.00000000E+00  0.00000000E+00
  0.00000000E+00  0.00000000E+00  1.00000000E+00  0.00000000E+00  0.00000000E+00
  0.00000000E+00  1.00000000E+00  0.00000000E+00  0.00000000E+00  0.00000000E+00
Virial Ratio                               R      2.004384888277124E+00
SCF Energy                                 R     -2.761271224033827E+03
MP2 Energy                                 R     -2.761953785668266E+03
Total Energy                               R     -2.761953785668266E+03
Post-SCF wavefunction norm                 R      1.575831902713893E+00
RMS Force                                  R      5.776184498099169E-07
RMS Density                                R      2.361416156587238E-09
External E-field                           R   N=          35
  0.00000000E+00  0.00000000E+00  0.00000000E+00  0.00000000E+00  0.00000000E+00
  0.00000000E+00  0.00000000E+00  0.00000000E+00  0.00000000E+00  0.00000000E+00
  0.00000000E+00  0.00000000E+00  0.00000000E+00  0.00000000E+00  0.00000000E+00
  0.00000000E+00  0.00000000E+00  0.00000000E+00  0.00000000E+00  0.00000000E+00
  0.00000000E+00  0.00000000E+00  0.00000000E+00  0.00000000E+00  0.00000000E+00
  0.00000000E+00  0.00000000E+00  0.00000000E+00  0.00000000E+00  0.00000000E+00
  0.00000000E+00  0.00000000E+00  0.00000000E+00  0.00000000E+00  0.00000000E+00
IOpCl                                      I                0
IROHF                                      I                0
Alpha Orbital Energies                     R   N=         100
 -4.90063391E+02 -6.44758822E+01 -5.86148640E+01 -5.86133725E+01 -5.86133077E+01
 -2.06153172E+01 -1.14175836E+01 -1.12765189E+01 -1.12431195E+01 -9.72447970E+00
 -7.47305467E+00 -7.46543940E+00 -7.46486713E+00 -3.21152286E+00 -3.20819270E+00
 -3.20753647E+00 -3.19888709E+00 -3.19887683E+00 -1.44603890E+00 -1.09655978E+00
 -1.01503814E+00 -9.10465087E-01 -7.62606709E-01 -6.79677615E-01 -6.63737303E-01
 -6.41031589E-01 -5.70090345E-01 -5.64286530E-01 -5.43136304E-01 -5.20555371E-01
 -4.26319556E-01 -4.17818648E-01 -4.14709269E-01  1.26157152E-01  1.45289849E-01
  2.18482103E-01  2.74426905E-01  2.79486192E-01  3.03586430E-01  3.24936530E-01
  3.62867281E-01  3.99048895E-01  4.24922460E-01  4.63290267E-01  6.23618142E-01
  6.43876135E-01  6.46382970E-01  6.58181807E-01  6.64607401E-01  6.97935329E-01
  7.01387591E-01  7.14596519E-01  7.75356371E-01  8.27636733E-01  8.39388402E-01
  8.67993243E-01  9.20116162E-01  9.68436248E-01  9.97725301E-01  1.04765715E+00
  1.10097972E+00  1.10464894E+00  1.11153087E+00  1.14121299E+00  1.15407525E+00
  1.17985345E+00  1.19802108E+00  1.22421667E+00  1.31064044E+00  1.35666294E+00
  1.43336667E+00  1.61722029E+00  1.77576625E+00  1.80270441E+00  1.81225331E+00
  1.81227778E+00  1.96393924E+00  2.02351804E+00  2.04928778E+00  2.07226035E+00
  2.19502210E+00  2.23364865E+00  2.24405573E+00  2.38176925E+00  2.40568212E+00
  2.60206040E+00  2.61532251E+00  2.64267261E+00  2.69711984E+00  2.76561161E+00
  2.91791116E+00  3.02345588E+00  3.18613933E+00  3.32644960E+00  4.33574705E+00
  4.49489389E+00  4.67323796E+00  4.87145563E+00  9.27908677E+00  7.44704262E+01
Alpha MO coefficients                      R   N=       10000
  9.94936922E-01  3.27992081E-02 -4.42127584E-02 -4.75779773E-02 -2.62826547E-02
 -1.91769971E-02  1.96443002E-05  2.55797179E-06  2.84211447E-12 -5.93437029E-05
 -5.64986072E-06 -2.94094224E-12  2.56236115E-04  2.64629456E-05  8.00006468E-12
 -4.41926829E-04 -1.37109864E-04  6.47012354E-12  4.39975127E-02  4.40025208E-02
  4.39922753E-02  3.32136835E-06 -1.70961313E-12  3.24800495E-13  1.08762520E-02
  1.08330109E-02  1.09141706E-02 -4.92715533E-05  1.67076046E-11 -8.18230733E-13
  3.77555690E-05  1.52820566E-04 -3.05603321E-06 -5.31924444E-05 -8.42008675E-12
 -1.15808848E-03 -6.36919158E-05  3.19354872E-04  5.04172837E-11  1.67314323E-04
  9.30193822E-05  9.85357149E-05  3.42667616E-05 -1.98093525E-12 -1.61924931E-11
  2.20025803E-05 -3.44228431E-05  1.32691400E-05  3.07011319E-06  8.02118086E-11
 -3.68986516E-04 -8.24311839E-04  1.71012686E-04 -5.13327665E-10  1.41671531E-04
  7.24968902E-05  7.57448567E-05 -6.26173434E-05  7.08806579E-11  1.01711758E-10
 -5.21886514E-06 -2.80202113E-05 -4.19949109E-05 -1.70195559E-06 -7.63938558E-13
  6.27661220E-04 -1.53601351E-04 -2.10772396E-04  5.18983975E-10 -7.92353326E-06
  1.28596181E-05 -1.18443826E-05  1.46781468E-05 -5.72765890E-11  1.78141481E-11
 -1.76726154E-05  7.05383693E-05  2.38788372E-04  4.14287835E-05  4.32207716E-11
  8.94973546E-04 -1.30165668E-05  9.55969343E-04 -9.72701213E-11 -2.73422279E-04
 -1.50680089E-04 -6.13238477E-05  1.72139618E-05  1.67554996E-12 -1.84125528E-11
 -6.28694857E-05  3.24052611E-04 -6.28697570E-05  3.24052629E-04 -1.43242880E-06
 -2.43139079E-05 -1.43250706E-06 -2.43142115E-05 -3.74491769E-05 -7.71920926E-05
 -4.23687668E-01  1.16528808E+00 -2.70850746E-01 -3.65394783E-01 -2.01875838E-01
 -1.52228884E-01  7.11691320E-04  2.01107134E-04  4.37145843E-10 -3.92052421E-04
 -2.05268546E-05  2.86184867E-11  2.03096232E-03  2.06648493E-04  4.75532155E-11
 -3.56093340E-03 -1.09531056E-03  6.17641949E-11  3.37014669E-01  3.37017489E-01
  3.36934061E-01  4.03095662E-05  5.37113848E-12  1.00187501E-11  8.55681064E-02
  8.52279703E-02  8.58793972E-02 -3.87940753E-04  1.35412264E-10 -3.47311807E-12
  2.85016547E-04  1.15729302E-03 -1.26960914E-05 -4.06317784E-04 -6.63037091E-11
 -8.92783300E-03 -5.11322348E-04  2.43598678E-03  4.03807865E-10  1.27152968E-03
  7.19659591E-04  7.17634283E-04  2.61226414E-04 -1.59733731E-11 -1.25319484E-10
  1.61227436E-04 -2.73737274E-04  1.22943670E-04  2.13217055E-05  6.07983299E-10
 -2.72379596E-03 -6.63230531E-03  1.40653063E-03 -3.92706863E-09  1.08240405E-03
  5.43053243E-04  5.61147092E-04 -4.88592464E-04  5.58199627E-10  8.09833359E-10
 -4.19623960E-05 -2.27656579E-04 -3.31320522E-04 -1.19089362E-05 -6.76334211E-12
  4.99422668E-03 -1.22838251E-03 -1.68707123E-03  4.10238072E-09 -5.84132442E-05
  1.01925350E-04 -9.58919668E-05  1.17114683E-04 -4.44830798E-10  1.38927977E-10
 -1.41948222E-04  5.86860488E-04  1.89192513E-03  3.08443910E-04  3.36134994E-10
  6.93591722E-03 -2.07433476E-04  7.57911117E-03 -8.00542527E-10 -2.24633630E-03
 -1.18000071E-03 -4.74926484E-04  8.73686511E-05  8.02410641E-12 -1.35208722E-10
 -5.14388098E-04  2.55970863E-03 -5.14390211E-04  2.55970884E-03 -9.67710670E-06
 -1.90336167E-04 -9.67773128E-06 -1.90338571E-04 -2.97631030E-04 -6.12890286E-04
  1.56043839E-04 -1.58339327E-03  2.94391124E-03  1.83408297E-03 -5.95316740E-04
  8.08909265E-03  9.41586907E-01  2.59741019E-01  3.74217844E-07  5.99026637E-02
  1.64771919E-02  2.37251677E-08 -1.82839786E-02 -4.82855788E-03 -6.95191703E-09
  7.53353863E-03  2.00879177E-03  3.57916662E-09 -2.72490764E-03 -2.81396325E-03
 -2.74839803E-03  2.45086820E-05 -2.44551019E-11  5.52186399E-12 -3.85850799E-03
 -3.02591206E-03 -3.48155598E-03 -1.27113609E-04  4.14875410E-10  5.04977525E-11
 -5.63523269E-05 -2.72648273E-04 -3.75186746E-04 -9.27626946E-05 -7.84230296E-11
  3.95753120E-03  1.15279022E-03 -9.54728984E-04  5.96982047E-10 -3.77156940E-04
  1.39747925E-05  1.23326189E-04 -1.25565696E-04 -2.82066733E-11 -1.12761900E-10
  1.06423220E-04  5.50505920E-04 -4.78861028E-04  6.55651971E-05 -6.04181323E-10
 -2.58335822E-03  5.78149746E-03 -4.11592361E-04  6.35215932E-09 -7.54264624E-05
  3.10190684E-04  5.78209074E-05  2.24977359E-04 -7.52214850E-10 -1.32596687E-09
 -1.18882817E-07  5.22678034E-05  2.62303788E-04 -1.31471843E-04 -5.77447777E-11
 -2.75443248E-03  3.85606383E-04  1.92026774E-03 -3.86364776E-09 -2.55695701E-05
 -1.48475694E-04  6.36984909E-05 -1.06824539E-04  6.39586346E-10 -4.34548684E-10
 -1.35671222E-04 -1.63668901E-03  4.52223973E-04  1.88370666E-04  1.62960321E-10
  1.03298843E-03 -3.07174316E-03 -5.75598826E-03 -2.11798482E-09  1.47672707E-03
 -3.07672943E-04 -5.21983303E-04  2.95700188E-04 -1.33838252E-10  5.99268142E-11
  4.87336815E-04 -6.16592376E-05  4.87338911E-04 -6.16490743E-05 -9.19848100E-05
 -1.21565085E-04 -9.19835558E-05 -1.21562948E-04  2.81163006E-04  7.53995677E-04
  1.70586529E-10  1.72957046E-10 -1.45950621E-09 -9.06016976E-10  1.65209650E-09
 -7.94558600E-09 -6.70939392E-07  1.02507781E-06  9.76877119E-01 -4.25459507E-08
  6.48185832E-08  6.17286452E-02  1.27042947E-08 -1.84800621E-08 -1.74437969E-02
 -6.87955995E-09  7.65947065E-09  7.67532032E-03  1.38938597E-09  1.39714333E-09
  1.36566535E-09  8.88787328E-12 -1.03641696E-05  4.31561903E-07  1.85393712E-09
  2.16756272E-09  2.56949191E-09 -2.59330960E-12  3.30323693E-04  7.84937046E-05
  1.84186815E-10  7.45945758E-10 -1.95737820E-10 -4.27260396E-11 -1.07624639E-05
 -3.93924571E-09  1.41422469E-09  8.44210704E-10  3.21032515E-04  4.39479617E-10
  4.65421702E-10  6.77888730E-10 -3.18361134E-10  4.94247284E-05 -9.05016339E-05
 -1.86519107E-10 -9.61349590E-10  2.07425801E-10 -7.99104505E-10 -1.22805054E-04
  3.46303020E-09 -2.77254426E-09  7.51514117E-09  1.25951466E-03  2.39689567E-11
 -1.56004341E-10 -3.53468196E-10 -2.50834770E-10 -3.94462644E-06  4.72361571E-05
 -9.65506849E-12  1.86664720E-11 -7.82073148E-11  7.98550703E-11 -4.70515947E-05
  4.64602413E-10  8.23449722E-10 -2.29082746E-09 -1.24358738E-04 -1.41413836E-10
  2.36970011E-10 -2.36222397E-10  2.28675873E-10  5.07471692E-05  2.17299853E-05
  7.63656106E-11  9.05332048E-10 -2.43184623E-10  3.01742318E-10  1.79399667E-04
 -2.88207493E-09 -2.88339494E-09  3.69828847E-09 -1.51164256E-03 -7.63829596E-10
  7.67713899E-11  2.04666719E-10 -1.36374356E-10 -4.63458943E-06 -2.11775503E-05
  1.16006394E-04 -1.11823842E-03 -1.16007211E-04  1.11824364E-03  3.22773147E-05
 -8.73710291E-05 -3.22769852E-05  8.73714556E-05 -1.99302574E-10 -1.09273804E-09
  3.47605964E-05  1.09605838E-04 -4.70257180E-04 -3.30147514E-04  6.81387518E-04
 -2.67944295E-03 -2.59745509E-01  9.41699460E-01 -1.16660879E-06 -1.64704990E-02
  5.95357991E-02 -7.37052115E-08  4.96572484E-03 -1.69297787E-02  2.07710344E-08
 -2.58864969E-03  7.15329112E-03 -8.93864369E-09  4.72165780E-04  4.71548272E-04
  4.36816875E-04  1.04213111E-05 -1.00921516E-11  1.91371245E-11  6.14641623E-04
  7.40689988E-04  8.99503819E-04  6.41306735E-05 -2.65559508E-10 -6.79373107E-11
  2.29637291E-04  9.30173193E-04 -2.31292994E-04 -4.83846213E-05 -2.60935346E-11
 -4.90392981E-03  1.25175082E-03  1.11241972E-03 -1.01504677E-10  5.74154419E-04
  5.77069296E-04  8.45813722E-04 -2.56668399E-04 -8.14775507E-11  5.52661657E-11
 -4.21645486E-05 -2.69778234E-04  3.11047760E-04  6.93531805E-06 -4.21206971E-10
  9.97293968E-04 -3.76052977E-03  6.29525542E-04  1.21781015E-09 -1.16614350E-05
 -5.77248611E-05  1.32815843E-05 -1.37525836E-04  3.63788762E-10  5.76158326E-10
 -4.70079705E-05 -2.45886336E-04 -1.00938707E-04 -8.42193828E-06 -2.43981388E-11
  2.66705791E-03 -8.89624053E-04 -6.73650393E-04  1.10141628E-09  2.09131348E-05
 -5.58799106E-06 -1.14309729E-04  6.04135221E-05 -9.02312079E-11 -8.13388142E-11
  1.15267954E-04  4.06033199E-04 -4.23997428E-05  1.86473391E-04 -1.79776220E-10
 -5.67961034E-04 -6.09155572E-04  3.03540512E-03  8.48439607E-10  2.06209527E-04
  1.82778645E-04  1.83391972E-04 -2.49445413E-05 -1.52207514E-10  1.11474165E-10
 -4.13270453E-04  5.36297497E-04 -4.13271404E-04  5.36298971E-04 -3.27540500E-05
 -9.36333408E-05 -3.27539930E-05 -9.36339624E-05 -1.39029498E-04 -1.59235535E-04
  1.89512099E-06  7.61888633E-06 -2.87138473E-05 -2.51276429E-05  6.17449226E-05
 -2.88198284E-04 -3.52604266E-06 -1.21699508E-06 -3.13176687E-13  1.12509298E-05
  3.67763741E-06  1.03846645E-12 -2.98115191E-05 -4.03462510E-07 -8.13251748E-12
 -1.39527690E-04 -6.57771087E-06  3.21764750E-11  3.33515031E-05  2.98961616E-05
  2.98375394E-05  2.52814209E-06 -1.82774861E-12 -4.58603231E-13 -2.15379830E-05
  5.86147107E-05  5.47555271E-05 -1.41363486E-05  1.59648988E-11  5.11923334E-12
  9.94695027E-01  2.09276846E-02 -3.94399767E-04 -1.60442482E-03  3.39684435E-11
  4.81995988E-03 -2.53891895E-05 -1.08024323E-04  5.15614824E-12 -3.92961490E-03
 -3.51390090E-03 -4.19765058E-03  1.07998374E-04 -3.97953890E-10  1.37926037E-10
  3.27754661E-07 -9.09598002E-06 -1.40107964E-05 -9.17492101E-06 -4.30590297E-11
 -1.91799167E-04  1.87540708E-04 -6.62116903E-05  4.42850449E-10  5.87679420E-05
 -3.21971617E-05 -1.57716026E-05 -2.72615118E-05 -1.88111090E-11 -5.70740072E-11
  2.29310340E-06  1.08153217E-05 -5.13916412E-06  1.67504540E-05  5.34923880E-11
 -4.76154135E-05  6.11784573E-05 -6.56595945E-06 -3.96457709E-10 -1.78819012E-07
 -4.07670455E-06  4.02204428E-06 -1.61306390E-05  2.78451072E-11  2.92059676E-11
 -1.27505034E-05  3.90244471E-04 -6.00701885E-05 -1.62033364E-04  3.71462918E-11
 -2.38592337E-04 -1.63950909E-04 -7.89839803E-04 -1.30725139E-10 -9.07129556E-05
 -8.51961900E-04 -3.58004988E-05 -2.16387139E-04  5.55089441E-11  3.17563508E-12
  9.77901413E-06 -1.93993694E-05  9.77920514E-06 -1.93989390E-05  1.72389998E-05
 -2.17727618E-05  1.72389423E-05 -2.17722910E-05 -1.68153977E-06 -3.09947002E-05
 -2.64730161E-06 -1.13280805E-04  3.66487248E-04 -9.34692724E-05 -8.77258081E-04
  4.61789628E-03  1.33646868E-05 -2.06144859E-06  1.16431302E-11 -4.85495574E-05
  5.26301800E-06 -3.87483237E-11  2.77599425E-04  1.93594108E-05  1.67540321E-10