
    -----------------------------------------------------------------------
          Psi4: An Open-Source Ab Initio Electronic Structure Package
                               Psi4 1.3.2 release

                         Git: Rev {HEAD} ecbda83 


    R. M. Parrish, L. A. Burns, D. G. A. Smith, A. C. Simmonett,
    A. E. DePrince III, E. G. Hohenstein, U. Bozkaya, A. Yu. Sokolov,
    R. Di Remigio, R. M. Richard, J. F. Gonthier, A. M. James,
    H. R. McAlexander, A. Kumar, M. Saitow, X. Wang, B. P. Pritchard,
    P. Verma, H. F. Schaefer III, K. Patkowski, R. A. King, E. F. Valeev,
    F. A. Evangelista, J. M. Turney, T. D. Crawford, and C. D. Sherrill,
    J. Chem. Theory Comput. 13(7) pp 3185--3197 (2017).
    (doi: 10.1021/acs.jctc.7b00174)


                         Additional Contributions by
    P. Kraus, H. Kruse, M. H. Lechner, M. C. Schieber, R. A. Shaw,
    A. Alenaizan, R. Galvelis, Z. L. Glick, S. Lehtola, and J. P. Misiewicz

    -----------------------------------------------------------------------


    Psi4 started on: Saturday, 14 November 2020 07:42AM

    Process ID: 97210
    Host:       node35.bme.utexas.edu
    PSIDATADIR: /home/xy3866/psi4conda/share/psi4
    Memory:     500.0 MiB
    Threads:    8
    
  ==> Input File <==

--------------------------------------------------------------------------
#psi4
#
memory 32 gb

molecule  {
0 1
  O        1.3620710    -0.3800110    -0.9318440
  O        3.2020570     1.9012130    -0.2995130
  O        2.7994070    -2.7489470    -0.4002010
  O       -1.3621860     2.3740050     0.1547830
  N       -0.7982440     0.1994180    -0.2292560
  N       -3.0104193     0.7943798     0.2310344
  N       -4.6734100    -0.8124350     0.4126370
  C        2.7015950     0.8755540     0.5594740
  C        1.2368440     1.1072260     0.8878520
  C        2.6518190    -0.3922910    -0.2854700
  C        0.5739580     0.6830040    -0.4149160
  C        2.8020980    -1.6600160     0.5224700
  C       -1.1273370    -1.1158190    -0.3082760
  C       -1.7446880     1.2038920     0.0820450
  C       -2.3817002    -1.4699573    -0.1075303
  C       -3.3619920    -0.4731600     0.1685110
  H        3.3343810     0.7567850     1.4508530
  H        0.9047070     0.4438290     1.6934890
  H        0.9853290     2.1340670     1.1581470
  H        0.5274540     1.5132540    -1.1249130
  H        3.4174920    -0.3642830    -1.0666260
  H        1.9707490    -1.7331840     1.2432230
  H        3.7460890    -1.6095150     1.0882890
  H        3.1038510     2.7463240     0.1779830
  H       -0.3107400    -1.7892010    -0.5436980
  H        2.9100300    -3.5650720     0.1192120
  H       -2.7034680    -2.5490840    -0.1532500
  H       -5.0287110    -1.6377420    -0.0567190
  H       -5.2994710    -0.0137980     0.3861010
units angstrom
no_reorient  #important for SAPT in psi4, default
symmetry c1  #important for SAPT in psi4, default
}

set PROPERTIES_ORIGIN ["COM"]
properties('MP2/aug-cc-pvtz', properties = ['dipole'])
--------------------------------------------------------------------------

  Memory set to  29.802 GiB by Python driver.
    SCF Algorithm Type (re)set to DF.

*** tstart() called on node35.bme.utexas.edu
*** at Sat Nov 14 07:42:03 2020

   => Loading Basis Set <=

    Name: AUG-CC-PVTZ
    Role: ORBITAL
    Keyword: BASIS
    atoms 1-4   entry O          line   327 file /home/xy3866/psi4conda/share/psi4/basis/aug-cc-pvtz.gbs 
    atoms 5-7   entry N          line   281 file /home/xy3866/psi4conda/share/psi4/basis/aug-cc-pvtz.gbs 
    atoms 8-16  entry C          line   235 file /home/xy3866/psi4conda/share/psi4/basis/aug-cc-pvtz.gbs 
    atoms 17-29 entry H          line    36 file /home/xy3866/psi4conda/share/psi4/basis/aug-cc-pvtz.gbs 


         ---------------------------------------------------------
                                   SCF
               by Justin Turney, Rob Parrish, Andy Simmonett
                          and Daniel G. A. Smith
                              RHF Reference
                        8 Threads,  30517 MiB Core
         ---------------------------------------------------------

  ==> Geometry <==

    Molecular point group: c1
    Full point group: C1

    Geometry (in Angstrom), charge = 0, multiplicity = 1:

       Center              X                  Y                   Z               Mass       
    ------------   -----------------  -----------------  -----------------  -----------------
         O            1.357491517262    -0.381169967504    -0.931132471802    15.994914619570
         O            3.197477517262     1.900054032496    -0.298801471802    15.994914619570
         O            2.794827517262    -2.750105967504    -0.399489471802    15.994914619570
         O           -1.366765482738     2.372846032496     0.155494528198    15.994914619570
         N           -0.802823482738     0.198259032496    -0.228544471802    14.003074004430
         N           -3.014998782738     0.793220832496     0.231745928198    14.003074004430
         N           -4.677989482738    -0.813593967504     0.413348528198    14.003074004430
         C            2.697015517262     0.874395032496     0.560185528198    12.000000000000
         C            1.232264517262     1.106067032496     0.888563528198    12.000000000000
         C            2.647239517262    -0.393449967504    -0.284758471802    12.000000000000
         C            0.569378517262     0.681845032496    -0.414204471802    12.000000000000
         C            2.797518517262    -1.661174967504     0.523181528198    12.000000000000
         C           -1.131916482738    -1.116977967504    -0.307564471802    12.000000000000
         C           -1.749267482738     1.202733032496     0.082756528198    12.000000000000
         C           -2.386279682738    -1.471116267504    -0.106818771802    12.000000000000
         C           -3.366571482738    -0.474318967504     0.169222528198    12.000000000000
         H            3.329801517262     0.755626032496     1.451564528198     1.007825032230
         H            0.900127517262     0.442670032496     1.694200528198     1.007825032230
         H            0.980749517262     2.132908032496     1.158858528198     1.007825032230
         H            0.522874517262     1.512095032496    -1.124201471802     1.007825032230
         H            3.412912517262    -0.365441967504    -1.065914471802     1.007825032230
         H            1.966169517262    -1.734342967504     1.243934528198     1.007825032230
         H            3.741509517262    -1.610673967504     1.089000528198     1.007825032230
         H            3.099271517262     2.745165032496     0.178694528198     1.007825032230
         H           -0.315319482738    -1.790359967504    -0.542986471802     1.007825032230
         H            2.905450517262    -3.566230967504     0.119923528198     1.007825032230
         H           -2.708047482738    -2.550242967504    -0.152538471802     1.007825032230
         H           -5.033290482738    -1.638900967504    -0.056007471802     1.007825032230
         H           -5.304050482738    -0.014956967504     0.386812528198     1.007825032230

  Running in c1 symmetry.

  Rotational constants: A =      0.03276  B =      0.01116  C =      0.00877 [cm^-1]
  Rotational constants: A =    982.01689  B =    334.42491  C =    262.95564 [MHz]
  Nuclear repulsion = 1172.288350048653683

  Charge       = 0
  Multiplicity = 1
  Electrons    = 120
  Nalpha       = 60
  Nbeta        = 60

  ==> Algorithm <==

  SCF Algorithm Type is DF.
  DIIS enabled.
  MOM disabled.
  Fractional occupation disabled.
  Guess Type is SAD.
  Energy threshold   = 1.00e-10
  Density threshold  = 1.00e-10
  Integral threshold = 0.00e+00

  ==> Primary Basis <==

  Basis Set: AUG-CC-PVTZ
    Blend: AUG-CC-PVTZ
    Number of shells: 341
    Number of basis function: 1035
    Number of Cartesian functions: 1205
    Spherical Harmonics?: true
    Max angular momentum: 3

   => Loading Basis Set <=

    Name: (AUG-CC-PVTZ AUX)
    Role: JKFIT
    Keyword: DF_BASIS_SCF
    atoms 1-4   entry O          line   286 file /home/xy3866/psi4conda/share/psi4/basis/aug-cc-pvtz-jkfit.gbs 
    atoms 5-7   entry N          line   224 file /home/xy3866/psi4conda/share/psi4/basis/aug-cc-pvtz-jkfit.gbs 
    atoms 8-16  entry C          line   162 file /home/xy3866/psi4conda/share/psi4/basis/aug-cc-pvtz-jkfit.gbs 
    atoms 17-29 entry H          line    70 file /home/xy3866/psi4conda/share/psi4/basis/aug-cc-pvtz-jkfit.gbs 

  ==> Pre-Iterations <==

   -------------------------------------------------------
    Irrep   Nso     Nmo     Nalpha   Nbeta   Ndocc  Nsocc
   -------------------------------------------------------
     A       1035    1035       0       0       0       0
   -------------------------------------------------------
    Total    1035    1035      60      60      60       0
   -------------------------------------------------------

  ==> Integral Setup <==

  DFHelper Memory: AOs need 15.959 GiB; user supplied 22.352 GiB. Using in-core AOs.

  ==> MemDFJK: Density-Fitted J/K Matrices <==

    J tasked:                   Yes
    K tasked:                   Yes
    wK tasked:                   No
    OpenMP threads:               8
    Memory [MiB]:             22888
    Algorithm:                 Disk
    Schwarz Cutoff:           1E-12
    Mask sparsity (%):      13.3615
    Fitting Condition:        1E-10

   => Auxiliary Basis Set <=

  Basis Set: (AUG-CC-PVTZ AUX)
    Blend: AUG-CC-PVTZ-JKFIT
    Number of shells: 662
    Number of basis function: 2262
    Number of Cartesian functions: 2811
    Spherical Harmonics?: true
    Max angular momentum: 4

  Minimum eigenvalue in the overlap matrix is 9.4775925589E-07.
  Using Symmetric Orthogonalization.

  SCF Guess: Superposition of Atomic Densities via on-the-fly atomic UHF.

  ==> Iterations <==

                           Total Energy        Delta E     RMS |[F,P]|

   @DF-RHF iter SAD:  -811.18238700431266   -8.11182e+02   0.00000e+00 
   @DF-RHF iter   1:  -810.99004636741324    1.92341e-01   9.49371e-04 DIIS
   @DF-RHF iter   2:  -811.36791915555966   -3.77873e-01   5.21524e-04 DIIS
   @DF-RHF iter   3:  -811.46780245547052   -9.98833e-02   1.04663e-04 DIIS
   @DF-RHF iter   4:  -811.47459370923139   -6.79125e-03   4.42012e-05 DIIS
   @DF-RHF iter   5:  -811.47571827180366   -1.12456e-03   9.70354e-06 DIIS
   @DF-RHF iter   6:  -811.47582054794862   -1.02276e-04   4.67785e-06 DIIS
   @DF-RHF iter   7:  -811.47584540988964   -2.48619e-05   1.71367e-06 DIIS
   @DF-RHF iter   8:  -811.47585090218092   -5.49229e-06   6.81897e-07 DIIS
   @DF-RHF iter   9:  -811.47585179922703   -8.97046e-07   2.51438e-07 DIIS
   @DF-RHF iter  10:  -811.47585191437304   -1.15146e-07   9.64520e-08 DIIS
   @DF-RHF iter  11:  -811.47585193165787   -1.72848e-08   3.19933e-08 DIIS
   @DF-RHF iter  12:  -811.47585193321299   -1.55512e-09   1.23622e-08 DIIS
   @DF-RHF iter  13:  -811.47585193341388   -2.00885e-10   4.09045e-09 DIIS
   @DF-RHF iter  14:  -811.47585193343878   -2.48974e-11   1.70720e-09 DIIS
   @DF-RHF iter  15:  -811.47585193344912   -1.03455e-11   7.10245e-10 DIIS
   @DF-RHF iter  16:  -811.47585193344969   -5.68434e-13   2.88184e-10 DIIS
   @DF-RHF iter  17:  -811.47585193344662    3.06954e-12   1.29839e-10 DIIS
   @DF-RHF iter  18:  -811.47585193344787   -1.25056e-12   4.08207e-11 DIIS
  Energy and wave function converged.


  ==> Post-Iterations <==

    Orbital Energies [Eh]
    ---------------------

    Doubly Occupied:                                                      

       1A    -20.576719     2A    -20.572826     3A    -20.570630  
       4A    -20.497507     5A    -15.615254     6A    -15.595593  
       7A    -15.536779     8A    -11.364263     9A    -11.350422  
      10A    -11.327387    11A    -11.309471    12A    -11.299138  
      13A    -11.295634    14A    -11.291428    15A    -11.236244  
      16A    -11.234549    17A     -1.414599    18A     -1.381902  
      19A     -1.372340    20A     -1.364253    21A     -1.294264  
      22A     -1.260646    23A     -1.178258    24A     -1.081771  
      25A     -1.070216    26A     -1.027542    27A     -0.927284  
      28A     -0.894525    29A     -0.873206    30A     -0.831558  
      31A     -0.805287    32A     -0.759448    33A     -0.736510  
      34A     -0.719854    35A     -0.710270    36A     -0.691625  
      37A     -0.688853    38A     -0.677587    39A     -0.655743  
      40A     -0.632259    41A     -0.628775    42A     -0.614679  
      43A     -0.606213    44A     -0.598197    45A     -0.587773  
      46A     -0.569695    47A     -0.567561    48A     -0.543631  
      49A     -0.532456    50A     -0.521036    51A     -0.509529  
      52A     -0.484655    53A     -0.482649    54A     -0.467369  
      55A     -0.459923    56A     -0.441379    57A     -0.432536  
      58A     -0.413570    59A     -0.385670    60A     -0.337845  

    Virtual:                                                              

      61A      0.018019    62A      0.023312    63A      0.029802  
      64A      0.037644    65A      0.039414    66A      0.045949  
      67A      0.050389    68A      0.055487    69A      0.057952  
      70A      0.061192    71A      0.063871    72A      0.073664  
      73A      0.079170    74A      0.089334    75A      0.090652  
      76A      0.094896    77A      0.101494    78A      0.102812  
      79A      0.105742    80A      0.106317    81A      0.112235  
      82A      0.116447    83A      0.119624    84A      0.121453  
      85A      0.126812    86A      0.128234    87A      0.130142  
      88A      0.134047    89A      0.140138    90A      0.142808  
      91A      0.146066    92A      0.149365    93A      0.151592  
      94A      0.155651    95A      0.156671    96A      0.162195  
      97A      0.166552    98A      0.168169    99A      0.174266  
     100A      0.175069   101A      0.179198   102A      0.182141  
     103A      0.183463   104A      0.188992   105A      0.195956  
     106A      0.200981   107A      0.204662   108A      0.206531  
     109A      0.213650   110A      0.217419   111A      0.228280  
     112A      0.230921   113A      0.233566   114A      0.235122  
     115A      0.242674   116A      0.243459   117A      0.246217  
     118A      0.250831   119A      0.252576   120A      0.255091  
     121A      0.261062   122A      0.264160   123A      0.269210  
     124A      0.272671   125A      0.278981   126A      0.280037  
     127A      0.284673   128A      0.289118   129A      0.292151  
     130A      0.294078   131A      0.297104   132A      0.301333  
     133A      0.302609   134A      0.308127   135A      0.312368  
     136A      0.314650   137A      0.317193   138A      0.319611  
     139A      0.324769   140A      0.327321   141A      0.330322  
     142A      0.334394   143A      0.336932   144A      0.338068  
     145A      0.342910   146A      0.348931   147A      0.352747  
     148A      0.356220   149A      0.358891   150A      0.363202  
     151A      0.366336   152A      0.372059   153A      0.375822  
     154A      0.379943   155A      0.380969   156A      0.384078  
     157A      0.388092   158A      0.389738   159A      0.395281  
     160A      0.400731   161A      0.402939   162A      0.405412  
     163A      0.410455   164A      0.413840   165A      0.417549  
     166A      0.417899   167A      0.425169   168A      0.425498  
     169A      0.427602   170A      0.433691   171A      0.435404  
     172A      0.439511   173A      0.442997   174A      0.448506  
     175A      0.453525   176A      0.457630   177A      0.458535  
     178A      0.463571   179A      0.468331   180A      0.472862  
     181A      0.475897   182A      0.479642   183A      0.482315  
     184A      0.486306   185A      0.489185   186A      0.490946  
     187A      0.494820   188A      0.498593   189A      0.503135  
     190A      0.503894   191A      0.510312   192A      0.512089  
     193A      0.513687   194A      0.517407   195A      0.521051  
     196A      0.523289   197A      0.528729   198A      0.532158  
     199A      0.534593   200A      0.540093   201A      0.543800  
     202A      0.546105   203A      0.550503   204A      0.552437  
     205A      0.555177   206A      0.560430   207A      0.565509  
     208A      0.567730   209A      0.570659   210A      0.576696  
     211A      0.577959   212A      0.585600   213A      0.589495  
     214A      0.591246   215A      0.595062   216A      0.599389  
     217A      0.601777   218A      0.605110   219A      0.611943  
     220A      0.616133   221A      0.620790   222A      0.625123  
     223A      0.632555   224A      0.635176   225A      0.636773  
     226A      0.644592   227A      0.649615   228A      0.650872  
     229A      0.651665   230A      0.653465   231A      0.659475  
     232A      0.662958   233A      0.670023   234A      0.673647  
     235A      0.681300   236A      0.683003   237A      0.687376  
     238A      0.690104   239A      0.699036   240A      0.699830  
     241A      0.703586   242A      0.709799   243A      0.713525  
     244A      0.716367   245A      0.721045   246A      0.724973  
     247A      0.732262   248A      0.736929   249A      0.739198  
     250A      0.742022   251A      0.749245   252A      0.758334  
     253A      0.760550   254A      0.766614   255A      0.774117  
     256A      0.778287   257A      0.782182   258A      0.784906  
     259A      0.788432   260A      0.790447   261A      0.803957  
     262A      0.808563   263A      0.814139   264A      0.820573  
     265A      0.824997   266A      0.828172   267A      0.837268  
     268A      0.842627   269A      0.843598   270A      0.850026  
     271A      0.854351   272A      0.858301   273A      0.862267  
     274A      0.867418   275A      0.875636   276A      0.877708  
     277A      0.881172   278A      0.888114   279A      0.889581  
     280A      0.894761   281A      0.900896   282A      0.906281  
     283A      0.910178   284A      0.914735   285A      0.918811  
     286A      0.920565   287A      0.928613   288A      0.930339  
     289A      0.936254   290A      0.939138   291A      0.947325  
     292A      0.951317   293A      0.955627   294A      0.957401  
     295A      0.959089   296A      0.963672   297A      0.969608  
     298A      0.974322   299A      0.982951   300A      0.986800  
     301A      0.991679   302A      0.995357   303A      1.001622  
     304A      1.006076   305A      1.012335   306A      1.013133  
     307A      1.015921   308A      1.017081   309A      1.024798  
     310A      1.028819   311A      1.032128   312A      1.033772  
     313A      1.036555   314A      1.045416   315A      1.045794  
     316A      1.053188   317A      1.057008   318A      1.059850  
     319A      1.062977   320A      1.063536   321A      1.073199  
     322A      1.079244   323A      1.081305   324A      1.083189  
     325A      1.090508   326A      1.094313   327A      1.097011  
     328A      1.098451   329A      1.100172   330A      1.102899  
     331A      1.112398   332A      1.114883   333A      1.120320  
     334A      1.126698   335A      1.129862   336A      1.133253  
     337A      1.137849   338A      1.143618   339A      1.146333  
     340A      1.148091   341A      1.157471   342A      1.158487  
     343A      1.160879   344A      1.170318   345A      1.174885  
     346A      1.177748   347A      1.179961   348A      1.182259  
     349A      1.184402   350A      1.193435   351A      1.194973  
     352A      1.200601   353A      1.205589   354A      1.208775  
     355A      1.215684   356A      1.216085   357A      1.222831  
     358A      1.226232   359A      1.232513   360A      1.233511  
     361A      1.238476   362A      1.244808   363A      1.250531  
     364A      1.254079   365A      1.259047   366A      1.265909  
     367A      1.267701   368A      1.278446   369A      1.280898  
     370A      1.286791   371A      1.291264   372A      1.301236  
     373A      1.304462   374A      1.310399   375A      1.314437  
     376A      1.317657   377A      1.323942   378A      1.330064  
     379A      1.334041   380A      1.341646   381A      1.345019  
     382A      1.348167   383A      1.350419   384A      1.354372  
     385A      1.360566   386A      1.371033   387A      1.382097  
     388A      1.388232   389A      1.389129   390A      1.397674  
     391A      1.406211   392A      1.414779   393A      1.415726  
     394A      1.420267   395A      1.430019   396A      1.434108  
     397A      1.438341   398A      1.449000   399A      1.449834  
     400A      1.459592   401A      1.465565   402A      1.469078  
     403A      1.470466   404A      1.479515   405A      1.483787  
     406A      1.492222   407A      1.494387   408A      1.499279  
     409A      1.505319   410A      1.511044   411A      1.517409  
     412A      1.524310   413A      1.526059   414A      1.533281  
     415A      1.533946   416A      1.540681   417A      1.542141  
     418A      1.548824   419A      1.555907   420A      1.562842  
     421A      1.567205   422A      1.567695   423A      1.573938  
     424A      1.576871   425A      1.577404   426A      1.592313  
     427A      1.600110   428A      1.602408   429A      1.606080  
     430A      1.614532   431A      1.621811   432A      1.624596  
     433A      1.631179   434A      1.637311   435A      1.644527  
     436A      1.651040   437A      1.656987   438A      1.665637  
     439A      1.666222   440A      1.675924   441A      1.678914  
     442A      1.691336   443A      1.693459   444A      1.695454  
     445A      1.699843   446A      1.710198   447A      1.715038  
     448A      1.718253   449A      1.729237   450A      1.732941  
     451A      1.737069   452A      1.742730   453A      1.747003  
     454A      1.752713   455A      1.760478   456A      1.762996  
     457A      1.771108   458A      1.777399   459A      1.781152  
     460A      1.785159   461A      1.792542   462A      1.799719  
     463A      1.807742   464A      1.812915   465A      1.816584  
     466A      1.820746   467A      1.826260   468A      1.828878  
     469A      1.834184   470A      1.840910   471A      1.849337  
     472A      1.855110   473A      1.859463   474A      1.866876  
     475A      1.875310   476A      1.875416   477A      1.881682  
     478A      1.884535   479A      1.896654   480A      1.906542  
     481A      1.910377   482A      1.917373   483A      1.922230  
     484A      1.927239   485A      1.932139   486A      1.939243  
     487A      1.946833   488A      1.953883   489A      1.957429  
     490A      1.965309   491A      1.974339   492A      1.985039  
     493A      1.990279   494A      1.995925   495A      1.999563  
     496A      2.004216   497A      2.009267   498A      2.016416  
     499A      2.020389   500A      2.028099   501A      2.032456  
     502A      2.035259   503A      2.038953   504A      2.044918  
     505A      2.051632   506A      2.054914   507A      2.062330  
     508A      2.066185   509A      2.078178   510A      2.080569  
     511A      2.090337   512A      2.101876   513A      2.107988  
     514A      2.114496   515A      2.120029   516A      2.131141  
     517A      2.133591   518A      2.144728   519A      2.146590  
     520A      2.153885   521A      2.156949   522A      2.165597  
     523A      2.171762   524A      2.177706   525A      2.180286  
     526A      2.186632   527A      2.199164   528A      2.201467  
     529A      2.218545   530A      2.226034   531A      2.232704  
     532A      2.240312   533A      2.246963   534A      2.252486  
     535A      2.257270   536A      2.268476   537A      2.270794  
     538A      2.281816   539A      2.284710   540A      2.288668  
     541A      2.294904   542A      2.308811   543A      2.312673  
     544A      2.322680   545A      2.332786   546A      2.338103  
     547A      2.348323   548A      2.356491   549A      2.359238  
     550A      2.375263   551A      2.380905   552A      2.387030  
     553A      2.397750   554A      2.405968   555A      2.410637  
     556A      2.422459   557A      2.430771   558A      2.436104  
     559A      2.448079   560A      2.461544   561A      2.468149  
     562A      2.473780   563A      2.477910   564A      2.484975  
     565A      2.487662   566A      2.506264   567A      2.511395  
     568A      2.520258   569A      2.522998   570A      2.535923  
     571A      2.551705   572A      2.552313   573A      2.561473  
     574A      2.565310   575A      2.574995   576A      2.588005  
     577A      2.588467   578A      2.601055   579A      2.608428  
     580A      2.616590   581A      2.622054   582A      2.638809  
     583A      2.648174   584A      2.651552   585A      2.653927  
     586A      2.661410   587A      2.674769   588A      2.683834  
     589A      2.688821   590A      2.704466   591A      2.717752  
     592A      2.721293   593A      2.739568   594A      2.749860  
     595A      2.753966   596A      2.757931   597A      2.774743  
     598A      2.786773   599A      2.793989   600A      2.807594  
     601A      2.817624   602A      2.831056   603A      2.845393  
     604A      2.845941   605A      2.858339   606A      2.860376  
     607A      2.865554   608A      2.889482   609A      2.891253  
     610A      2.901981   611A      2.917614   612A      2.919290  
     613A      2.926202   614A      2.934526   615A      2.939534  
     616A      2.948229   617A      2.953847   618A      2.963835  
     619A      2.980528   620A      2.991439   621A      2.996782  
     622A      3.009764   623A      3.025442   624A      3.041686  
     625A      3.053737   626A      3.065476   627A      3.078603  
     628A      3.082100   629A      3.085011   630A      3.101150  
     631A      3.109658   632A      3.113519   633A      3.125994  
     634A      3.138255   635A      3.141861   636A      3.145234  
     637A      3.167177   638A      3.180507   639A      3.188552  
     640A      3.195994   641A      3.212404   642A      3.219048  
     643A      3.234876   644A      3.241567   645A      3.258106  
     646A      3.266284   647A      3.283578   648A      3.299578  
     649A      3.302801   650A      3.309967   651A      3.318583  
     652A      3.345946   653A      3.350000   654A      3.357475  
     655A      3.363565   656A      3.379784   657A      3.389558  
     658A      3.401230   659A      3.414697   660A      3.431610  
     661A      3.450423   662A      3.464499   663A      3.476757  
     664A      3.483272   665A      3.497224   666A      3.515374  
     667A      3.522921   668A      3.544951   669A      3.548075  
     670A      3.562815   671A      3.573415   672A      3.582086  
     673A      3.599333   674A      3.609948   675A      3.616685  
     676A      3.631258   677A      3.637882   678A      3.657353  
     679A      3.663583   680A      3.677814   681A      3.679233  
     682A      3.686810   683A      3.703752   684A      3.714290  
     685A      3.722929   686A      3.730420   687A      3.744451  
     688A      3.750376   689A      3.763299   690A      3.768770  
     691A      3.779197   692A      3.790278   693A      3.797354  
     694A      3.804921   695A      3.808429   696A      3.816123  
     697A      3.824249   698A      3.840739   699A      3.845077  
     700A      3.851874   701A      3.855479   702A      3.866837  
     703A      3.881225   704A      3.891008   705A      3.900930  
     706A      3.907339   707A      3.912509   708A      3.913955  
     709A      3.931028   710A      3.935900   711A      3.950047  
     712A      3.964179   713A      3.968432   714A      3.977422  
     715A      3.980399   716A      3.991854   717A      3.998810  
     718A      4.009304   719A      4.020239   720A      4.022075  
     721A      4.032140   722A      4.036729   723A      4.043607  
     724A      4.051904   725A      4.070511   726A      4.076483  
     727A      4.077260   728A      4.084123   729A      4.094811  
     730A      4.098965   731A      4.103807   732A      4.113394  
     733A      4.128783   734A      4.131733   735A      4.139834  
     736A      4.143214   737A      4.155518   738A      4.164078  
     739A      4.168252   740A      4.178554   741A      4.193063  
     742A      4.201012   743A      4.206365   744A      4.217888  
     745A      4.229108   746A      4.234685   747A      4.238897  
     748A      4.252336   749A      4.254057   750A      4.260960  
     751A      4.272193   752A      4.280380   753A      4.287815  
     754A      4.303337   755A      4.308698   756A      4.310678  
     757A      4.321075   758A      4.326390   759A      4.330505  
     760A      4.338917   761A      4.352510   762A      4.359044  
     763A      4.362659   764A      4.367222   765A      4.376681  
     766A      4.388802   767A      4.398510   768A      4.400932  
     769A      4.406218   770A      4.413405   771A      4.416255  
     772A      4.434252   773A      4.436768   774A      4.442028  
     775A      4.451616   776A      4.452929   777A      4.463960  
     778A      4.471389   779A      4.484478   780A      4.486520  
     781A      4.496032   782A      4.510201   783A      4.522582  
     784A      4.525042   785A      4.535231   786A      4.548433  
     787A      4.561428   788A      4.568851   789A      4.577520  
     790A      4.584953   791A      4.598555   792A      4.604678  
     793A      4.617919   794A      4.631779   795A      4.640581  
     796A      4.644342   797A      4.658785   798A      4.663660  
     799A      4.676313   800A      4.685720   801A      4.699084  
     802A      4.703265   803A      4.715052   804A      4.723600  
     805A      4.724728   806A      4.732940   807A      4.741975  
     808A      4.758934   809A      4.763649   810A      4.778674  
     811A      4.786951   812A      4.797044   813A      4.802341  
     814A      4.819347   815A      4.824405   816A      4.838265  
     817A      4.840315   818A      4.846996   819A      4.864829  
     820A      4.878923   821A      4.886276   822A      4.893786  
     823A      4.904687   824A      4.913224   825A      4.925258  
     826A      4.932530   827A      4.952792   828A      4.962473  
     829A      4.972406   830A      4.977815   831A      4.986044  
     832A      5.009338   833A      5.012655   834A      5.022350  
     835A      5.033404   836A      5.045705   837A      5.055760  
     838A      5.069962   839A      5.079524   840A      5.089018  
     841A      5.092739   842A      5.116540   843A      5.122645  
     844A      5.124171   845A      5.145948   846A      5.150947  
     847A      5.156410   848A      5.165584   849A      5.177888  
     850A      5.193195   851A      5.196761   852A      5.212324  
     853A      5.223179   854A      5.225049   855A      5.253089  
     856A      5.260638   857A      5.276667   858A      5.282657  
     859A      5.294841   860A      5.305360   861A      5.319074  
     862A      5.324164   863A      5.338151   864A      5.343019  
     865A      5.343770   866A      5.353029   867A      5.359328  
     868A      5.372330   869A      5.381786   870A      5.389956  
     871A      5.397864   872A      5.411631   873A      5.426372  
     874A      5.432341   875A      5.443689   876A      5.454894  
     877A      5.462983   878A      5.483673   879A      5.488517  
     880A      5.500325   881A      5.506648   882A      5.520825  
     883A      5.527180   884A      5.541843   885A      5.558924  
     886A      5.580805   887A      5.591937   888A      5.599155  
     889A      5.604518   890A      5.608752   891A      5.628718  
     892A      5.633896   893A      5.644210   894A      5.657515  
     895A      5.664466   896A      5.689408   897A      5.693981  
     898A      5.703858   899A      5.714789   900A      5.727048  
     901A      5.742623   902A      5.748467   903A      5.754159  
     904A      5.786716   905A      5.795093   906A      5.808115  
     907A      5.834973   908A      5.842114   909A      5.860065  
     910A      5.878225   911A      5.883030   912A      5.894345  
     913A      5.912257   914A      5.927791   915A      5.951475  
     916A      5.973470   917A      5.988891   918A      5.994705  
     919A      6.005273   920A      6.017655   921A      6.024227  
     922A      6.045377   923A      6.054286   924A      6.065775  
     925A      6.105963   926A      6.125735   927A      6.144723  
     928A      6.158273   929A      6.168904   930A      6.175321  
     931A      6.188855   932A      6.233621   933A      6.239426  
     934A      6.251632   935A      6.260998   936A      6.272273  
     937A      6.312194   938A      6.313801   939A      6.354865  
     940A      6.371389   941A      6.389137   942A      6.443620  
     943A      6.474784   944A      6.527732   945A      6.541254  
     946A      6.586551   947A      6.667604   948A      6.674103  
     949A      6.706310   950A      6.727521   951A      6.739446  
     952A      6.750313   953A      6.789159   954A      6.792630  
     955A      6.820423   956A      6.824046   957A      6.860698  
     958A      6.885707   959A      6.906004   960A      6.910583  
     961A      6.954417   962A      6.958891   963A      6.973453  
     964A      6.981150   965A      6.983840   966A      7.004049  
     967A      7.014470   968A      7.053912   969A      7.063057  
     970A      7.074672   971A      7.110547   972A      7.119420  
     973A      7.128529   974A      7.142269   975A      7.178711  
     976A      7.191076   977A      7.214813   978A      7.232000  
     979A      7.252689   980A      7.279148   981A      7.307789  
     982A      7.324987   983A      7.345543   984A      7.367948  
     985A      7.387756   986A      7.406884   987A      7.426448  
     988A      7.455377   989A      7.497940   990A      7.513347  
     991A      7.515239   992A      7.526476   993A      7.555050  
     994A      7.580374   995A      7.597136   996A      7.622636  
     997A      7.635265   998A      7.644625   999A      7.675443  
    1000A      7.729723  1001A      7.748039  1002A      7.812699  
    1003A      7.835562  1004A      7.875349  1005A      7.921584  
    1006A      7.959668  1007A      7.983629  1008A      8.006104  
    1009A      8.034278  1010A      8.063211  1011A      8.076532  
    1012A      8.181379  1013A      8.203816  1014A      8.281728  
    1015A      8.311458  1016A      8.481038  1017A      8.569086  
    1018A      8.616948  1019A      8.719067  1020A     15.975006  
    1021A     16.221881  1022A     16.613610  1023A     16.827549  
    1024A     17.080227  1025A     17.588226  1026A     18.102672  
    1027A     18.846419  1028A     18.938794  1029A     19.241827  
    1030A     19.401859  1031A     20.180288  1032A     20.291146  
    1033A     20.350133  1034A     20.881592  1035A     21.795054  

    Final Occupation by Irrep:
              A 
    DOCC [    60 ]

  @DF-RHF Final Energy:  -811.47585193344787

   => Energetics <=

    Nuclear Repulsion Energy =           1172.2883500486536832
    One-Electron Energy =               -3439.7108256412734590
    Two-Electron Energy =                1455.9466236591717916
    Total Energy =                       -811.4758519334479843

Computation Completed

*** tstop() called on node35.bme.utexas.edu at Sat Nov 14 07:51:04 2020
Module time:
	user time   =    1859.12 seconds =      30.99 minutes
	system time =     425.58 seconds =       7.09 minutes
	total time  =        541 seconds =       9.02 minutes
Total time:
	user time   =    1859.12 seconds =      30.99 minutes
	system time =     425.58 seconds =       7.09 minutes
	total time  =        541 seconds =       9.02 minutes
   => Loading Basis Set <=

    Name: (AUG-CC-PVTZ AUX)
    Role: RIFIT
    Keyword: DF_BASIS_MP2
    atoms 1-4   entry O          line   264 file /home/xy3866/psi4conda/share/psi4/basis/aug-cc-pvtz-ri.gbs 
    atoms 5-7   entry N          line   206 file /home/xy3866/psi4conda/share/psi4/basis/aug-cc-pvtz-ri.gbs 
    atoms 8-16  entry C          line   148 file /home/xy3866/psi4conda/share/psi4/basis/aug-cc-pvtz-ri.gbs 
    atoms 17-29 entry H          line    30 file /home/xy3866/psi4conda/share/psi4/basis/aug-cc-pvtz-ri.gbs 


*** tstart() called on node35.bme.utexas.edu
*** at Sat Nov 14 07:51:04 2020


  //>>>>>>>>>>>>>>>>>>>>>>>>>>>>>>>>>>>//
  //               DFMP2               //
  //<<<<<<<<<<<<<<<<<<<<<<<<<<<<<<<<<<<//

	 --------------------------------------------------------
	                          DF-MP2                         
	      2nd-Order Density-Fitted Moller-Plesset Theory     
	              RMP2 Wavefunction,   8 Threads             
	                                                         
	        Rob Parrish, Justin Turney, Andy Simmonett,      
	           Ed Hohenstein, and C. David Sherrill          
	 --------------------------------------------------------

   => Auxiliary Basis Set <=

  Basis Set: (AUG-CC-PVTZ AUX)
    Blend: AUG-CC-PVTZ-RI
    Number of shells: 630
    Number of basis function: 2294
    Number of Cartesian functions: 2891
    Spherical Harmonics?: true
    Max angular momentum: 4

	 --------------------------------------------------------
	                 NBF =  1035, NAUX =  2294
	 --------------------------------------------------------
	   CLASS    FOCC     OCC    AOCC    AVIR     VIR    FVIR
	   PAIRS       0      60      60     975     975       0
	 --------------------------------------------------------

  DFHelper Memory: AOs need 15.959 GiB; user supplied 22.352 GiB. Using in-core AOs.


         ------------------------------------------------------------
                                     CPHF                           
                                  Rob Parrish                       
         ------------------------------------------------------------

  ==> Geometry <==

    Molecular point group: c1
    Full point group: C1

    Geometry (in Angstrom), charge = 0, multiplicity = 1:

       Center              X                  Y                   Z               Mass       
    ------------   -----------------  -----------------  -----------------  -----------------
         O            1.357491517262    -0.381169967504    -0.931132471802    15.994914619570
         O            3.197477517262     1.900054032496    -0.298801471802    15.994914619570
         O            2.794827517262    -2.750105967504    -0.399489471802    15.994914619570
         O           -1.366765482738     2.372846032496     0.155494528198    15.994914619570
         N           -0.802823482738     0.198259032496    -0.228544471802    14.003074004430
         N           -3.014998782738     0.793220832496     0.231745928198    14.003074004430
         N           -4.677989482738    -0.813593967504     0.413348528198    14.003074004430
         C            2.697015517262     0.874395032496     0.560185528198    12.000000000000
         C            1.232264517262     1.106067032496     0.888563528198    12.000000000000
         C            2.647239517262    -0.393449967504    -0.284758471802    12.000000000000
         C            0.569378517262     0.681845032496    -0.414204471802    12.000000000000
         C            2.797518517262    -1.661174967504     0.523181528198    12.000000000000
         C           -1.131916482738    -1.116977967504    -0.307564471802    12.000000000000
         C           -1.749267482738     1.202733032496     0.082756528198    12.000000000000
         C           -2.386279682738    -1.471116267504    -0.106818771802    12.000000000000
         C           -3.366571482738    -0.474318967504     0.169222528198    12.000000000000
         H            3.329801517262     0.755626032496     1.451564528198     1.007825032230
         H            0.900127517262     0.442670032496     1.694200528198     1.007825032230
         H            0.980749517262     2.132908032496     1.158858528198     1.007825032230
         H            0.522874517262     1.512095032496    -1.124201471802     1.007825032230
         H            3.412912517262    -0.365441967504    -1.065914471802     1.007825032230
         H            1.966169517262    -1.734342967504     1.243934528198     1.007825032230
         H            3.741509517262    -1.610673967504     1.089000528198     1.007825032230
         H            3.099271517262     2.745165032496     0.178694528198     1.007825032230
         H           -0.315319482738    -1.790359967504    -0.542986471802     1.007825032230
         H            2.905450517262    -3.566230967504     0.119923528198     1.007825032230
         H           -2.708047482738    -2.550242967504    -0.152538471802     1.007825032230
         H           -5.033290482738    -1.638900967504    -0.056007471802     1.007825032230
         H           -5.304050482738    -0.014956967504     0.386812528198     1.007825032230

  Nuclear repulsion = 1172.288350048653683
  Reference energy  = -811.475851933447871

  ==> Basis Set <==

  Basis Set: AUG-CC-PVTZ
    Blend: AUG-CC-PVTZ
    Number of shells: 341
    Number of basis function: 1035
    Number of Cartesian functions: 1205
    Spherical Harmonics?: true
    Max angular momentum: 3

  ==> CGRSolver (by Rob Parrish) <==

   Number of roots    =         1
   Preconditioning    =    JACOBI
   Convergence cutoff =     1E-06
   Maximum iterations =       100

  ==> CPHFRHamiltonian (by Rob Parrish) <== 

  ==> MemDFJK: Density-Fitted J/K Matrices <==

    J tasked:                   Yes
    K tasked:                   Yes
    wK tasked:                   No
    OpenMP threads:               8
    Memory [MiB]:             22888
    Algorithm:                 Disk
    Schwarz Cutoff:           1E-12
    Mask sparsity (%):      13.3615
    Fitting Condition:        1E-10

   => Auxiliary Basis Set <=

  Basis Set: (AUG-CC-PVTZ AUX)
    Blend: AUG-CC-PVTZ-JKFIT
    Number of shells: 662
    Number of basis function: 2262
    Number of Cartesian functions: 2811
    Spherical Harmonics?: true
    Max angular momentum: 4

  ==> CPHF Iterations <==

  => Iterations <=

             Iter  Converged  Remaining    Residual
  CGR           1          0          1   1.217E-01
  CGR           2          0          1   3.841E-02
  CGR           3          0          1   1.952E-02
  CGR           4          0          1   5.854E-03
  CGR           5          0          1   2.541E-03
  CGR           6          0          1   9.506E-04
  CGR           7          0          1   3.019E-04
  CGR           8          0          1   1.105E-04
  CGR           9          0          1   3.713E-05
  CGR          10          0          1   1.454E-05
  CGR          11          0          1   6.373E-06
  CGR          12          0          1   2.255E-06
  CGR          13          1          0   8.756E-07

    CGRSolver converged.

	-----------------------------------------------------------
	 ==================> DF-MP2 Energies <==================== 
	-----------------------------------------------------------
	 Reference Energy          =    -811.4758519334478706 [Eh]
	 Singles Energy            =      -0.0000000000000000 [Eh]
	 Same-Spin Energy          =      -0.8297474044489768 [Eh]
	 Opposite-Spin Energy      =      -2.5242799878042188 [Eh]
	 Correlation Energy        =      -3.3540273922531956 [Eh]
	 Total Energy              =    -814.8298793257010857 [Eh]
	-----------------------------------------------------------
	 ================> DF-SCS-MP2 Energies <================== 
	-----------------------------------------------------------
	 SCS Same-Spin Scale       =       0.3333333333333333 [-]
	 SCS Opposite-Spin Scale   =       1.2000000000000000 [-]
	 SCS Same-Spin Energy      =      -0.2765824681496589 [Eh]
	 SCS Opposite-Spin Energy  =      -3.0291359853650626 [Eh]
	 SCS Correlation Energy    =      -3.3057184535147215 [Eh]
	 SCS Total Energy          =    -814.7815703869625850 [Eh]
	-----------------------------------------------------------



Properties will be evaluated at  -0.000000,   0.000000,  -0.000000 [a0]

Properties computed using the MP2 density matrix

  Nuclear Dipole Moment: [e a0]
     X:     7.0827      Y:    -5.3224      Z:     4.0991

  Electronic Dipole Moment: [e a0]
     X:    -6.7916      Y:     3.4404      Z:    -3.1076

  Dipole Moment: [e a0]
     X:     0.2911      Y:    -1.8820      Z:     0.9915     Total:     2.1470

  Dipole Moment: [D]
     X:     0.7400      Y:    -4.7836      Z:     2.5201     Total:     5.4572


*** tstop() called on node35.bme.utexas.edu at Sat Nov 14 08:18:25 2020
Module time:
	user time   =    8539.14 seconds =     142.32 minutes
	system time =    1428.05 seconds =      23.80 minutes
	total time  =       1641 seconds =      27.35 minutes
Total time:
	user time   =   10398.60 seconds =     173.31 minutes
	system time =    1853.64 seconds =      30.89 minutes
	total time  =       2182 seconds =      36.37 minutes

    Psi4 stopped on: Saturday, 14 November 2020 08:18AM
    Psi4 wall time for execution: 0:36:23.36

*** Psi4 exiting successfully. Buy a developer a beer!
