
    -----------------------------------------------------------------------
          Psi4: An Open-Source Ab Initio Electronic Structure Package
                               Psi4 1.3.2 release

                         Git: Rev {HEAD} ecbda83 


    R. M. Parrish, L. A. Burns, D. G. A. Smith, A. C. Simmonett,
    A. E. DePrince III, E. G. Hohenstein, U. Bozkaya, A. Yu. Sokolov,
    R. Di Remigio, R. M. Richard, J. F. Gonthier, A. M. James,
    H. R. McAlexander, A. Kumar, M. Saitow, X. Wang, B. P. Pritchard,
    P. Verma, H. F. Schaefer III, K. Patkowski, R. A. King, E. F. Valeev,
    F. A. Evangelista, J. M. Turney, T. D. Crawford, and C. D. Sherrill,
    J. Chem. Theory Comput. 13(7) pp 3185--3197 (2017).
    (doi: 10.1021/acs.jctc.7b00174)


                         Additional Contributions by
    P. Kraus, H. Kruse, M. H. Lechner, M. C. Schieber, R. A. Shaw,
    A. Alenaizan, R. Galvelis, Z. L. Glick, S. Lehtola, and J. P. Misiewicz

    -----------------------------------------------------------------------


    Psi4 started on: Tuesday, 10 November 2020 05:42AM

    Process ID: 71588
    Host:       node35.bme.utexas.edu
    PSIDATADIR: /home/xy3866/psi4conda/share/psi4
    Memory:     500.0 MiB
    Threads:    8
    
  ==> Input File <==

--------------------------------------------------------------------------
#psi4
#
memory 32 gb

molecule  {
0 1
  O        1.3153204    -0.3840056    -0.9895549
  O        3.2020570     1.9012130    -0.2995130
  O        2.7994070    -2.7489470    -0.4002010
  O       -1.3621860     2.3740050     0.1547830
  N       -0.7982440     0.1994180    -0.2292560
  N       -3.0541720     0.8052390     0.2400120
  N       -4.6734100    -0.8124350     0.4126370
  C        2.7015950     0.8755540     0.5594740
  C        1.1798721     1.1622654     0.8964814
  C        2.6518190    -0.3922910    -0.2854700
  C        0.5739580     0.6830040    -0.4149160
  C        2.8020980    -1.6600160     0.5224700
  C       -1.1273370    -1.1158190    -0.3082760
  C       -1.7446880     1.2038920     0.0820450
  C       -2.4173070    -1.5045610    -0.1045420
  C       -3.3619920    -0.4731600     0.1685110
  H        3.3343810     0.7567850     1.4508530
  H        0.9047070     0.4438290     1.6934890
  H        0.9853290     2.1340670     1.1581470
  H        0.5274540     1.5132540    -1.1249130
  H        3.4174920    -0.3642830    -1.0666260
  H        1.9707490    -1.7331840     1.2432230
  H        3.7460890    -1.6095150     1.0882890
  H        3.1038510     2.7463240     0.1779830
  H       -0.3107400    -1.7892010    -0.5436980
  H        2.9100300    -3.5650720     0.1192120
  H       -2.7034680    -2.5490840    -0.1532500
  H       -5.0287110    -1.6377420    -0.0567190
  H       -5.2994710    -0.0137980     0.3861010
units angstrom
no_reorient  #important for SAPT in psi4, default
symmetry c1  #important for SAPT in psi4, default
}

set PROPERTIES_ORIGIN ["COM"]
properties('MP2/aug-cc-pvtz', properties = ['dipole'])
--------------------------------------------------------------------------

  Memory set to  29.802 GiB by Python driver.
    SCF Algorithm Type (re)set to DF.

*** tstart() called on node35.bme.utexas.edu
*** at Tue Nov 10 05:42:17 2020

   => Loading Basis Set <=

    Name: AUG-CC-PVTZ
    Role: ORBITAL
    Keyword: BASIS
    atoms 1-4   entry O          line   327 file /home/xy3866/psi4conda/share/psi4/basis/aug-cc-pvtz.gbs 
    atoms 5-7   entry N          line   281 file /home/xy3866/psi4conda/share/psi4/basis/aug-cc-pvtz.gbs 
    atoms 8-16  entry C          line   235 file /home/xy3866/psi4conda/share/psi4/basis/aug-cc-pvtz.gbs 
    atoms 17-29 entry H          line    36 file /home/xy3866/psi4conda/share/psi4/basis/aug-cc-pvtz.gbs 


         ---------------------------------------------------------
                                   SCF
               by Justin Turney, Rob Parrish, Andy Simmonett
                          and Daniel G. A. Smith
                              RHF Reference
                        8 Threads,  30517 MiB Core
         ---------------------------------------------------------

  ==> Geometry <==

    Molecular point group: c1
    Full point group: C1

    Geometry (in Angstrom), charge = 0, multiplicity = 1:

       Center              X                  Y                   Z               Mass       
    ------------   -----------------  -----------------  -----------------  -----------------
         O            1.321623747670    -0.386632692061    -0.985946050188    15.994914619570
         O            3.208360347670     1.898585907939    -0.295904150188    15.994914619570
         O            2.805710347670    -2.751574092061    -0.396592150188    15.994914619570
         O           -1.355882652330     2.371377907939     0.158391849812    15.994914619570
         N           -0.791940652330     0.196790907939    -0.225647150188    14.003074004430
         N           -3.047868652330     0.802611907939     0.243620849812    14.003074004430
         N           -4.667106652330    -0.815062092061     0.416245849812    14.003074004430
         C            2.707898347670     0.872926907939     0.563082849812    12.000000000000
         C            1.186175447670     1.159638307939     0.900090249812    12.000000000000
         C            2.658122347670    -0.394918092061    -0.281861150188    12.000000000000
         C            0.580261347670     0.680376907939    -0.411307150188    12.000000000000
         C            2.808401347670    -1.662643092061     0.526078849812    12.000000000000
         C           -1.121033652330    -1.118446092061    -0.304667150188    12.000000000000
         C           -1.738384652330     1.201264907939     0.085653849812    12.000000000000
         C           -2.411003652330    -1.507188092061    -0.100933150188    12.000000000000
         C           -3.355688652330    -0.475787092061     0.172119849812    12.000000000000
         H            3.340684347670     0.754157907939     1.454461849812     1.007825032230
         H            0.911010347670     0.441201907939     1.697097849812     1.007825032230
         H            0.991632347670     2.131439907939     1.161755849812     1.007825032230
         H            0.533757347670     1.510626907939    -1.121304150188     1.007825032230
         H            3.423795347670    -0.366910092061    -1.063017150188     1.007825032230
         H            1.977052347670    -1.735811092061     1.246831849812     1.007825032230
         H            3.752392347670    -1.612142092061     1.091897849812     1.007825032230
         H            3.110154347670     2.743696907939     0.181591849812     1.007825032230
         H           -0.304436652330    -1.791828092061    -0.540089150188     1.007825032230
         H            2.916333347670    -3.567699092061     0.122820849812     1.007825032230
         H           -2.697164652330    -2.551711092061    -0.149641150188     1.007825032230
         H           -5.022407652330    -1.640369092061    -0.053110150188     1.007825032230
         H           -5.293167652330    -0.016425092061     0.389709849812     1.007825032230

  Running in c1 symmetry.

  Rotational constants: A =      0.03244  B =      0.01113  C =      0.00875 [cm^-1]
  Rotational constants: A =    972.61854  B =    333.56431  C =    262.21787 [MHz]
  Nuclear repulsion = 1167.653684116896329

  Charge       = 0
  Multiplicity = 1
  Electrons    = 120
  Nalpha       = 60
  Nbeta        = 60

  ==> Algorithm <==

  SCF Algorithm Type is DF.
  DIIS enabled.
  MOM disabled.
  Fractional occupation disabled.
  Guess Type is SAD.
  Energy threshold   = 1.00e-10
  Density threshold  = 1.00e-10
  Integral threshold = 0.00e+00

  ==> Primary Basis <==

  Basis Set: AUG-CC-PVTZ
    Blend: AUG-CC-PVTZ
    Number of shells: 341
    Number of basis function: 1035
    Number of Cartesian functions: 1205
    Spherical Harmonics?: true
    Max angular momentum: 3

   => Loading Basis Set <=

    Name: (AUG-CC-PVTZ AUX)
    Role: JKFIT
    Keyword: DF_BASIS_SCF
    atoms 1-4   entry O          line   286 file /home/xy3866/psi4conda/share/psi4/basis/aug-cc-pvtz-jkfit.gbs 
    atoms 5-7   entry N          line   224 file /home/xy3866/psi4conda/share/psi4/basis/aug-cc-pvtz-jkfit.gbs 
    atoms 8-16  entry C          line   162 file /home/xy3866/psi4conda/share/psi4/basis/aug-cc-pvtz-jkfit.gbs 
    atoms 17-29 entry H          line    70 file /home/xy3866/psi4conda/share/psi4/basis/aug-cc-pvtz-jkfit.gbs 

  ==> Pre-Iterations <==

   -------------------------------------------------------
    Irrep   Nso     Nmo     Nalpha   Nbeta   Ndocc  Nsocc
   -------------------------------------------------------
     A       1035    1035       0       0       0       0
   -------------------------------------------------------
    Total    1035    1035      60      60      60       0
   -------------------------------------------------------

  ==> Integral Setup <==

  DFHelper Memory: AOs need 15.950 GiB; user supplied 22.352 GiB. Using in-core AOs.

  ==> MemDFJK: Density-Fitted J/K Matrices <==

    J tasked:                   Yes
    K tasked:                   Yes
    wK tasked:                   No
    OpenMP threads:               8
    Memory [MiB]:             22888
    Algorithm:                 Disk
    Schwarz Cutoff:           1E-12
    Mask sparsity (%):      13.4123
    Fitting Condition:        1E-10

   => Auxiliary Basis Set <=

  Basis Set: (AUG-CC-PVTZ AUX)
    Blend: AUG-CC-PVTZ-JKFIT
    Number of shells: 662
    Number of basis function: 2262
    Number of Cartesian functions: 2811
    Spherical Harmonics?: true
    Max angular momentum: 4

  Minimum eigenvalue in the overlap matrix is 9.9289997403E-07.
  Using Symmetric Orthogonalization.

  SCF Guess: Superposition of Atomic Densities via on-the-fly atomic UHF.

  ==> Iterations <==

                           Total Energy        Delta E     RMS |[F,P]|

   @DF-RHF iter SAD:  -810.87813670293008   -8.10878e+02   0.00000e+00 
   @DF-RHF iter   1:  -810.98755494493605   -1.09418e-01   9.42967e-04 DIIS
   @DF-RHF iter   2:  -811.35690884167866   -3.69354e-01   5.25197e-04 DIIS
   @DF-RHF iter   3:  -811.45772467161601   -1.00816e-01   1.07470e-04 DIIS
   @DF-RHF iter   4:  -811.46480524461401   -7.08057e-03   4.43991e-05 DIIS
   @DF-RHF iter   5:  -811.46595996177814   -1.15472e-03   9.89656e-06 DIIS
   @DF-RHF iter   6:  -811.46606516288114   -1.05201e-04   4.80804e-06 DIIS
   @DF-RHF iter   7:  -811.46609154596479   -2.63831e-05   1.69900e-06 DIIS
   @DF-RHF iter   8:  -811.46609702873241   -5.48277e-06   6.77326e-07 DIIS
   @DF-RHF iter   9:  -811.46609786621650   -8.37484e-07   2.59271e-07 DIIS
   @DF-RHF iter  10:  -811.46609798056829   -1.14352e-07   1.00917e-07 DIIS
   @DF-RHF iter  11:  -811.46609799749524   -1.69269e-08   3.46313e-08 DIIS
   @DF-RHF iter  12:  -811.46609799916791   -1.67267e-09   1.39002e-08 DIIS
   @DF-RHF iter  13:  -811.46609799942235   -2.54431e-10   4.23525e-09 DIIS
   @DF-RHF iter  14:  -811.46609799945588   -3.35376e-11   1.79378e-09 DIIS
   @DF-RHF iter  15:  -811.46609799946100   -5.11591e-12   7.73821e-10 DIIS
   @DF-RHF iter  16:  -811.46609799946486   -3.86535e-12   3.28667e-10 DIIS
   @DF-RHF iter  17:  -811.46609799946259    2.27374e-12   1.52854e-10 DIIS
   @DF-RHF iter  18:  -811.46609799946577   -3.18323e-12   5.00555e-11 DIIS
  Energy and wave function converged.


  ==> Post-Iterations <==

    Orbital Energies [Eh]
    ---------------------

    Doubly Occupied:                                                      

       1A    -20.580013     2A    -20.576096     3A    -20.575356  
       4A    -20.501195     5A    -15.617999     6A    -15.586665  
       7A    -15.538750     8A    -11.367399     9A    -11.342940  
      10A    -11.328097    11A    -11.315685    12A    -11.307556  
      13A    -11.301680    14A    -11.300732    15A    -11.238394  
      16A    -11.234735    17A     -1.405353    18A     -1.380515  
      19A     -1.375232    20A     -1.362529    21A     -1.289654  
      22A     -1.257572    23A     -1.166854    24A     -1.076485  
      25A     -1.067730    26A     -1.025451    27A     -0.924550  
      28A     -0.895047    29A     -0.869946    30A     -0.829247  
      31A     -0.806097    32A     -0.752613    33A     -0.734947  
      34A     -0.720835    35A     -0.705777    36A     -0.695200  
      37A     -0.689135    38A     -0.672634    39A     -0.653103  
      40A     -0.633387    41A     -0.625223    42A     -0.616145  
      43A     -0.603271    44A     -0.591862    45A     -0.588359  
      46A     -0.570298    47A     -0.566994    48A     -0.553029  
      49A     -0.532509    50A     -0.526869    51A     -0.510101  
      52A     -0.490853    53A     -0.480408    54A     -0.469406  
      55A     -0.457460    56A     -0.442117    57A     -0.437941  
      58A     -0.413742    59A     -0.381447    60A     -0.332685  

    Virtual:                                                              

      61A      0.017547    62A      0.023701    63A      0.029222  
      64A      0.037121    65A      0.039352    66A      0.045888  
      67A      0.050096    68A      0.055025    69A      0.057965  
      70A      0.061156    71A      0.064120    72A      0.073616  
      73A      0.078431    74A      0.090063    75A      0.091392  
      76A      0.095228    77A      0.101884    78A      0.102604  
      79A      0.105286    80A      0.105990    81A      0.112513  
      82A      0.116992    83A      0.118356    84A      0.122004  
      85A      0.127560    86A      0.128449    87A      0.130372  
      88A      0.134950    89A      0.139504    90A      0.142712  
      91A      0.145695    92A      0.149526    93A      0.151532  
      94A      0.154571    95A      0.156439    96A      0.162575  
      97A      0.165483    98A      0.167161    99A      0.173218  
     100A      0.175422   101A      0.180118   102A      0.180701  
     103A      0.183172   104A      0.189494   105A      0.197148  
     106A      0.201150   107A      0.204564   108A      0.205871  
     109A      0.213085   110A      0.217503   111A      0.224543  
     112A      0.230773   113A      0.232464   114A      0.235301  
     115A      0.242755   116A      0.242930   117A      0.245700  
     118A      0.250233   119A      0.252237   120A      0.254362  
     121A      0.260514   122A      0.263117   123A      0.270394  
     124A      0.272265   125A      0.276065   126A      0.279643  
     127A      0.282473   128A      0.289675   129A      0.290026  
     130A      0.292842   131A      0.297058   132A      0.300699  
     133A      0.302664   134A      0.308402   135A      0.311921  
     136A      0.314779   137A      0.315930   138A      0.319973  
     139A      0.324933   140A      0.326568   141A      0.328136  
     142A      0.331509   143A      0.333674   144A      0.337193  
     145A      0.342986   146A      0.346937   147A      0.351032  
     148A      0.355447   149A      0.358213   150A      0.361618  
     151A      0.365790   152A      0.370063   153A      0.372993  
     154A      0.378813   155A      0.379114   156A      0.383154  
     157A      0.385861   158A      0.388546   159A      0.394555  
     160A      0.398844   161A      0.401335   162A      0.404736  
     163A      0.411712   164A      0.414113   165A      0.417304  
     166A      0.419641   167A      0.425075   168A      0.426611  
     169A      0.427254   170A      0.431829   171A      0.434878  
     172A      0.439678   173A      0.439901   174A      0.446154  
     175A      0.451719   176A      0.455753   177A      0.457610  
     178A      0.463073   179A      0.467239   180A      0.472779  
     181A      0.474581   182A      0.478072   183A      0.481017  
     184A      0.486212   185A      0.488230   186A      0.489235  
     187A      0.494007   188A      0.496597   189A      0.500105  
     190A      0.502062   191A      0.505787   192A      0.508599  
     193A      0.512164   194A      0.517340   195A      0.519219  
     196A      0.523161   197A      0.527273   198A      0.530159  
     199A      0.533476   200A      0.539116   201A      0.541714  
     202A      0.545377   203A      0.548150   204A      0.550948  
     205A      0.552996   206A      0.559419   207A      0.562207  
     208A      0.566355   209A      0.570994   210A      0.576755  
     211A      0.577767   212A      0.583003   213A      0.589139  
     214A      0.591307   215A      0.593103   216A      0.596894  
     217A      0.598727   218A      0.603102   219A      0.608313  
     220A      0.614403   221A      0.619403   222A      0.625181  
     223A      0.630400   224A      0.632733   225A      0.634942  
     226A      0.641288   227A      0.644010   228A      0.645212  
     229A      0.646753   230A      0.653694   231A      0.658730  
     232A      0.660332   233A      0.669316   234A      0.673523  
     235A      0.679123   236A      0.679676   237A      0.686465  
     238A      0.691294   239A      0.695702   240A      0.699168  
     241A      0.704198   242A      0.708013   243A      0.712657  
     244A      0.715607   245A      0.720170   246A      0.724388  
     247A      0.729861   248A      0.737566   249A      0.740255  
     250A      0.742286   251A      0.748749   252A      0.755455  
     253A      0.756794   254A      0.765945   255A      0.771487  
     256A      0.776546   257A      0.777686   258A      0.783432  
     259A      0.786682   260A      0.790122   261A      0.800278  
     262A      0.807729   263A      0.810920   264A      0.819452  
     265A      0.822535   266A      0.827352   267A      0.836490  
     268A      0.840007   269A      0.843290   270A      0.847397  
     271A      0.852637   272A      0.856795   273A      0.862010  
     274A      0.867565   275A      0.874588   276A      0.877915  
     277A      0.878924   278A      0.886556   279A      0.889790  
     280A      0.892274   281A      0.900754   282A      0.904961  
     283A      0.906645   284A      0.913654   285A      0.915850  
     286A      0.920091   287A      0.927040   288A      0.928451  
     289A      0.934647   290A      0.938421   291A      0.945158  
     292A      0.947865   293A      0.951742   294A      0.955315  
     295A      0.957408   296A      0.962736   297A      0.965143  
     298A      0.973151   299A      0.981649   300A      0.986994  
     301A      0.988279   302A      0.992333   303A      0.999431  
     304A      1.003332   305A      1.010367   306A      1.011926  
     307A      1.013842   308A      1.016538   309A      1.021073  
     310A      1.029580   311A      1.029922   312A      1.032854  
     313A      1.038353   314A      1.043944   315A      1.045375  
     316A      1.052071   317A      1.054772   318A      1.057605  
     319A      1.059851   320A      1.063575   321A      1.071915  
     322A      1.075811   323A      1.079930   324A      1.083378  
     325A      1.090417   326A      1.094279   327A      1.096323  
     328A      1.097651   329A      1.098750   330A      1.102007  
     331A      1.113639   332A      1.114173   333A      1.117534  
     334A      1.124138   335A      1.128218   336A      1.132975  
     337A      1.137524   338A      1.141154   339A      1.143697  
     340A      1.147188   341A      1.154882   342A      1.160043  
     343A      1.162951   344A      1.168836   345A      1.171829  
     346A      1.177510   347A      1.180028   348A      1.184389  
     349A      1.184866   350A      1.190912   351A      1.193567  
     352A      1.199304   353A      1.203077   354A      1.209655  
     355A      1.212850   356A      1.216660   357A      1.220155  
     358A      1.226136   359A      1.229232   360A      1.232000  
     361A      1.234933   362A      1.243828   363A      1.248688  
     364A      1.251912   365A      1.259587   366A      1.266690  
     367A      1.270458   368A      1.276208   369A      1.280298  
     370A      1.286477   371A      1.290028   372A      1.299796  
     373A      1.302669   374A      1.307106   375A      1.313539  
     376A      1.315053   377A      1.323523   378A      1.327057  
     379A      1.331894   380A      1.338171   381A      1.343106  
     382A      1.347054   383A      1.349033   384A      1.352385  
     385A      1.362500   386A      1.367258   387A      1.379647  
     388A      1.385249   389A      1.386277   390A      1.397149  
     391A      1.404233   392A      1.413885   393A      1.417592  
     394A      1.420387   395A      1.426623   396A      1.431387  
     397A      1.436217   398A      1.447174   399A      1.449325  
     400A      1.460512   401A      1.464381   402A      1.465127  
     403A      1.472338   404A      1.480585   405A      1.482797  
     406A      1.490657   407A      1.492552   408A      1.497191  
     409A      1.506763   410A      1.511728   411A      1.517923  
     412A      1.523045   413A      1.527699   414A      1.531608  
     415A      1.534770   416A      1.542953   417A      1.543952  
     418A      1.547487   419A      1.558599   420A      1.560245  
     421A      1.564355   422A      1.566772   423A      1.568151  
     424A      1.574363   425A      1.577821   426A      1.591478  
     427A      1.597655   428A      1.600230   429A      1.604991  
     430A      1.611988   431A      1.618024   432A      1.625750  
     433A      1.627203   434A      1.635173   435A      1.639770  
     436A      1.649251   437A      1.657487   438A      1.662981  
     439A      1.664111   440A      1.670616   441A      1.675590  
     442A      1.689048   443A      1.691028   444A      1.695555  
     445A      1.701493   446A      1.709296   447A      1.711893  
     448A      1.718385   449A      1.724612   450A      1.730695  
     451A      1.732515   452A      1.741697   453A      1.743745  
     454A      1.750847   455A      1.761726   456A      1.763315  
     457A      1.769392   458A      1.772863   459A      1.777075  
     460A      1.784737   461A      1.791672   462A      1.798808  
     463A      1.803216   464A      1.811660   465A      1.811784  
     466A      1.816594   467A      1.821186   468A      1.824098  
     469A      1.831912   470A      1.835906   471A      1.847602  
     472A      1.848802   473A      1.860093   474A      1.866010  
     475A      1.867929   476A      1.873566   477A      1.878019  
     478A      1.883240   479A      1.890992   480A      1.902894  
     481A      1.905838   482A      1.912946   483A      1.919071  
     484A      1.922208   485A      1.927608   486A      1.932768  
     487A      1.939194   488A      1.946163   489A      1.951635  
     490A      1.955406   491A      1.966903   492A      1.981654  
     493A      1.984408   494A      1.988050   495A      1.989821  
     496A      1.999398   497A      2.003741   498A      2.010305  
     499A      2.014129   500A      2.015900   501A      2.029830  
     502A      2.031642   503A      2.035554   504A      2.043495  
     505A      2.046003   506A      2.049021   507A      2.056558  
     508A      2.061432   509A      2.071804   510A      2.077578  
     511A      2.085444   512A      2.096707   513A      2.103759  
     514A      2.113437   515A      2.114545   516A      2.125590  
     517A      2.132862   518A      2.139549   519A      2.141865  
     520A      2.151479   521A      2.154545   522A      2.159476  
     523A      2.165031   524A      2.174315   525A      2.178159  
     526A      2.182395   527A      2.195108   528A      2.197741  
     529A      2.209577   530A      2.218012   531A      2.223422  
     532A      2.233821   533A      2.238461   534A      2.247312  
     535A      2.249840   536A      2.268033   537A      2.270198  
     538A      2.273784   539A      2.283538   540A      2.285751  
     541A      2.301087   542A      2.309447   543A      2.310466  
     544A      2.318534   545A      2.326773   546A      2.336481  
     547A      2.350292   548A      2.352364   549A      2.359831  
     550A      2.367942   551A      2.379084   552A      2.385059  
     553A      2.393784   554A      2.404926   555A      2.413724  
     556A      2.416798   557A      2.428485   558A      2.436003  
     559A      2.439781   560A      2.449732   561A      2.460383  
     562A      2.467134   563A      2.472247   564A      2.478725  
     565A      2.482603   566A      2.508619   567A      2.511262  
     568A      2.514409   569A      2.516938   570A      2.530192  
     571A      2.542626   572A      2.549368   573A      2.559204  
     574A      2.564636   575A      2.566792   576A      2.576294  
     577A      2.587513   578A      2.596570   579A      2.600168  
     580A      2.615334   581A      2.623170   582A      2.630377  
     583A      2.638750   584A      2.648261   585A      2.652174  
     586A      2.660396   587A      2.661080   588A      2.672143  
     589A      2.684123   590A      2.690752   591A      2.704468  
     592A      2.712531   593A      2.726118   594A      2.739648  
     595A      2.750427   596A      2.751844   597A      2.768731  
     598A      2.777308   599A      2.783779   600A      2.800525  
     601A      2.805838   602A      2.822799   603A      2.835849  
     604A      2.846238   605A      2.852785   606A      2.857596  
     607A      2.862992   608A      2.876363   609A      2.890395  
     610A      2.894141   611A      2.909537   612A      2.913084  
     613A      2.921603   614A      2.924634   615A      2.937318  
     616A      2.940577   617A      2.944587   618A      2.959158  
     619A      2.977138   620A      2.978217   621A      2.988478  
     622A      2.999763   623A      3.013257   624A      3.030360  
     625A      3.042745   626A      3.050633   627A      3.065971  
     628A      3.066944   629A      3.081871   630A      3.097839  
     631A      3.104760   632A      3.111487   633A      3.114070  
     634A      3.128880   635A      3.137940   636A      3.154636  
     637A      3.161381   638A      3.168337   639A      3.177354  
     640A      3.189825   641A      3.196771   642A      3.203410  
     643A      3.217148   644A      3.229576   645A      3.250574  
     646A      3.256086   647A      3.266820   648A      3.289288  
     649A      3.299612   650A      3.301939   651A      3.312332  
     652A      3.332523   653A      3.343820   654A      3.347053  
     655A      3.356635   656A      3.360797   657A      3.384064  
     658A      3.388774   659A      3.408409   660A      3.420154  
     661A      3.440506   662A      3.463797   663A      3.471332  
     664A      3.474232   665A      3.488517   666A      3.502897  
     667A      3.516234   668A      3.522140   669A      3.537023  
     670A      3.551911   671A      3.556958   672A      3.571409  
     673A      3.584645   674A      3.595350   675A      3.607567  
     676A      3.622619   677A      3.632686   678A      3.652044  
     679A      3.661185   680A      3.664396   681A      3.672845  
     682A      3.675489   683A      3.694529   684A      3.703105  
     685A      3.716442   686A      3.732537   687A      3.739171  
     688A      3.746082   689A      3.755958   690A      3.764328  
     691A      3.769939   692A      3.778806   693A      3.789451  
     694A      3.799589   695A      3.802585   696A      3.809727  
     697A      3.818763   698A      3.827433   699A      3.842457  
     700A      3.844342   701A      3.851041   702A      3.857890  
     703A      3.870509   704A      3.877842   705A      3.897392  
     706A      3.900036   707A      3.907021   708A      3.915187  
     709A      3.926915   710A      3.929924   711A      3.939829  
     712A      3.947490   713A      3.963053   714A      3.966923  
     715A      3.975446   716A      3.984877   717A      3.988437  
     718A      4.001165   719A      4.008701   720A      4.020784  
     721A      4.023319   722A      4.031727   723A      4.038326  
     724A      4.052982   725A      4.061330   726A      4.067286  
     727A      4.071297   728A      4.074294   729A      4.086786  
     730A      4.090915   731A      4.096426   732A      4.108368  
     733A      4.117632   734A      4.126656   735A      4.131173  
     736A      4.138307   737A      4.139894   738A      4.154074  
     739A      4.168613   740A      4.171313   741A      4.179821  
     742A      4.185410   743A      4.202878   744A      4.205579  
     745A      4.215573   746A      4.219303   747A      4.224303  
     748A      4.233444   749A      4.244642   750A      4.245900  
     751A      4.259361   752A      4.269084   753A      4.279685  
     754A      4.287815   755A      4.294172   756A      4.301423  
     757A      4.303907   758A      4.316510   759A      4.321917  
     760A      4.331497   761A      4.340085   762A      4.348559  
     763A      4.355135   764A      4.363916   765A      4.368087  
     766A      4.381533   767A      4.384608   768A      4.392982  
     769A      4.397755   770A      4.402532   771A      4.414378  
     772A      4.425356   773A      4.429193   774A      4.433079  
     775A      4.438037   776A      4.442947   777A      4.457386  
     778A      4.468200   779A      4.472203   780A      4.484175  
     781A      4.490802   782A      4.502667   783A      4.504338  
     784A      4.516287   785A      4.531115   786A      4.534112  
     787A      4.546771   788A      4.551816   789A      4.572142  
     790A      4.577378   791A      4.588321   792A      4.596595  
     793A      4.608468   794A      4.618345   795A      4.631777  
     796A      4.637469   797A      4.644004   798A      4.650326  
     799A      4.661862   800A      4.676782   801A      4.685870  
     802A      4.697325   803A      4.703040   804A      4.709780  
     805A      4.714456   806A      4.717106   807A      4.724554  
     808A      4.743932   809A      4.751632   810A      4.767813  
     811A      4.780302   812A      4.785425   813A      4.794846  
     814A      4.812358   815A      4.823609   816A      4.829920  
     817A      4.835936   818A      4.841564   819A      4.853575  
     820A      4.869102   821A      4.874158   822A      4.881232  
     823A      4.893349   824A      4.909837   825A      4.923526  
     826A      4.926291   827A      4.941656   828A      4.944930  
     829A      4.959094   830A      4.975956   831A      4.986844  
     832A      4.992695   833A      5.003422   834A      5.007589  
     835A      5.032581   836A      5.036770   837A      5.057710  
     838A      5.064005   839A      5.073450   840A      5.079127  
     841A      5.107147   842A      5.112168   843A      5.114508  
     844A      5.126938   845A      5.134968   846A      5.144162  
     847A      5.152970   848A      5.162139   849A      5.175153  
     850A      5.184905   851A      5.197218   852A      5.206456  
     853A      5.215606   854A      5.222589   855A      5.246821  
     856A      5.258537   857A      5.276265   858A      5.280236  
     859A      5.286906   860A      5.299883   861A      5.309134  
     862A      5.315021   863A      5.323709   864A      5.329481  
     865A      5.337945   866A      5.350724   867A      5.364082  
     868A      5.366360   869A      5.375779   870A      5.389037  
     871A      5.394144   872A      5.401425   873A      5.414230  
     874A      5.435461   875A      5.441281   876A      5.451823  
     877A      5.464925   878A      5.477148   879A      5.484540  
     880A      5.492329   881A      5.502624   882A      5.516428  
     883A      5.527336   884A      5.531697   885A      5.554587  
     886A      5.567597   887A      5.583959   888A      5.587453  
     889A      5.599275   890A      5.605585   891A      5.620015  
     892A      5.640130   893A      5.649045   894A      5.658755  
     895A      5.668320   896A      5.681109   897A      5.692909  
     898A      5.701122   899A      5.709347   900A      5.713111  
     901A      5.742672   902A      5.756159   903A      5.771970  
     904A      5.777390   905A      5.795855   906A      5.813226  
     907A      5.824558   908A      5.829606   909A      5.853618  
     910A      5.857054   911A      5.880065   912A      5.891552  
     913A      5.898170   914A      5.936177   915A      5.940993  
     916A      5.965779   917A      5.978471   918A      5.982729  
     919A      5.991742   920A      6.011205   921A      6.018908  
     922A      6.030723   923A      6.045055   924A      6.076163  
     925A      6.079704   926A      6.121041   927A      6.142588  
     928A      6.152927   929A      6.172725   930A      6.181404  
     931A      6.198103   932A      6.225571   933A      6.237621  
     934A      6.242987   935A      6.248814   936A      6.261141  
     937A      6.292508   938A      6.314218   939A      6.354117  
     940A      6.371789   941A      6.411259   942A      6.454080  
     943A      6.478929   944A      6.520421   945A      6.553734  
     946A      6.578309   947A      6.641754   948A      6.662536  
     949A      6.696513   950A      6.713444   951A      6.720064  
     952A      6.757479   953A      6.783220   954A      6.791923  
     955A      6.804974   956A      6.814584   957A      6.836745  
     958A      6.873892   959A      6.887595   960A      6.902750  
     961A      6.942485   962A      6.953981   963A      6.958332  
     964A      6.969662   965A      6.972284   966A      6.997343  
     967A      7.006680   968A      7.027135   969A      7.050876  
     970A      7.066427   971A      7.083106   972A      7.093777  
     973A      7.108757   974A      7.135331   975A      7.170011  
     976A      7.176796   977A      7.184568   978A      7.227720  
     979A      7.234713   980A      7.267298   981A      7.294552  
     982A      7.317070   983A      7.336290   984A      7.363569  
     985A      7.375175   986A      7.390165   987A      7.404397  
     988A      7.418889   989A      7.474664   990A      7.489264  
     991A      7.512857   992A      7.518334   993A      7.542986  
     994A      7.558756   995A      7.575322   996A      7.595430  
     997A      7.604893   998A      7.633063   999A      7.663434  
    1000A      7.710518  1001A      7.756156  1002A      7.804342  
    1003A      7.822979  1004A      7.850245  1005A      7.911824  
    1006A      7.921678  1007A      7.936889  1008A      7.965378  
    1009A      8.020218  1010A      8.041294  1011A      8.057907  
    1012A      8.148709  1013A      8.179269  1014A      8.269052  
    1015A      8.301970  1016A      8.432168  1017A      8.484985  
    1018A      8.612712  1019A      8.702175  1020A     15.952518  
    1021A     16.161839  1022A     16.422559  1023A     16.484107  
    1024A     16.951743  1025A     17.288001  1026A     18.040402  
    1027A     18.490454  1028A     18.726003  1029A     19.152438  
    1030A     19.424002  1031A     19.847949  1032A     20.040672  
    1033A     20.328062  1034A     20.755328  1035A     21.558331  

    Final Occupation by Irrep:
              A 
    DOCC [    60 ]

  @DF-RHF Final Energy:  -811.46609799946577

   => Energetics <=

    Nuclear Repulsion Energy =           1167.6536841168963292
    One-Electron Energy =               -3430.4517594170752091
    Two-Electron Energy =                1451.3319773007131062
    Total Energy =                       -811.4660979994657737

Computation Completed

*** tstop() called on node35.bme.utexas.edu at Tue Nov 10 05:52:22 2020
Module time:
	user time   =    2249.41 seconds =      37.49 minutes
	system time =     393.47 seconds =       6.56 minutes
	total time  =        605 seconds =      10.08 minutes
Total time:
	user time   =    2249.41 seconds =      37.49 minutes
	system time =     393.47 seconds =       6.56 minutes
	total time  =        605 seconds =      10.08 minutes
   => Loading Basis Set <=

    Name: (AUG-CC-PVTZ AUX)
    Role: RIFIT
    Keyword: DF_BASIS_MP2
    atoms 1-4   entry O          line   264 file /home/xy3866/psi4conda/share/psi4/basis/aug-cc-pvtz-ri.gbs 
    atoms 5-7   entry N          line   206 file /home/xy3866/psi4conda/share/psi4/basis/aug-cc-pvtz-ri.gbs 
    atoms 8-16  entry C          line   148 file /home/xy3866/psi4conda/share/psi4/basis/aug-cc-pvtz-ri.gbs 
    atoms 17-29 entry H          line    30 file /home/xy3866/psi4conda/share/psi4/basis/aug-cc-pvtz-ri.gbs 


*** tstart() called on node35.bme.utexas.edu
*** at Tue Nov 10 05:52:22 2020


  //>>>>>>>>>>>>>>>>>>>>>>>>>>>>>>>>>>>//
  //               DFMP2               //
  //<<<<<<<<<<<<<<<<<<<<<<<<<<<<<<<<<<<//

	 --------------------------------------------------------
	                          DF-MP2                         
	      2nd-Order Density-Fitted Moller-Plesset Theory     
	              RMP2 Wavefunction,   8 Threads             
	                                                         
	        Rob Parrish, Justin Turney, Andy Simmonett,      
	           Ed Hohenstein, and C. David Sherrill          
	 --------------------------------------------------------

   => Auxiliary Basis Set <=

  Basis Set: (AUG-CC-PVTZ AUX)
    Blend: AUG-CC-PVTZ-RI
    Number of shells: 630
    Number of basis function: 2294
    Number of Cartesian functions: 2891
    Spherical Harmonics?: true
    Max angular momentum: 4

	 --------------------------------------------------------
	                 NBF =  1035, NAUX =  2294
	 --------------------------------------------------------
	   CLASS    FOCC     OCC    AOCC    AVIR     VIR    FVIR
	   PAIRS       0      60      60     975     975       0
	 --------------------------------------------------------

  DFHelper Memory: AOs need 15.950 GiB; user supplied 22.352 GiB. Using in-core AOs.


         ------------------------------------------------------------
                                     CPHF                           
                                  Rob Parrish                       
         ------------------------------------------------------------

  ==> Geometry <==

    Molecular point group: c1
    Full point group: C1

    Geometry (in Angstrom), charge = 0, multiplicity = 1:

       Center              X                  Y                   Z               Mass       
    ------------   -----------------  -----------------  -----------------  -----------------
         O            1.321623747670    -0.386632692061    -0.985946050188    15.994914619570
         O            3.208360347670     1.898585907939    -0.295904150188    15.994914619570
         O            2.805710347670    -2.751574092061    -0.396592150188    15.994914619570
         O           -1.355882652330     2.371377907939     0.158391849812    15.994914619570
         N           -0.791940652330     0.196790907939    -0.225647150188    14.003074004430
         N           -3.047868652330     0.802611907939     0.243620849812    14.003074004430
         N           -4.667106652330    -0.815062092061     0.416245849812    14.003074004430
         C            2.707898347670     0.872926907939     0.563082849812    12.000000000000
         C            1.186175447670     1.159638307939     0.900090249812    12.000000000000
         C            2.658122347670    -0.394918092061    -0.281861150188    12.000000000000
         C            0.580261347670     0.680376907939    -0.411307150188    12.000000000000
         C            2.808401347670    -1.662643092061     0.526078849812    12.000000000000
         C           -1.121033652330    -1.118446092061    -0.304667150188    12.000000000000
         C           -1.738384652330     1.201264907939     0.085653849812    12.000000000000
         C           -2.411003652330    -1.507188092061    -0.100933150188    12.000000000000
         C           -3.355688652330    -0.475787092061     0.172119849812    12.000000000000
         H            3.340684347670     0.754157907939     1.454461849812     1.007825032230
         H            0.911010347670     0.441201907939     1.697097849812     1.007825032230
         H            0.991632347670     2.131439907939     1.161755849812     1.007825032230
         H            0.533757347670     1.510626907939    -1.121304150188     1.007825032230
         H            3.423795347670    -0.366910092061    -1.063017150188     1.007825032230
         H            1.977052347670    -1.735811092061     1.246831849812     1.007825032230
         H            3.752392347670    -1.612142092061     1.091897849812     1.007825032230
         H            3.110154347670     2.743696907939     0.181591849812     1.007825032230
         H           -0.304436652330    -1.791828092061    -0.540089150188     1.007825032230
         H            2.916333347670    -3.567699092061     0.122820849812     1.007825032230
         H           -2.697164652330    -2.551711092061    -0.149641150188     1.007825032230
         H           -5.022407652330    -1.640369092061    -0.053110150188     1.007825032230
         H           -5.293167652330    -0.016425092061     0.389709849812     1.007825032230

  Nuclear repulsion = 1167.653684116896329
  Reference energy  = -811.466097999465774

  ==> Basis Set <==

  Basis Set: AUG-CC-PVTZ
    Blend: AUG-CC-PVTZ
    Number of shells: 341
    Number of basis function: 1035
    Number of Cartesian functions: 1205
    Spherical Harmonics?: true
    Max angular momentum: 3

  ==> CGRSolver (by Rob Parrish) <==

   Number of roots    =         1
   Preconditioning    =    JACOBI
   Convergence cutoff =     1E-06
   Maximum iterations =       100

  ==> CPHFRHamiltonian (by Rob Parrish) <== 

  ==> MemDFJK: Density-Fitted J/K Matrices <==

    J tasked:                   Yes
    K tasked:                   Yes
    wK tasked:                   No
    OpenMP threads:               8
    Memory [MiB]:             22888
    Algorithm:                 Disk
    Schwarz Cutoff:           1E-12
    Mask sparsity (%):      13.4123
    Fitting Condition:        1E-10

   => Auxiliary Basis Set <=

  Basis Set: (AUG-CC-PVTZ AUX)
    Blend: AUG-CC-PVTZ-JKFIT
    Number of shells: 662
    Number of basis function: 2262
    Number of Cartesian functions: 2811
    Spherical Harmonics?: true
    Max angular momentum: 4

  ==> CPHF Iterations <==

  => Iterations <=

             Iter  Converged  Remaining    Residual
  CGR           1          0          1   1.239E-01
  CGR           2          0          1   3.937E-02
  CGR           3          0          1   2.007E-02
  CGR           4          0          1   6.037E-03
  CGR           5          0          1   2.670E-03
  CGR           6          0          1   1.038E-03
  CGR           7          0          1   3.440E-04
  CGR           8          0          1   1.349E-04
  CGR           9          0          1   4.793E-05
  CGR          10          0          1   1.901E-05
  CGR          11          0          1   8.154E-06
  CGR          12          0          1   2.785E-06
  CGR          13          0          1   1.102E-06
  CGR          14          1          0   3.281E-07

    CGRSolver converged.

	-----------------------------------------------------------
	 ==================> DF-MP2 Energies <==================== 
	-----------------------------------------------------------
	 Reference Energy          =    -811.4660979994657737 [Eh]
	 Singles Energy            =      -0.0000000000000000 [Eh]
	 Same-Spin Energy          =      -0.8300144025126714 [Eh]
	 Opposite-Spin Energy      =      -2.5274839879799122 [Eh]
	 Correlation Energy        =      -3.3574983904925837 [Eh]
	 Total Energy              =    -814.8235963899583112 [Eh]
	-----------------------------------------------------------
	 ================> DF-SCS-MP2 Energies <================== 
	-----------------------------------------------------------
	 SCS Same-Spin Scale       =       0.3333333333333333 [-]
	 SCS Opposite-Spin Scale   =       1.2000000000000000 [-]
	 SCS Same-Spin Energy      =      -0.2766714675042238 [Eh]
	 SCS Opposite-Spin Energy  =      -3.0329807855758948 [Eh]
	 SCS Correlation Energy    =      -3.3096522530801185 [Eh]
	 SCS Total Energy          =    -814.7757502525458904 [Eh]
	-----------------------------------------------------------



Properties will be evaluated at  -0.000000,   0.000000,  -0.000000 [a0]

Properties computed using the MP2 density matrix

  Nuclear Dipole Moment: [e a0]
     X:     7.2154      Y:    -5.3403      Z:     4.1341

  Electronic Dipole Moment: [e a0]
     X:    -6.6475      Y:     3.4964      Z:    -3.1068

  Dipole Moment: [e a0]
     X:     0.5679      Y:    -1.8439      Z:     1.0273     Total:     2.1858

  Dipole Moment: [D]
     X:     1.4434      Y:    -4.6868      Z:     2.6111     Total:     5.5558


*** tstop() called on node35.bme.utexas.edu at Tue Nov 10 06:22:28 2020
Module time:
	user time   =    9560.31 seconds =     159.34 minutes
	system time =    1298.77 seconds =      21.65 minutes
	total time  =       1806 seconds =      30.10 minutes
Total time:
	user time   =   11810.37 seconds =     196.84 minutes
	system time =    1692.28 seconds =      28.20 minutes
	total time  =       2411 seconds =      40.18 minutes

    Psi4 stopped on: Tuesday, 10 November 2020 06:22AM
    Psi4 wall time for execution: 0:40:12.47

*** Psi4 exiting successfully. Buy a developer a beer!
