
    -----------------------------------------------------------------------
          Psi4: An Open-Source Ab Initio Electronic Structure Package
                               Psi4 1.3.2 release

                         Git: Rev {HEAD} ecbda83 


    R. M. Parrish, L. A. Burns, D. G. A. Smith, A. C. Simmonett,
    A. E. DePrince III, E. G. Hohenstein, U. Bozkaya, A. Yu. Sokolov,
    R. Di Remigio, R. M. Richard, J. F. Gonthier, A. M. James,
    H. R. McAlexander, A. Kumar, M. Saitow, X. Wang, B. P. Pritchard,
    P. Verma, H. F. Schaefer III, K. Patkowski, R. A. King, E. F. Valeev,
    F. A. Evangelista, J. M. Turney, T. D. Crawford, and C. D. Sherrill,
    J. Chem. Theory Comput. 13(7) pp 3185--3197 (2017).
    (doi: 10.1021/acs.jctc.7b00174)


                         Additional Contributions by
    P. Kraus, H. Kruse, M. H. Lechner, M. C. Schieber, R. A. Shaw,
    A. Alenaizan, R. Galvelis, Z. L. Glick, S. Lehtola, and J. P. Misiewicz

    -----------------------------------------------------------------------


    Psi4 started on: Wednesday, 11 November 2020 07:47PM

    Process ID: 21713
    Host:       node35.bme.utexas.edu
    PSIDATADIR: /home/xy3866/psi4conda/share/psi4
    Memory:     500.0 MiB
    Threads:    8
    
  ==> Input File <==

--------------------------------------------------------------------------
#psi4
#
memory 32 gb

molecule  {
0 1
  O        1.3620710    -0.3800110    -0.9318440
  O        3.2020570     1.9012130    -0.2995130
  O        2.8600969    -2.7193864    -0.4322395
  O       -1.3621860     2.3740050     0.1547830
  N       -0.7982440     0.1994180    -0.2292560
  N       -3.0541720     0.8052390     0.2400120
  N       -4.6734100    -0.8124350     0.4126370
  C        2.7015950     0.8755540     0.5594740
  C        1.2368440     1.1072260     0.8878520
  C        2.6518190    -0.3922910    -0.2854700
  C        0.5739580     0.6830040    -0.4149160
  C        2.8020980    -1.6600160     0.5224700
  C       -1.1273370    -1.1158190    -0.3082760
  C       -1.7446880     1.2038920     0.0820450
  C       -2.4173070    -1.5045610    -0.1045420
  C       -3.3619920    -0.4731600     0.1685110
  H        3.3343810     0.7567850     1.4508530
  H        0.9047070     0.4438290     1.6934890
  H        0.9853290     2.1340670     1.1581470
  H        0.5274540     1.5132540    -1.1249130
  H        3.4174920    -0.3642830    -1.0666260
  H        1.9893604    -1.6841519     1.2673557
  H        3.7460890    -1.6095150     1.0882890
  H        3.1038510     2.7463240     0.1779830
  H       -0.3107400    -1.7892010    -0.5436980
  H        2.9100300    -3.5650720     0.1192120
  H       -2.7034680    -2.5490840    -0.1532500
  H       -5.0287110    -1.6377420    -0.0567190
  H       -5.2994710    -0.0137980     0.3861010
units angstrom
no_reorient  #important for SAPT in psi4, default
symmetry c1  #important for SAPT in psi4, default
}

set PROPERTIES_ORIGIN ["COM"]
properties('MP2/aug-cc-pvtz', properties = ['dipole'])
--------------------------------------------------------------------------

  Memory set to  29.802 GiB by Python driver.
    SCF Algorithm Type (re)set to DF.

*** tstart() called on node35.bme.utexas.edu
*** at Wed Nov 11 19:47:12 2020

   => Loading Basis Set <=

    Name: AUG-CC-PVTZ
    Role: ORBITAL
    Keyword: BASIS
    atoms 1-4   entry O          line   327 file /home/xy3866/psi4conda/share/psi4/basis/aug-cc-pvtz.gbs 
    atoms 5-7   entry N          line   281 file /home/xy3866/psi4conda/share/psi4/basis/aug-cc-pvtz.gbs 
    atoms 8-16  entry C          line   235 file /home/xy3866/psi4conda/share/psi4/basis/aug-cc-pvtz.gbs 
    atoms 17-29 entry H          line    36 file /home/xy3866/psi4conda/share/psi4/basis/aug-cc-pvtz.gbs 


         ---------------------------------------------------------
                                   SCF
               by Justin Turney, Rob Parrish, Andy Simmonett
                          and Daniel G. A. Smith
                              RHF Reference
                        8 Threads,  30517 MiB Core
         ---------------------------------------------------------

  ==> Geometry <==

    Molecular point group: c1
    Full point group: C1

    Geometry (in Angstrom), charge = 0, multiplicity = 1:

       Center              X                  Y                   Z               Mass       
    ------------   -----------------  -----------------  -----------------  -----------------
         O            1.357713750551    -0.382310714084    -0.929694464561    15.994914619570
         O            3.197699750551     1.898913285916    -0.297363464561    15.994914619570
         O            2.855739650551    -2.721686114084    -0.430089964561    15.994914619570
         O           -1.366543249449     2.371705285916     0.156932535439    15.994914619570
         N           -0.802601249449     0.197118285916    -0.227106464561    14.003074004430
         N           -3.058529249449     0.802939285916     0.242161535439    14.003074004430
         N           -4.677767249449    -0.814734714084     0.414786535439    14.003074004430
         C            2.697237750551     0.873254285916     0.561623535439    12.000000000000
         C            1.232486750551     1.104926285916     0.890001535439    12.000000000000
         C            2.647461750551    -0.394590714084    -0.283320464561    12.000000000000
         C            0.569600750551     0.680704285916    -0.412766464561    12.000000000000
         C            2.797740750551    -1.662315714084     0.524619535439    12.000000000000
         C           -1.131694249449    -1.118118714084    -0.306126464561    12.000000000000
         C           -1.749045249449     1.201592285916     0.084194535439    12.000000000000
         C           -2.421664249449    -1.506860714084    -0.102392464561    12.000000000000
         C           -3.366349249449    -0.475459714084     0.170660535439    12.000000000000
         H            3.330023750551     0.754485285916     1.453002535439     1.007825032230
         H            0.900349750551     0.441529285916     1.695638535439     1.007825032230
         H            0.980971750551     2.131767285916     1.160296535439     1.007825032230
         H            0.523096750551     1.510954285916    -1.122763464561     1.007825032230
         H            3.413134750551    -0.366582714084    -1.064476464561     1.007825032230
         H            1.985003150551    -1.686451614084     1.269505235439     1.007825032230
         H            3.741731750551    -1.611814714084     1.090438535439     1.007825032230
         H            3.099493750551     2.744024285916     0.180132535439     1.007825032230
         H           -0.315097249449    -1.791500714084    -0.541548464561     1.007825032230
         H            2.905672750551    -3.567371714084     0.121361535439     1.007825032230
         H           -2.707825249449    -2.551383714084    -0.151100464561     1.007825032230
         H           -5.033068249449    -1.640041714084    -0.054569464561     1.007825032230
         H           -5.303828249449    -0.016097714084     0.388250535439     1.007825032230

  Running in c1 symmetry.

  Rotational constants: A =      0.03281  B =      0.01107  C =      0.00872 [cm^-1]
  Rotational constants: A =    983.75633  B =    331.85388  C =    261.54114 [MHz]
  Nuclear repulsion = 1169.697862210421818

  Charge       = 0
  Multiplicity = 1
  Electrons    = 120
  Nalpha       = 60
  Nbeta        = 60

  ==> Algorithm <==

  SCF Algorithm Type is DF.
  DIIS enabled.
  MOM disabled.
  Fractional occupation disabled.
  Guess Type is SAD.
  Energy threshold   = 1.00e-10
  Density threshold  = 1.00e-10
  Integral threshold = 0.00e+00

  ==> Primary Basis <==

  Basis Set: AUG-CC-PVTZ
    Blend: AUG-CC-PVTZ
    Number of shells: 341
    Number of basis function: 1035
    Number of Cartesian functions: 1205
    Spherical Harmonics?: true
    Max angular momentum: 3

   => Loading Basis Set <=

    Name: (AUG-CC-PVTZ AUX)
    Role: JKFIT
    Keyword: DF_BASIS_SCF
    atoms 1-4   entry O          line   286 file /home/xy3866/psi4conda/share/psi4/basis/aug-cc-pvtz-jkfit.gbs 
    atoms 5-7   entry N          line   224 file /home/xy3866/psi4conda/share/psi4/basis/aug-cc-pvtz-jkfit.gbs 
    atoms 8-16  entry C          line   162 file /home/xy3866/psi4conda/share/psi4/basis/aug-cc-pvtz-jkfit.gbs 
    atoms 17-29 entry H          line    70 file /home/xy3866/psi4conda/share/psi4/basis/aug-cc-pvtz-jkfit.gbs 

  ==> Pre-Iterations <==

   -------------------------------------------------------
    Irrep   Nso     Nmo     Nalpha   Nbeta   Ndocc  Nsocc
   -------------------------------------------------------
     A       1035    1035       0       0       0       0
   -------------------------------------------------------
    Total    1035    1035      60      60      60       0
   -------------------------------------------------------

  ==> Integral Setup <==

  DFHelper Memory: AOs need 15.946 GiB; user supplied 22.352 GiB. Using in-core AOs.

  ==> MemDFJK: Density-Fitted J/K Matrices <==

    J tasked:                   Yes
    K tasked:                   Yes
    wK tasked:                   No
    OpenMP threads:               8
    Memory [MiB]:             22888
    Algorithm:                 Disk
    Schwarz Cutoff:           1E-12
    Mask sparsity (%):      13.4345
    Fitting Condition:        1E-10

   => Auxiliary Basis Set <=

  Basis Set: (AUG-CC-PVTZ AUX)
    Blend: AUG-CC-PVTZ-JKFIT
    Number of shells: 662
    Number of basis function: 2262
    Number of Cartesian functions: 2811
    Spherical Harmonics?: true
    Max angular momentum: 4

  Minimum eigenvalue in the overlap matrix is 9.8860815513E-07.
  Using Symmetric Orthogonalization.

  SCF Guess: Superposition of Atomic Densities via on-the-fly atomic UHF.

  ==> Iterations <==

                           Total Energy        Delta E     RMS |[F,P]|

   @DF-RHF iter SAD:  -811.04877710038033   -8.11049e+02   0.00000e+00 
   @DF-RHF iter   1:  -810.98801819573646    6.07589e-02   9.47753e-04 DIIS
   @DF-RHF iter   2:  -811.35995257124068   -3.71934e-01   5.32950e-04 DIIS
   @DF-RHF iter   3:  -811.46460957819613   -1.04657e-01   1.07839e-04 DIIS
   @DF-RHF iter   4:  -811.47176539685154   -7.15582e-03   4.49923e-05 DIIS
   @DF-RHF iter   5:  -811.47294840575228   -1.18301e-03   9.92542e-06 DIIS
   @DF-RHF iter   6:  -811.47305574813288   -1.07342e-04   4.80152e-06 DIIS
   @DF-RHF iter   7:  -811.47308244262786   -2.66945e-05   1.73507e-06 DIIS
   @DF-RHF iter   8:  -811.47308805248201   -5.60985e-06   6.94287e-07 DIIS
   @DF-RHF iter   9:  -811.47308893138211   -8.78900e-07   2.58122e-07 DIIS
   @DF-RHF iter  10:  -811.47308904816884   -1.16787e-07   9.68439e-08 DIIS
   @DF-RHF iter  11:  -811.47308906476019   -1.65913e-08   3.32853e-08 DIIS
   @DF-RHF iter  12:  -811.47308906633316   -1.57297e-09   1.31148e-08 DIIS
   @DF-RHF iter  13:  -811.47308906656394   -2.30784e-10   4.47436e-09 DIIS
   @DF-RHF iter  14:  -811.47308906659032   -2.63753e-11   1.80522e-09 DIIS
   @DF-RHF iter  15:  -811.47308906660146   -1.11413e-11   8.41813e-10 DIIS
   @DF-RHF iter  16:  -811.47308906660498   -3.52429e-12   3.28755e-10 DIIS
   @DF-RHF iter  17:  -811.47308906660010    4.88853e-12   1.57152e-10 DIIS
   @DF-RHF iter  18:  -811.47308906660498   -4.88853e-12   5.00482e-11 DIIS
  Energy and wave function converged.


  ==> Post-Iterations <==

    Orbital Energies [Eh]
    ---------------------

    Doubly Occupied:                                                      

       1A    -20.584267     2A    -20.573752     3A    -20.572664  
       4A    -20.503195     5A    -15.621919     6A    -15.588572  
       7A    -15.541022     8A    -11.370063     9A    -11.345278  
      10A    -11.330687    11A    -11.318686    12A    -11.299936  
      13A    -11.296364    14A    -11.291423    15A    -11.237367  
      16A    -11.236735    17A     -1.416391    18A     -1.382231  
      19A     -1.370803    20A     -1.363525    21A     -1.292417  
      22A     -1.261589    23A     -1.169304    24A     -1.078962  
      25A     -1.068463    26A     -1.027166    27A     -0.925616  
      28A     -0.897422    29A     -0.868617    30A     -0.830737  
      31A     -0.806392    32A     -0.754419    33A     -0.738771  
      34A     -0.719784    35A     -0.706195    36A     -0.689285  
      37A     -0.686203    38A     -0.675501    39A     -0.656900  
      40A     -0.637598    41A     -0.627601    42A     -0.618018  
      43A     -0.603587    44A     -0.592876    45A     -0.589425  
      46A     -0.572666    47A     -0.568197    48A     -0.547479  
      49A     -0.532650    50A     -0.523217    51A     -0.509637  
      52A     -0.484856    53A     -0.482086    54A     -0.468903  
      55A     -0.460904    56A     -0.444316    57A     -0.437319  
      58A     -0.416483    59A     -0.383904    60A     -0.335165  

    Virtual:                                                              

      61A      0.017471    62A      0.023618    63A      0.029463  
      64A      0.037573    65A      0.039380    66A      0.045887  
      67A      0.050053    68A      0.055104    69A      0.057897  
      70A      0.061219    71A      0.064021    72A      0.073364  
      73A      0.078965    74A      0.089145    75A      0.090420  
      76A      0.094275    77A      0.101467    78A      0.102967  
      79A      0.105131    80A      0.105511    81A      0.111826  
      82A      0.116575    83A      0.119644    84A      0.121203  
      85A      0.127166    86A      0.128224    87A      0.130129  
      88A      0.133907    89A      0.139955    90A      0.142892  
      91A      0.145798    92A      0.149367    93A      0.151345  
      94A      0.155365    95A      0.156305    96A      0.161515  
      97A      0.165319    98A      0.167236    99A      0.173220  
     100A      0.175154   101A      0.179803   102A      0.180460  
     103A      0.182931   104A      0.188858   105A      0.195954  
     106A      0.200443   107A      0.204535   108A      0.205817  
     109A      0.213000   110A      0.217482   111A      0.227496  
     112A      0.230360   113A      0.233312   114A      0.235295  
     115A      0.242805   116A      0.242947   117A      0.246416  
     118A      0.249959   119A      0.251987   120A      0.254978  
     121A      0.260429   122A      0.264200   123A      0.269343  
     124A      0.273154   125A      0.278131   126A      0.279128  
     127A      0.284072   128A      0.289234   129A      0.291554  
     130A      0.293077   131A      0.296541   132A      0.300726  
     133A      0.301589   134A      0.307565   135A      0.311771  
     136A      0.313485   137A      0.316222   138A      0.319774  
     139A      0.323156   140A      0.326413   141A      0.329044  
     142A      0.333995   143A      0.335720   144A      0.336774  
     145A      0.341936   146A      0.348564   147A      0.352010  
     148A      0.355183   149A      0.357023   150A      0.361766  
     151A      0.366115   152A      0.370535   153A      0.374429  
     154A      0.378864   155A      0.379205   156A      0.383796  
     157A      0.387061   158A      0.389144   159A      0.395045  
     160A      0.399211   161A      0.400241   162A      0.405438  
     163A      0.410576   164A      0.413534   165A      0.417582  
     166A      0.419716   167A      0.425063   168A      0.425669  
     169A      0.426666   170A      0.432296   171A      0.435527  
     172A      0.439876   173A      0.442718   174A      0.446827  
     175A      0.450862   176A      0.455988   177A      0.459934  
     178A      0.463568   179A      0.466951   180A      0.470881  
     181A      0.472933   182A      0.478518   183A      0.482759  
     184A      0.485603   185A      0.488093   186A      0.488844  
     187A      0.494034   188A      0.497883   189A      0.500582  
     190A      0.502894   191A      0.508370   192A      0.510895  
     193A      0.511079   194A      0.516177   195A      0.519744  
     196A      0.522171   197A      0.527876   198A      0.530432  
     199A      0.535267   200A      0.538636   201A      0.542881  
     202A      0.544136   203A      0.549682   204A      0.551333  
     205A      0.553945   206A      0.558947   207A      0.563375  
     208A      0.565782   209A      0.571153   210A      0.575476  
     211A      0.576815   212A      0.584792   213A      0.589207  
     214A      0.591299   215A      0.594137   216A      0.598985  
     217A      0.601402   218A      0.603527   219A      0.609301  
     220A      0.615136   221A      0.619393   222A      0.625662  
     223A      0.631671   224A      0.635358   225A      0.636533  
     226A      0.644254   227A      0.648435   228A      0.648892  
     229A      0.650955   230A      0.652463   231A      0.657917  
     232A      0.663250   233A      0.668754   234A      0.673339  
     235A      0.679060   236A      0.682228   237A      0.686101  
     238A      0.689816   239A      0.698427   240A      0.698886  
     241A      0.702899   242A      0.707606   243A      0.711868  
     244A      0.715028   245A      0.718782   246A      0.724412  
     247A      0.731095   248A      0.736912   249A      0.739583  
     250A      0.741570   251A      0.748771   252A      0.755530  
     253A      0.757874   254A      0.765626   255A      0.773110  
     256A      0.777471   257A      0.779017   258A      0.782915  
     259A      0.787067   260A      0.789366   261A      0.803307  
     262A      0.810166   263A      0.813745   264A      0.818466  
     265A      0.821433   266A      0.825431   267A      0.835897  
     268A      0.841349   269A      0.842719   270A      0.848848  
     271A      0.851783   272A      0.854949   273A      0.861441  
     274A      0.866988   275A      0.873024   276A      0.876722  
     277A      0.880387   278A      0.888223   279A      0.888783  
     280A      0.892478   281A      0.899393   282A      0.905998  
     283A      0.906824   284A      0.914349   285A      0.917088  
     286A      0.920908   287A      0.926715   288A      0.928645  
     289A      0.935884   290A      0.937348   291A      0.946453  
     292A      0.949078   293A      0.952486   294A      0.954951  
     295A      0.957371   296A      0.961593   297A      0.967866  
     298A      0.971868   299A      0.979295   300A      0.985139  
     301A      0.987544   302A      0.993373   303A      1.001307  
     304A      1.005359   305A      1.009838   306A      1.012306  
     307A      1.014863   308A      1.017075   309A      1.023729  
     310A      1.027651   311A      1.031601   312A      1.033211  
     313A      1.037366   314A      1.042665   315A      1.046132  
     316A      1.050009   317A      1.054852   318A      1.058100  
     319A      1.062799   320A      1.065035   321A      1.070681  
     322A      1.079460   323A      1.081553   324A      1.085149  
     325A      1.089485   326A      1.092222   327A      1.095811  
     328A      1.098726   329A      1.100114   330A      1.101614  
     331A      1.111001   332A      1.113793   333A      1.116449  
     334A      1.125184   335A      1.127713   336A      1.132316  
     337A      1.136774   338A      1.142073   339A      1.144756  
     340A      1.146828   341A      1.154826   342A      1.160721  
     343A      1.161687   344A      1.169732   345A      1.174239  
     346A      1.177162   347A      1.179547   348A      1.183395  
     349A      1.186674   350A      1.190717   351A      1.195474  
     352A      1.201598   353A      1.202778   354A      1.206759  
     355A      1.213912   356A      1.215654   357A      1.219534  
     358A      1.224717   359A      1.230505   360A      1.232484  
     361A      1.235277   362A      1.243189   363A      1.250209  
     364A      1.251726   365A      1.259568   366A      1.264837  
     367A      1.266773   368A      1.277237   369A      1.279049  
     370A      1.284534   371A      1.290275   372A      1.300418  
     373A      1.304691   374A      1.309478   375A      1.312298  
     376A      1.317275   377A      1.322798   378A      1.329307  
     379A      1.331061   380A      1.338556   381A      1.343617  
     382A      1.344612   383A      1.350868   384A      1.353431  
     385A      1.358898   386A      1.367546   387A      1.381173  
     388A      1.386320   389A      1.389100   390A      1.396507  
     391A      1.407820   392A      1.412820   393A      1.414990  
     394A      1.421178   395A      1.427346   396A      1.434270  
     397A      1.437648   398A      1.448552   399A      1.450074  
     400A      1.459539   401A      1.466224   402A      1.467744  
     403A      1.469045   404A      1.478051   405A      1.482896  
     406A      1.489404   407A      1.493323   408A      1.499353  
     409A      1.505402   410A      1.511175   411A      1.513330  
     412A      1.524780   413A      1.526904   414A      1.533425  
     415A      1.534937   416A      1.540467   417A      1.544384  
     418A      1.545900   419A      1.558473   420A      1.560503  
     421A      1.562793   422A      1.565617   423A      1.570313  
     424A      1.575223   425A      1.575648   426A      1.590637  
     427A      1.598121   428A      1.601702   429A      1.606103  
     430A      1.613058   431A      1.620912   432A      1.622725  
     433A      1.629340   434A      1.635281   435A      1.642032  
     436A      1.648786   437A      1.655019   438A      1.664013  
     439A      1.664723   440A      1.673200   441A      1.674683  
     442A      1.685824   443A      1.693722   444A      1.696256  
     445A      1.699441   446A      1.708233   447A      1.713807  
     448A      1.716877   449A      1.727106   450A      1.730131  
     451A      1.732622   452A      1.742472   453A      1.743712  
     454A      1.750232   455A      1.758649   456A      1.763031  
     457A      1.768321   458A      1.774754   459A      1.779611  
     460A      1.785489   461A      1.791434   462A      1.798336  
     463A      1.800824   464A      1.809249   465A      1.812695  
     466A      1.816768   467A      1.820531   468A      1.824353  
     469A      1.833174   470A      1.837339   471A      1.846052  
     472A      1.852895   473A      1.860252   474A      1.865567  
     475A      1.869890   476A      1.873603   477A      1.878085  
     478A      1.884832   479A      1.895729   480A      1.902093  
     481A      1.906355   482A      1.913402   483A      1.920345  
     484A      1.925691   485A      1.929058   486A      1.936869  
     487A      1.940122   488A      1.953167   489A      1.958708  
     490A      1.964153   491A      1.969752   492A      1.979188  
     493A      1.985350   494A      1.996060   495A      1.996886  
     496A      2.001165   497A      2.004547   498A      2.013215  
     499A      2.015646   500A      2.021976   501A      2.027505  
     502A      2.032055   503A      2.036826   504A      2.043670  
     505A      2.048269   506A      2.053502   507A      2.060432  
     508A      2.064994   509A      2.074441   510A      2.078925  
     511A      2.087994   512A      2.095119   513A      2.103226  
     514A      2.112560   515A      2.118521   516A      2.129978  
     517A      2.131983   518A      2.143081   519A      2.145232  
     520A      2.149417   521A      2.152496   522A      2.162023  
     523A      2.166389   524A      2.172417   525A      2.175787  
     526A      2.185032   527A      2.194827   528A      2.198188  
     529A      2.215226   530A      2.223275   531A      2.232307  
     532A      2.237784   533A      2.242220   534A      2.247678  
     535A      2.253373   536A      2.266385   537A      2.270492  
     538A      2.282556   539A      2.284488   540A      2.289888  
     541A      2.296691   542A      2.306360   543A      2.313553  
     544A      2.317594   545A      2.330703   546A      2.334575  
     547A      2.348050   548A      2.355042   549A      2.361607  
     550A      2.368617   551A      2.380600   552A      2.385790  
     553A      2.395037   554A      2.403695   555A      2.409788  
     556A      2.415454   557A      2.424741   558A      2.434176  
     559A      2.441391   560A      2.457302   561A      2.465047  
     562A      2.469729   563A      2.475320   564A      2.481551  
     565A      2.485714   566A      2.505004   567A      2.513145  
     568A      2.515697   569A      2.516091   570A      2.531004  
     571A      2.545847   572A      2.549566   573A      2.555330  
     574A      2.563154   575A      2.565246   576A      2.574982  
     577A      2.583173   578A      2.594466   579A      2.603709  
     580A      2.612566   581A      2.615927   582A      2.633806  
     583A      2.641621   584A      2.649165   585A      2.654065  
     586A      2.661241   587A      2.666627   588A      2.678852  
     589A      2.682605   590A      2.693075   591A      2.710252  
     592A      2.726407   593A      2.737627   594A      2.745399  
     595A      2.751159   596A      2.761939   597A      2.771264  
     598A      2.780180   599A      2.791018   600A      2.805485  
     601A      2.810667   602A      2.829106   603A      2.841067  
     604A      2.847329   605A      2.855052   606A      2.860618  
     607A      2.867186   608A      2.880061   609A      2.886238  
     610A      2.896294   611A      2.909553   612A      2.914398  
     613A      2.920699   614A      2.932877   615A      2.939552  
     616A      2.940028   617A      2.954708   618A      2.964114  
     619A      2.973292   620A      2.985896   621A      2.997809  
     622A      3.004112   623A      3.025104   624A      3.041409  
     625A      3.054026   626A      3.064845   627A      3.070274  
     628A      3.076904   629A      3.084233   630A      3.100009  
     631A      3.105389   632A      3.111975   633A      3.115583  
     634A      3.133888   635A      3.136944   636A      3.153504  
     637A      3.159704   638A      3.170627   639A      3.177927  
     640A      3.190139   641A      3.204908   642A      3.214725  
     643A      3.220008   644A      3.238405   645A      3.254725  
     646A      3.262917   647A      3.267983   648A      3.293930  
     649A      3.297719   650A      3.312725   651A      3.321640  
     652A      3.339228   653A      3.345996   654A      3.355869  
     655A      3.356478   656A      3.375792   657A      3.384594  
     658A      3.389192   659A      3.407516   660A      3.433722  
     661A      3.436880   662A      3.460430   663A      3.471045  
     664A      3.482632   665A      3.495865   666A      3.506151  
     667A      3.514791   668A      3.528938   669A      3.541870  
     670A      3.548590   671A      3.559679   672A      3.575179  
     673A      3.592222   674A      3.601200   675A      3.607617  
     676A      3.625806   677A      3.634929   678A      3.655528  
     679A      3.656711   680A      3.673484   681A      3.677216  
     682A      3.685154   683A      3.698449   684A      3.714298  
     685A      3.726034   686A      3.728570   687A      3.741104  
     688A      3.748656   689A      3.760752   690A      3.766717  
     691A      3.776957   692A      3.783666   693A      3.799347  
     694A      3.800925   695A      3.802940   696A      3.813811  
     697A      3.822276   698A      3.828255   699A      3.841245  
     700A      3.842900   701A      3.849709   702A      3.859296  
     703A      3.876170   704A      3.885738   705A      3.900887  
     706A      3.901598   707A      3.906198   708A      3.910660  
     709A      3.925723   710A      3.928724   711A      3.943543  
     712A      3.955802   713A      3.961347   714A      3.970266  
     715A      3.976385   716A      3.987847   717A      3.994421  
     718A      4.000431   719A      4.014144   720A      4.022766  
     721A      4.023913   722A      4.032525   723A      4.040814  
     724A      4.055785   725A      4.060809   726A      4.068406  
     727A      4.071908   728A      4.074236   729A      4.087776  
     730A      4.091996   731A      4.101611   732A      4.110734  
     733A      4.122065   734A      4.125445   735A      4.134015  
     736A      4.139401   737A      4.149418   738A      4.164784  
     739A      4.167032   740A      4.168598   741A      4.178775  
     742A      4.190856   743A      4.201368   744A      4.211561  
     745A      4.220783   746A      4.227986   747A      4.234175  
     748A      4.244034   749A      4.246273   750A      4.254422  
     751A      4.270891   752A      4.280951   753A      4.283735  
     754A      4.298995   755A      4.300108   756A      4.306420  
     757A      4.313965   758A      4.320148   759A      4.326245  
     760A      4.334603   761A      4.343744   762A      4.356456  
     763A      4.358704   764A      4.367177   765A      4.371020  
     766A      4.383743   767A      4.393931   768A      4.399489  
     769A      4.406399   770A      4.408841   771A      4.415314  
     772A      4.427176   773A      4.433513   774A      4.438504  
     775A      4.444114   776A      4.455742   777A      4.457868  
     778A      4.469363   779A      4.474662   780A      4.477931  
     781A      4.495393   782A      4.509432   783A      4.516798  
     784A      4.517443   785A      4.532926   786A      4.537388  
     787A      4.549200   788A      4.562358   789A      4.571023  
     790A      4.580517   791A      4.597312   792A      4.601407  
     793A      4.606521   794A      4.621888   795A      4.633337  
     796A      4.637049   797A      4.645270   798A      4.653682  
     799A      4.664088   800A      4.675716   801A      4.693634  
     802A      4.697287   803A      4.709007   804A      4.715854  
     805A      4.719217   806A      4.730898   807A      4.736435  
     808A      4.743216   809A      4.757298   810A      4.766620  
     811A      4.776800   812A      4.791735   813A      4.797476  
     814A      4.817762   815A      4.822918   816A      4.831359  
     817A      4.833541   818A      4.844859   819A      4.858371  
     820A      4.870420   821A      4.882725   822A      4.887740  
     823A      4.893701   824A      4.910425   825A      4.922529  
     826A      4.929713   827A      4.951527   828A      4.959285  
     829A      4.965781   830A      4.973995   831A      4.984668  
     832A      4.996155   833A      5.008092   834A      5.010595  
     835A      5.030658   836A      5.034021   837A      5.044324  
     838A      5.057761   839A      5.069004   840A      5.077520  
     841A      5.087808   842A      5.106619   843A      5.118453  
     844A      5.124775   845A      5.134827   846A      5.142369  
     847A      5.151186   848A      5.158771   849A      5.165880  
     850A      5.181336   851A      5.189390   852A      5.205983  
     853A      5.211360   854A      5.223029   855A      5.244445  
     856A      5.262783   857A      5.276391   858A      5.280562  
     859A      5.291192   860A      5.300926   861A      5.312056  
     862A      5.313987   863A      5.330472   864A      5.333864  
     865A      5.339375   866A      5.351935   867A      5.358007  
     868A      5.375194   869A      5.379489   870A      5.385812  
     871A      5.397617   872A      5.400390   873A      5.418463  
     874A      5.420536   875A      5.438211   876A      5.453892  
     877A      5.462118   878A      5.480959   879A      5.481764  
     880A      5.490410   881A      5.501768   882A      5.512887  
     883A      5.522255   884A      5.533808   885A      5.538306  
     886A      5.561311   887A      5.581198   888A      5.584642  
     889A      5.591359   890A      5.597999   891A      5.613683  
     892A      5.629047   893A      5.636445   894A      5.647557  
     895A      5.660926   896A      5.677749   897A      5.689585  
     898A      5.696584   899A      5.704170   900A      5.718046  
     901A      5.733402   902A      5.742862   903A      5.752866  
     904A      5.784994   905A      5.799741   906A      5.816315  
     907A      5.838601   908A      5.841983   909A      5.853237  
     910A      5.871950   911A      5.881029   912A      5.891466  
     913A      5.893633   914A      5.926759   915A      5.952368  
     916A      5.970097   917A      5.977886   918A      5.986960  
     919A      6.003941   920A      6.014084   921A      6.015868  
     922A      6.037925   923A      6.053008   924A      6.069100  
     925A      6.106993   926A      6.114894   927A      6.137588  
     928A      6.150865   929A      6.167508   930A      6.173566  
     931A      6.178273   932A      6.221699   933A      6.237294  
     934A      6.241772   935A      6.249806   936A      6.266699  
     937A      6.309212   938A      6.312328   939A      6.356867  
     940A      6.367943   941A      6.390363   942A      6.443829  
     943A      6.467232   944A      6.520089   945A      6.541800  
     946A      6.576331   947A      6.654144   948A      6.658376  
     949A      6.695774   950A      6.719724   951A      6.734307  
     952A      6.754495   953A      6.786896   954A      6.788436  
     955A      6.806495   956A      6.815321   957A      6.842596  
     958A      6.879791   959A      6.901551   960A      6.902527  
     961A      6.948576   962A      6.962014   963A      6.971112  
     964A      6.975952   965A      6.985534   966A      6.994490  
     967A      7.007944   968A      7.042643   969A      7.055733  
     970A      7.066608   971A      7.092434   972A      7.103022  
     973A      7.107228   974A      7.144000   975A      7.176678  
     976A      7.181598   977A      7.198865   978A      7.224567  
     979A      7.232806   980A      7.266269   981A      7.278647  
     982A      7.282478   983A      7.301143   984A      7.358863  
     985A      7.373801   986A      7.401306   987A      7.418851  
     988A      7.439206   989A      7.471652   990A      7.502671  
     991A      7.503849   992A      7.520451   993A      7.541956  
     994A      7.572426   995A      7.597751   996A      7.619023  
     997A      7.631477   998A      7.644992   999A      7.673905  
    1000A      7.727398  1001A      7.754607  1002A      7.802800  
    1003A      7.831186  1004A      7.872304  1005A      7.914163  
    1006A      7.918851  1007A      7.947698  1008A      7.984677  
    1009A      8.024878  1010A      8.062472  1011A      8.069473  
    1012A      8.173385  1013A      8.196347  1014A      8.280504  
    1015A      8.308833  1016A      8.468227  1017A      8.520058  
    1018A      8.569096  1019A      8.713039  1020A     15.502690  
    1021A     16.150464  1022A     16.408337  1023A     16.588803  
    1024A     17.035264  1025A     17.416119  1026A     18.039436  
    1027A     18.496572  1028A     18.884253  1029A     19.158641  
    1030A     19.393027  1031A     20.012816  1032A     20.172863  
    1033A     20.297240  1034A     20.738957  1035A     21.574956  

    Final Occupation by Irrep:
              A 
    DOCC [    60 ]

  @DF-RHF Final Energy:  -811.47308906660498

   => Energetics <=

    Nuclear Repulsion Energy =           1169.6978622104218175
    One-Electron Energy =               -3434.4708748884395391
    Two-Electron Energy =                1453.2999236114128507
    Total Energy =                       -811.4730890666050982

Computation Completed

*** tstop() called on node35.bme.utexas.edu at Wed Nov 11 19:57:01 2020
Module time:
	user time   =    1997.74 seconds =      33.30 minutes
	system time =     403.59 seconds =       6.73 minutes
	total time  =        589 seconds =       9.82 minutes
Total time:
	user time   =    1997.74 seconds =      33.30 minutes
	system time =     403.59 seconds =       6.73 minutes
	total time  =        589 seconds =       9.82 minutes
   => Loading Basis Set <=

    Name: (AUG-CC-PVTZ AUX)
    Role: RIFIT
    Keyword: DF_BASIS_MP2
    atoms 1-4   entry O          line   264 file /home/xy3866/psi4conda/share/psi4/basis/aug-cc-pvtz-ri.gbs 
    atoms 5-7   entry N          line   206 file /home/xy3866/psi4conda/share/psi4/basis/aug-cc-pvtz-ri.gbs 
    atoms 8-16  entry C          line   148 file /home/xy3866/psi4conda/share/psi4/basis/aug-cc-pvtz-ri.gbs 
    atoms 17-29 entry H          line    30 file /home/xy3866/psi4conda/share/psi4/basis/aug-cc-pvtz-ri.gbs 


*** tstart() called on node35.bme.utexas.edu
*** at Wed Nov 11 19:57:01 2020


  //>>>>>>>>>>>>>>>>>>>>>>>>>>>>>>>>>>>//
  //               DFMP2               //
  //<<<<<<<<<<<<<<<<<<<<<<<<<<<<<<<<<<<//

	 --------------------------------------------------------
	                          DF-MP2                         
	      2nd-Order Density-Fitted Moller-Plesset Theory     
	              RMP2 Wavefunction,   8 Threads             
	                                                         
	        Rob Parrish, Justin Turney, Andy Simmonett,      
	           Ed Hohenstein, and C. David Sherrill          
	 --------------------------------------------------------

   => Auxiliary Basis Set <=

  Basis Set: (AUG-CC-PVTZ AUX)
    Blend: AUG-CC-PVTZ-RI
    Number of shells: 630
    Number of basis function: 2294
    Number of Cartesian functions: 2891
    Spherical Harmonics?: true
    Max angular momentum: 4

	 --------------------------------------------------------
	                 NBF =  1035, NAUX =  2294
	 --------------------------------------------------------
	   CLASS    FOCC     OCC    AOCC    AVIR     VIR    FVIR
	   PAIRS       0      60      60     975     975       0
	 --------------------------------------------------------

  DFHelper Memory: AOs need 15.946 GiB; user supplied 22.352 GiB. Using in-core AOs.


         ------------------------------------------------------------
                                     CPHF                           
                                  Rob Parrish                       
         ------------------------------------------------------------

  ==> Geometry <==

    Molecular point group: c1
    Full point group: C1

    Geometry (in Angstrom), charge = 0, multiplicity = 1:

       Center              X                  Y                   Z               Mass       
    ------------   -----------------  -----------------  -----------------  -----------------
         O            1.357713750551    -0.382310714084    -0.929694464561    15.994914619570
         O            3.197699750551     1.898913285916    -0.297363464561    15.994914619570
         O            2.855739650551    -2.721686114084    -0.430089964561    15.994914619570
         O           -1.366543249449     2.371705285916     0.156932535439    15.994914619570
         N           -0.802601249449     0.197118285916    -0.227106464561    14.003074004430
         N           -3.058529249449     0.802939285916     0.242161535439    14.003074004430
         N           -4.677767249449    -0.814734714084     0.414786535439    14.003074004430
         C            2.697237750551     0.873254285916     0.561623535439    12.000000000000
         C            1.232486750551     1.104926285916     0.890001535439    12.000000000000
         C            2.647461750551    -0.394590714084    -0.283320464561    12.000000000000
         C            0.569600750551     0.680704285916    -0.412766464561    12.000000000000
         C            2.797740750551    -1.662315714084     0.524619535439    12.000000000000
         C           -1.131694249449    -1.118118714084    -0.306126464561    12.000000000000
         C           -1.749045249449     1.201592285916     0.084194535439    12.000000000000
         C           -2.421664249449    -1.506860714084    -0.102392464561    12.000000000000
         C           -3.366349249449    -0.475459714084     0.170660535439    12.000000000000
         H            3.330023750551     0.754485285916     1.453002535439     1.007825032230
         H            0.900349750551     0.441529285916     1.695638535439     1.007825032230
         H            0.980971750551     2.131767285916     1.160296535439     1.007825032230
         H            0.523096750551     1.510954285916    -1.122763464561     1.007825032230
         H            3.413134750551    -0.366582714084    -1.064476464561     1.007825032230
         H            1.985003150551    -1.686451614084     1.269505235439     1.007825032230
         H            3.741731750551    -1.611814714084     1.090438535439     1.007825032230
         H            3.099493750551     2.744024285916     0.180132535439     1.007825032230
         H           -0.315097249449    -1.791500714084    -0.541548464561     1.007825032230
         H            2.905672750551    -3.567371714084     0.121361535439     1.007825032230
         H           -2.707825249449    -2.551383714084    -0.151100464561     1.007825032230
         H           -5.033068249449    -1.640041714084    -0.054569464561     1.007825032230
         H           -5.303828249449    -0.016097714084     0.388250535439     1.007825032230

  Nuclear repulsion = 1169.697862210421818
  Reference energy  = -811.473089066604985

  ==> Basis Set <==

  Basis Set: AUG-CC-PVTZ
    Blend: AUG-CC-PVTZ
    Number of shells: 341
    Number of basis function: 1035
    Number of Cartesian functions: 1205
    Spherical Harmonics?: true
    Max angular momentum: 3

  ==> CGRSolver (by Rob Parrish) <==

   Number of roots    =         1
   Preconditioning    =    JACOBI
   Convergence cutoff =     1E-06
   Maximum iterations =       100

  ==> CPHFRHamiltonian (by Rob Parrish) <== 

  ==> MemDFJK: Density-Fitted J/K Matrices <==

    J tasked:                   Yes
    K tasked:                   Yes
    wK tasked:                   No
    OpenMP threads:               8
    Memory [MiB]:             22888
    Algorithm:                 Disk
    Schwarz Cutoff:           1E-12
    Mask sparsity (%):      13.4345
    Fitting Condition:        1E-10

   => Auxiliary Basis Set <=

  Basis Set: (AUG-CC-PVTZ AUX)
    Blend: AUG-CC-PVTZ-JKFIT
    Number of shells: 662
    Number of basis function: 2262
    Number of Cartesian functions: 2811
    Spherical Harmonics?: true
    Max angular momentum: 4

  ==> CPHF Iterations <==

  => Iterations <=

             Iter  Converged  Remaining    Residual
  CGR           1          0          1   1.232E-01
  CGR           2          0          1   3.931E-02
  CGR           3          0          1   2.005E-02
  CGR           4          0          1   6.061E-03
  CGR           5          0          1   2.650E-03
  CGR           6          0          1   1.032E-03
  CGR           7          0          1   3.410E-04
  CGR           8          0          1   1.325E-04
  CGR           9          0          1   4.596E-05
  CGR          10          0          1   1.781E-05
  CGR          11          0          1   7.310E-06
  CGR          12          0          1   2.697E-06
  CGR          13          0          1   1.057E-06
  CGR          14          1          0   3.226E-07

    CGRSolver converged.

	-----------------------------------------------------------
	 ==================> DF-MP2 Energies <==================== 
	-----------------------------------------------------------
	 Reference Energy          =    -811.4730890666049845 [Eh]
	 Singles Energy            =      -0.0000000000000000 [Eh]
	 Same-Spin Energy          =      -0.8303960154150084 [Eh]
	 Opposite-Spin Energy      =      -2.5268500206913238 [Eh]
	 Correlation Energy        =      -3.3572460361063321 [Eh]
	 Total Energy              =    -814.8303351027112740 [Eh]
	-----------------------------------------------------------
	 ================> DF-SCS-MP2 Energies <================== 
	-----------------------------------------------------------
	 SCS Same-Spin Scale       =       0.3333333333333333 [-]
	 SCS Opposite-Spin Scale   =       1.2000000000000000 [-]
	 SCS Same-Spin Energy      =      -0.2767986718050028 [Eh]
	 SCS Opposite-Spin Energy  =      -3.0322200248295883 [Eh]
	 SCS Correlation Energy    =      -3.3090186966345909 [Eh]
	 SCS Total Energy          =    -814.7821077632395372 [Eh]
	-----------------------------------------------------------



Properties will be evaluated at   0.000000,  -0.000000,   0.000000 [a0]

Properties computed using the MP2 density matrix

  Nuclear Dipole Moment: [e a0]
     X:     7.1033      Y:    -5.2902      Z:     4.1391

  Electronic Dipole Moment: [e a0]
     X:    -6.7319      Y:     3.4235      Z:    -3.1483

  Dipole Moment: [e a0]
     X:     0.3714      Y:    -1.8668      Z:     0.9908     Total:     2.1458

  Dipole Moment: [D]
     X:     0.9440      Y:    -4.7448      Z:     2.5183     Total:     5.4540


*** tstop() called on node35.bme.utexas.edu at Wed Nov 11 20:26:19 2020
Module time:
	user time   =    8703.90 seconds =     145.07 minutes
	system time =    1677.74 seconds =      27.96 minutes
	total time  =       1758 seconds =      29.30 minutes
Total time:
	user time   =   10702.36 seconds =     178.37 minutes
	system time =    2081.35 seconds =      34.69 minutes
	total time  =       2347 seconds =      39.12 minutes

    Psi4 stopped on: Wednesday, 11 November 2020 08:26PM
    Psi4 wall time for execution: 0:39:08.14

*** Psi4 exiting successfully. Buy a developer a beer!
