
    -----------------------------------------------------------------------
          Psi4: An Open-Source Ab Initio Electronic Structure Package
                               Psi4 1.3.2 release

                         Git: Rev {HEAD} ecbda83 


    R. M. Parrish, L. A. Burns, D. G. A. Smith, A. C. Simmonett,
    A. E. DePrince III, E. G. Hohenstein, U. Bozkaya, A. Yu. Sokolov,
    R. Di Remigio, R. M. Richard, J. F. Gonthier, A. M. James,
    H. R. McAlexander, A. Kumar, M. Saitow, X. Wang, B. P. Pritchard,
    P. Verma, H. F. Schaefer III, K. Patkowski, R. A. King, E. F. Valeev,
    F. A. Evangelista, J. M. Turney, T. D. Crawford, and C. D. Sherrill,
    J. Chem. Theory Comput. 13(7) pp 3185--3197 (2017).
    (doi: 10.1021/acs.jctc.7b00174)


                         Additional Contributions by
    P. Kraus, H. Kruse, M. H. Lechner, M. C. Schieber, R. A. Shaw,
    A. Alenaizan, R. Galvelis, Z. L. Glick, S. Lehtola, and J. P. Misiewicz

    -----------------------------------------------------------------------


    Psi4 started on: Friday, 13 November 2020 12:58AM

    Process ID: 58614
    Host:       node35.bme.utexas.edu
    PSIDATADIR: /home/xy3866/psi4conda/share/psi4
    Memory:     500.0 MiB
    Threads:    8
    
  ==> Input File <==

--------------------------------------------------------------------------
#psi4
#
memory 32 gb

molecule  {
0 1
  O        1.3620710    -0.3800110    -0.9318440
  O        3.2020570     1.9012130    -0.2995130
  O        2.7994070    -2.7489470    -0.4002010
  O       -1.3621860     2.3740050     0.1547830
  N       -0.7982440     0.1994180    -0.2292560
  N       -3.0541720     0.8052390     0.2400120
  N       -4.6734100    -0.8124350     0.4126370
  C        2.7015950     0.8755540     0.5594740
  C        1.2368440     1.1072260     0.8878520
  C        2.6518190    -0.3922910    -0.2854700
  C        0.3868462     0.6170628    -0.3895996
  C        2.8020980    -1.6600160     0.5224700
  C       -1.1273370    -1.1158190    -0.3082760
  C       -1.7446880     1.2038920     0.0820450
  C       -2.4173070    -1.5045610    -0.1045420
  C       -3.3619920    -0.4731600     0.1685110
  H        3.3343810     0.7567850     1.4508530
  H        0.9047070     0.4438290     1.6934890
  H        0.9853290     2.1340670     1.1581470
  H        0.5274540     1.5132540    -1.1249130
  H        3.4174920    -0.3642830    -1.0666260
  H        1.9707490    -1.7331840     1.2432230
  H        3.7460890    -1.6095150     1.0882890
  H        3.1038510     2.7463240     0.1779830
  H       -0.3107400    -1.7892010    -0.5436980
  H        2.9100300    -3.5650720     0.1192120
  H       -2.7034680    -2.5490840    -0.1532500
  H       -5.0287110    -1.6377420    -0.0567190
  H       -5.2994710    -0.0137980     0.3861010
units angstrom
no_reorient  #important for SAPT in psi4, default
symmetry c1  #important for SAPT in psi4, default
}

set PROPERTIES_ORIGIN ["COM"]
properties('MP2/aug-cc-pvtz', properties = ['dipole'])
--------------------------------------------------------------------------

  Memory set to  29.802 GiB by Python driver.
    SCF Algorithm Type (re)set to DF.

*** tstart() called on node35.bme.utexas.edu
*** at Fri Nov 13 00:58:33 2020

   => Loading Basis Set <=

    Name: AUG-CC-PVTZ
    Role: ORBITAL
    Keyword: BASIS
    atoms 1-4   entry O          line   327 file /home/xy3866/psi4conda/share/psi4/basis/aug-cc-pvtz.gbs 
    atoms 5-7   entry N          line   281 file /home/xy3866/psi4conda/share/psi4/basis/aug-cc-pvtz.gbs 
    atoms 8-16  entry C          line   235 file /home/xy3866/psi4conda/share/psi4/basis/aug-cc-pvtz.gbs 
    atoms 17-29 entry H          line    36 file /home/xy3866/psi4conda/share/psi4/basis/aug-cc-pvtz.gbs 


         ---------------------------------------------------------
                                   SCF
               by Justin Turney, Rob Parrish, Andy Simmonett
                          and Daniel G. A. Smith
                              RHF Reference
                        8 Threads,  30517 MiB Core
         ---------------------------------------------------------

  ==> Geometry <==

    Molecular point group: c1
    Full point group: C1

    Geometry (in Angstrom), charge = 0, multiplicity = 1:

       Center              X                  Y                   Z               Mass       
    ------------   -----------------  -----------------  -----------------  -----------------
         O            1.371958410257    -0.376526549453    -0.933181743701    15.994914619570
         O            3.211944410257     1.904697450547    -0.300850743701    15.994914619570
         O            2.809294410257    -2.745462549453    -0.401538743701    15.994914619570
         O           -1.352298589743     2.377489450547     0.153445256299    15.994914619570
         N           -0.788356589743     0.202902450547    -0.230593743701    14.003074004430
         N           -3.044284589743     0.808723450547     0.238674256299    14.003074004430
         N           -4.663522589743    -0.808950549453     0.411299256299    14.003074004430
         C            2.711482410257     0.879038450547     0.558136256299    12.000000000000
         C            1.246731410257     1.110710450547     0.886514256299    12.000000000000
         C            2.661706410257    -0.388806549453    -0.286807743701    12.000000000000
         C            0.396733610257     0.620547250547    -0.390937343701    12.000000000000
         C            2.811985410257    -1.656531549453     0.521132256299    12.000000000000
         C           -1.117449589743    -1.112334549453    -0.309613743701    12.000000000000
         C           -1.734800589743     1.207376450547     0.080707256299    12.000000000000
         C           -2.407419589743    -1.501076549453    -0.105879743701    12.000000000000
         C           -3.352104589743    -0.469675549453     0.167173256299    12.000000000000
         H            3.344268410257     0.760269450547     1.449515256299     1.007825032230
         H            0.914594410257     0.447313450547     1.692151256299     1.007825032230
         H            0.995216410257     2.137551450547     1.156809256299     1.007825032230
         H            0.537341410257     1.516738450547    -1.126250743701     1.007825032230
         H            3.427379410257    -0.360798549453    -1.067963743701     1.007825032230
         H            1.980636410257    -1.729699549453     1.241885256299     1.007825032230
         H            3.755976410257    -1.606030549453     1.086951256299     1.007825032230
         H            3.113738410257     2.749808450547     0.176645256299     1.007825032230
         H           -0.300852589743    -1.785716549453    -0.545035743701     1.007825032230
         H            2.919917410257    -3.561587549453     0.117874256299     1.007825032230
         H           -2.693580589743    -2.545599549453    -0.154587743701     1.007825032230
         H           -5.018823589743    -1.634257549453    -0.058056743701     1.007825032230
         H           -5.289583589743    -0.010313549453     0.384763256299     1.007825032230

  Running in c1 symmetry.

  Rotational constants: A =      0.03274  B =      0.01113  C =      0.00875 [cm^-1]
  Rotational constants: A =    981.58732  B =    333.67881  C =    262.39767 [MHz]
  Nuclear repulsion = 1171.212920907115176

  Charge       = 0
  Multiplicity = 1
  Electrons    = 120
  Nalpha       = 60
  Nbeta        = 60

  ==> Algorithm <==

  SCF Algorithm Type is DF.
  DIIS enabled.
  MOM disabled.
  Fractional occupation disabled.
  Guess Type is SAD.
  Energy threshold   = 1.00e-10
  Density threshold  = 1.00e-10
  Integral threshold = 0.00e+00

  ==> Primary Basis <==

  Basis Set: AUG-CC-PVTZ
    Blend: AUG-CC-PVTZ
    Number of shells: 341
    Number of basis function: 1035
    Number of Cartesian functions: 1205
    Spherical Harmonics?: true
    Max angular momentum: 3

   => Loading Basis Set <=

    Name: (AUG-CC-PVTZ AUX)
    Role: JKFIT
    Keyword: DF_BASIS_SCF
    atoms 1-4   entry O          line   286 file /home/xy3866/psi4conda/share/psi4/basis/aug-cc-pvtz-jkfit.gbs 
    atoms 5-7   entry N          line   224 file /home/xy3866/psi4conda/share/psi4/basis/aug-cc-pvtz-jkfit.gbs 
    atoms 8-16  entry C          line   162 file /home/xy3866/psi4conda/share/psi4/basis/aug-cc-pvtz-jkfit.gbs 
    atoms 17-29 entry H          line    70 file /home/xy3866/psi4conda/share/psi4/basis/aug-cc-pvtz-jkfit.gbs 

  ==> Pre-Iterations <==

   -------------------------------------------------------
    Irrep   Nso     Nmo     Nalpha   Nbeta   Ndocc  Nsocc
   -------------------------------------------------------
     A       1035    1035       0       0       0       0
   -------------------------------------------------------
    Total    1035    1035      60      60      60       0
   -------------------------------------------------------

  ==> Integral Setup <==

  DFHelper Memory: AOs need 15.953 GiB; user supplied 22.352 GiB. Using in-core AOs.

  ==> MemDFJK: Density-Fitted J/K Matrices <==

    J tasked:                   Yes
    K tasked:                   Yes
    wK tasked:                   No
    OpenMP threads:               8
    Memory [MiB]:             22888
    Algorithm:                 Disk
    Schwarz Cutoff:           1E-12
    Mask sparsity (%):      13.3929
    Fitting Condition:        1E-10

   => Auxiliary Basis Set <=

  Basis Set: (AUG-CC-PVTZ AUX)
    Blend: AUG-CC-PVTZ-JKFIT
    Number of shells: 662
    Number of basis function: 2262
    Number of Cartesian functions: 2811
    Spherical Harmonics?: true
    Max angular momentum: 4

  Minimum eigenvalue in the overlap matrix is 8.4189231032E-07.
  Using Symmetric Orthogonalization.

  SCF Guess: Superposition of Atomic Densities via on-the-fly atomic UHF.

  ==> Iterations <==

                           Total Energy        Delta E     RMS |[F,P]|

   @DF-RHF iter SAD:  -811.15753443865367   -8.11158e+02   0.00000e+00 
   @DF-RHF iter   1:  -810.94009865309647    2.17436e-01   9.52007e-04 DIIS
   @DF-RHF iter   2:  -811.31111306436253   -3.71014e-01   5.40961e-04 DIIS
   @DF-RHF iter   3:  -811.41901479712089   -1.07902e-01   1.09492e-04 DIIS
   @DF-RHF iter   4:  -811.42639054607844   -7.37575e-03   4.59657e-05 DIIS
   @DF-RHF iter   5:  -811.42763041103160   -1.23986e-03   1.03005e-05 DIIS
   @DF-RHF iter   6:  -811.42774680961111   -1.16399e-04   4.91539e-06 DIIS
   @DF-RHF iter   7:  -811.42777620027277   -2.93907e-05   1.78296e-06 DIIS
   @DF-RHF iter   8:  -811.42778225632151   -6.05605e-06   7.21894e-07 DIIS
   @DF-RHF iter   9:  -811.42778318442936   -9.28108e-07   2.72953e-07 DIIS
   @DF-RHF iter  10:  -811.42778331460761   -1.30178e-07   1.05126e-07 DIIS
   @DF-RHF iter  11:  -811.42778333390515   -1.92975e-08   3.70413e-08 DIIS
   @DF-RHF iter  12:  -811.42778333584602   -1.94086e-09   1.57730e-08 DIIS
   @DF-RHF iter  13:  -811.42778333617196   -3.25940e-10   4.75957e-09 DIIS
   @DF-RHF iter  14:  -811.42778333620879   -3.68345e-11   1.99919e-09 DIIS
   @DF-RHF iter  15:  -811.42778333621857   -9.77707e-12   9.18851e-10 DIIS
   @DF-RHF iter  16:  -811.42778333621209    6.48015e-12   3.74335e-10 DIIS
   @DF-RHF iter  17:  -811.42778333622027   -8.18545e-12   1.71855e-10 DIIS
   @DF-RHF iter  18:  -811.42778333621254    7.73070e-12   5.51989e-11 DIIS
  Energy and wave function converged.


  ==> Post-Iterations <==

    Orbital Energies [Eh]
    ---------------------

    Doubly Occupied:                                                      

       1A    -20.573198     2A    -20.567305     3A    -20.556349  
       4A    -20.514401     5A    -15.631699     6A    -15.595803  
       7A    -15.550509     8A    -11.381719     9A    -11.354075  
      10A    -11.328494    11A    -11.328306    12A    -11.294258  
      13A    -11.291125    14A    -11.285896    15A    -11.247806  
      16A    -11.232862    17A     -1.422247    18A     -1.381778  
      19A     -1.367767    20A     -1.354084    21A     -1.310353  
      22A     -1.286379    23A     -1.183295    24A     -1.091195  
      25A     -1.058749    26A     -1.014270    27A     -0.941204  
      28A     -0.912676    29A     -0.878170    30A     -0.832286  
      31A     -0.798497    32A     -0.768461    33A     -0.742517  
      34A     -0.716143    35A     -0.712852    36A     -0.690955  
      37A     -0.682758    38A     -0.676698    39A     -0.664636  
      40A     -0.637268    41A     -0.627958    42A     -0.625077  
      43A     -0.611946    44A     -0.595853    45A     -0.589842  
      46A     -0.576247    47A     -0.555485    48A     -0.541738  
      49A     -0.532978    50A     -0.512206    51A     -0.505738  
      52A     -0.475029    53A     -0.469158    54A     -0.460565  
      55A     -0.457765    56A     -0.447413    57A     -0.429698  
      58A     -0.425649    59A     -0.382404    60A     -0.338262  

    Virtual:                                                              

      61A      0.017434    62A      0.023420    63A      0.030609  
      64A      0.038165    65A      0.039742    66A      0.046079  
      67A      0.051033    68A      0.055832    69A      0.058261  
      70A      0.060918    71A      0.063781    72A      0.073566  
      73A      0.079302    74A      0.081466    75A      0.088735  
      76A      0.092295    77A      0.100579    78A      0.102215  
      79A      0.104468    80A      0.107265    81A      0.112976  
      82A      0.116068    83A      0.120597    84A      0.120736  
      85A      0.126445    86A      0.128566    87A      0.130338  
      88A      0.132593    89A      0.140073    90A      0.144003  
      91A      0.145436    92A      0.149146    93A      0.150494  
      94A      0.156080    95A      0.156662    96A      0.158943  
      97A      0.165350    98A      0.168497    99A      0.173033  
     100A      0.174539   101A      0.178055   102A      0.179505  
     103A      0.182998   104A      0.188671   105A      0.195154  
     106A      0.199088   107A      0.204551   108A      0.208807  
     109A      0.213860   110A      0.217844   111A      0.226987  
     112A      0.229823   113A      0.232674   114A      0.234758  
     115A      0.239873   116A      0.240650   117A      0.245152  
     118A      0.250582   119A      0.252240   120A      0.255100  
     121A      0.258367   122A      0.265436   123A      0.268945  
     124A      0.273263   125A      0.276139   126A      0.279439  
     127A      0.284001   128A      0.285835   129A      0.292284  
     130A      0.293671   131A      0.295680   132A      0.295888  
     133A      0.303008   134A      0.306791   135A      0.312722  
     136A      0.314909   137A      0.316718   138A      0.318511  
     139A      0.320801   140A      0.325998   141A      0.329124  
     142A      0.334048   143A      0.336548   144A      0.338964  
     145A      0.343086   146A      0.346514   147A      0.350398  
     148A      0.355264   149A      0.358300   150A      0.361322  
     151A      0.366073   152A      0.370621   153A      0.371992  
     154A      0.374456   155A      0.380293   156A      0.382994  
     157A      0.389635   158A      0.393806   159A      0.396780  
     160A      0.398853   161A      0.402329   162A      0.407647  
     163A      0.411250   164A      0.413487   165A      0.416283  
     166A      0.418081   167A      0.421157   168A      0.424453  
     169A      0.426605   170A      0.432866   171A      0.435833  
     172A      0.438899   173A      0.443930   174A      0.445772  
     175A      0.454304   176A      0.459335   177A      0.460648  
     178A      0.462696   179A      0.466625   180A      0.472042  
     181A      0.474114   182A      0.481940   183A      0.482684  
     184A      0.484922   185A      0.489144   186A      0.492299  
     187A      0.496488   188A      0.498714   189A      0.500105  
     190A      0.504198   191A      0.509080   192A      0.511924  
     193A      0.513574   194A      0.517735   195A      0.521247  
     196A      0.522506   197A      0.527874   198A      0.530381  
     199A      0.532822   200A      0.538466   201A      0.542030  
     202A      0.544959   203A      0.549271   204A      0.551029  
     205A      0.553342   206A      0.559000   207A      0.562970  
     208A      0.568648   209A      0.576162   210A      0.577975  
     211A      0.582531   212A      0.585897   213A      0.588672  
     214A      0.591552   215A      0.595204   216A      0.598554  
     217A      0.601615   218A      0.604451   219A      0.607964  
     220A      0.612247   221A      0.619852   222A      0.625164  
     223A      0.630297   224A      0.632987   225A      0.639508  
     226A      0.640188   227A      0.647662   228A      0.648336  
     229A      0.651207   230A      0.654967   231A      0.661694  
     232A      0.664264   233A      0.666668   234A      0.670750  
     235A      0.673725   236A      0.684458   237A      0.686839  
     238A      0.695188   239A      0.699221   240A      0.700248  
     241A      0.705101   242A      0.709555   243A      0.711154  
     244A      0.716438   245A      0.719028   246A      0.723116  
     247A      0.731969   248A      0.734789   249A      0.737572  
     250A      0.747605   251A      0.748778   252A      0.755598  
     253A      0.760476   254A      0.766612   255A      0.772091  
     256A      0.779202   257A      0.781094   258A      0.783300  
     259A      0.787914   260A      0.790020   261A      0.801986  
     262A      0.807514   263A      0.810278   264A      0.817352  
     265A      0.819376   266A      0.827573   267A      0.830588  
     268A      0.838164   269A      0.844630   270A      0.846723  
     271A      0.853990   272A      0.857866   273A      0.861347  
     274A      0.865230   275A      0.875683   276A      0.878575  
     277A      0.879464   278A      0.885993   279A      0.888996  
     280A      0.891399   281A      0.901582   282A      0.905048  
     283A      0.910296   284A      0.914468   285A      0.918122  
     286A      0.921778   287A      0.926423   288A      0.930249  
     289A      0.934780   290A      0.938531   291A      0.946287  
     292A      0.948304   293A      0.950381   294A      0.956321  
     295A      0.958788   296A      0.962003   297A      0.970145  
     298A      0.973944   299A      0.985154   300A      0.986732  
     301A      0.994903   302A      0.997655   303A      1.000124  
     304A      1.004043   305A      1.008562   306A      1.013339  
     307A      1.018046   308A      1.021292   309A      1.024127  
     310A      1.026813   311A      1.032153   312A      1.032707  
     313A      1.039560   314A      1.043190   315A      1.046152  
     316A      1.048728   317A      1.056309   318A      1.062779  
     319A      1.065430   320A      1.067566   321A      1.074478  
     322A      1.077379   323A      1.080437   324A      1.084192  
     325A      1.087213   326A      1.094654   327A      1.096039  
     328A      1.099763   329A      1.101710   330A      1.102555  
     331A      1.113852   332A      1.114542   333A      1.120389  
     334A      1.122873   335A      1.128340   336A      1.130762  
     337A      1.138847   338A      1.143271   339A      1.144362  
     340A      1.147991   341A      1.157308   342A      1.160149  
     343A      1.163131   344A      1.167981   345A      1.173845  
     346A      1.176083   347A      1.179257   348A      1.181910  
     349A      1.188151   350A      1.191023   351A      1.195726  
     352A      1.199511   353A      1.206636   354A      1.210547  
     355A      1.214534   356A      1.215280   357A      1.221512  
     358A      1.227046   359A      1.231557   360A      1.233698  
     361A      1.239365   362A      1.245820   363A      1.249089  
     364A      1.253071   365A      1.258557   366A      1.262686  
     367A      1.269355   368A      1.279076   369A      1.282060  
     370A      1.286586   371A      1.290179   372A      1.301036  
     373A      1.303521   374A      1.307421   375A      1.312720  
     376A      1.318121   377A      1.320725   378A      1.328071  
     379A      1.333589   380A      1.341270   381A      1.343093  
     382A      1.343300   383A      1.349050   384A      1.356104  
     385A      1.361288   386A      1.363723   387A      1.375932  
     388A      1.383151   389A      1.386184   390A      1.395379  
     391A      1.404365   392A      1.407633   393A      1.413826  
     394A      1.419240   395A      1.423863   396A      1.432476  
     397A      1.437248   398A      1.445825   399A      1.447783  
     400A      1.454655   401A      1.466173   402A      1.468206  
     403A      1.470294   404A      1.478531   405A      1.482192  
     406A      1.488743   407A      1.492033   408A      1.495864  
     409A      1.507899   410A      1.513539   411A      1.514774  
     412A      1.520459   413A      1.522386   414A      1.526100  
     415A      1.531885   416A      1.539613   417A      1.541823  
     418A      1.545837   419A      1.558344   420A      1.559980  
     421A      1.563090   422A      1.565202   423A      1.571643  
     424A      1.576522   425A      1.583234   426A      1.590730  
     427A      1.592709   428A      1.597696   429A      1.606919  
     430A      1.612550   431A      1.617559   432A      1.625226  
     433A      1.631380   434A      1.639063   435A      1.643906  
     436A      1.649028   437A      1.654173   438A      1.664003  
     439A      1.665717   440A      1.669935   441A      1.680076  
     442A      1.685999   443A      1.686730   444A      1.693988  
     445A      1.703848   446A      1.711745   447A      1.714327  
     448A      1.715402   449A      1.727774   450A      1.728828  
     451A      1.730552   452A      1.739720   453A      1.745097  
     454A      1.747069   455A      1.758259   456A      1.767941  
     457A      1.772950   458A      1.779705   459A      1.781294  
     460A      1.784497   461A      1.792714   462A      1.799676  
     463A      1.812113   464A      1.813224   465A      1.816160  
     466A      1.819586   467A      1.826986   468A      1.827444  
     469A      1.839119   470A      1.847556   471A      1.851021  
     472A      1.852471   473A      1.858249   474A      1.864432  
     475A      1.873764   476A      1.875172   477A      1.883809  
     478A      1.887919   479A      1.894926   480A      1.904132  
     481A      1.907017   482A      1.912729   483A      1.920925  
     484A      1.930644   485A      1.933518   486A      1.942245  
     487A      1.948492   488A      1.954854   489A      1.957325  
     490A      1.965914   491A      1.970321   492A      1.976137  
     493A      1.988751   494A      1.991368   495A      1.997239  
     496A      2.001760   497A      2.008622   498A      2.012605  
     499A      2.024253   500A      2.026496   501A      2.031140  
     502A      2.035718   503A      2.037549   504A      2.043674  
     505A      2.045721   506A      2.055243   507A      2.061047  
     508A      2.068466   509A      2.075475   510A      2.080949  
     511A      2.087311   512A      2.098860   513A      2.100028  
     514A      2.114622   515A      2.115077   516A      2.118296  
     517A      2.135358   518A      2.135752   519A      2.142727  
     520A      2.150284   521A      2.155424   522A      2.163370  
     523A      2.166212   524A      2.172755   525A      2.185028  
     526A      2.185836   527A      2.197165   528A      2.206640  
     529A      2.222414   530A      2.225316   531A      2.232222  
     532A      2.238025   533A      2.245971   534A      2.247750  
     535A      2.256982   536A      2.266789   537A      2.271193  
     538A      2.274193   539A      2.282823   540A      2.289675  
     541A      2.294880   542A      2.309063   543A      2.312570  
     544A      2.319391   545A      2.334579   546A      2.341720  
     547A      2.344016   548A      2.351408   549A      2.354517  
     550A      2.369589   551A      2.378252   552A      2.381350  
     553A      2.389771   554A      2.395616   555A      2.400300  
     556A      2.414174   557A      2.417384   558A      2.427908  
     559A      2.438630   560A      2.456101   561A      2.467092  
     562A      2.476191   563A      2.482664   564A      2.485751  
     565A      2.491681   566A      2.501634   567A      2.506826  
     568A      2.512121   569A      2.521505   570A      2.533284  
     571A      2.549031   572A      2.555106   573A      2.560054  
     574A      2.569013   575A      2.576684   576A      2.584887  
     577A      2.591796   578A      2.598574   579A      2.605160  
     580A      2.610451   581A      2.615034   582A      2.628458  
     583A      2.636798   584A      2.649783   585A      2.655261  
     586A      2.662112   587A      2.668269   588A      2.679261  
     589A      2.687360   590A      2.693885   591A      2.706235  
     592A      2.710469   593A      2.735034   594A      2.739406  
     595A      2.744990   596A      2.750508   597A      2.762105  
     598A      2.769612   599A      2.785498   600A      2.802220  
     601A      2.810978   602A      2.820591   603A      2.836610  
     604A      2.843983   605A      2.850924   606A      2.858220  
     607A      2.864163   608A      2.880014   609A      2.887345  
     610A      2.903064   611A      2.907967   612A      2.921522  
     613A      2.928188   614A      2.934045   615A      2.941528  
     616A      2.950774   617A      2.958349   618A      2.962972  
     619A      2.977599   620A      2.989813   621A      3.000635  
     622A      3.005193   623A      3.027847   624A      3.034633  
     625A      3.051733   626A      3.058450   627A      3.065677  
     628A      3.077095   629A      3.086329   630A      3.094799  
     631A      3.108543   632A      3.117267   633A      3.119420  
     634A      3.134878   635A      3.148692   636A      3.158912  
     637A      3.163696   638A      3.172032   639A      3.185649  
     640A      3.196111   641A      3.205264   642A      3.212113  
     643A      3.221954   644A      3.241330   645A      3.248823  
     646A      3.260003   647A      3.272378   648A      3.283742  
     649A      3.297276   650A      3.310025   651A      3.326672  
     652A      3.331541   653A      3.340467   654A      3.344446  
     655A      3.360847   656A      3.376956   657A      3.381937  
     658A      3.404325   659A      3.407603   660A      3.436475  
     661A      3.445247   662A      3.463754   663A      3.465188  
     664A      3.489839   665A      3.506675   666A      3.509377  
     667A      3.521651   668A      3.530334   669A      3.547426  
     670A      3.556113   671A      3.567528   672A      3.570057  
     673A      3.587608   674A      3.600232   675A      3.605039  
     676A      3.627740   677A      3.647664   678A      3.660540  
     679A      3.661983   680A      3.672016   681A      3.683316  
     682A      3.686962   683A      3.704981   684A      3.722886  
     685A      3.729026   686A      3.734322   687A      3.743045  
     688A      3.752126   689A      3.756204   690A      3.760404  
     691A      3.774006   692A      3.786369   693A      3.793543  
     694A      3.800771   695A      3.810430   696A      3.812574  
     697A      3.819403   698A      3.825744   699A      3.843612  
     700A      3.849817   701A      3.855655   702A      3.862501  
     703A      3.883012   704A      3.886666   705A      3.892113  
     706A      3.896456   707A      3.910639   708A      3.912793  
     709A      3.919468   710A      3.939762   711A      3.945839  
     712A      3.959164   713A      3.961800   714A      3.967978  
     715A      3.978444   716A      3.996730   717A      4.000926  
     718A      4.005427   719A      4.015065   720A      4.023358  
     721A      4.034945   722A      4.049348   723A      4.055237  
     724A      4.057948   725A      4.066725   726A      4.070733  
     727A      4.078103   728A      4.084474   729A      4.094944  
     730A      4.104276   731A      4.106762   732A      4.118778  
     733A      4.127180   734A      4.131426   735A      4.132914  
     736A      4.140838   737A      4.152552   738A      4.158376  
     739A      4.164298   740A      4.174153   741A      4.183392  
     742A      4.194002   743A      4.205222   744A      4.215738  
     745A      4.223089   746A      4.226852   747A      4.241264  
     748A      4.250019   749A      4.254846   750A      4.264001  
     751A      4.268500   752A      4.277199   753A      4.288821  
     754A      4.291336   755A      4.300456   756A      4.303162  
     757A      4.319292   758A      4.326731   759A      4.336112  
     760A      4.339688   761A      4.342148   762A      4.347348  
     763A      4.367515   764A      4.371584   765A      4.377582  
     766A      4.380079   767A      4.389936   768A      4.401305  
     769A      4.403845   770A      4.416898   771A      4.420333  
     772A      4.428588   773A      4.431170   774A      4.437759  
     775A      4.447912   776A      4.451600   777A      4.456099  
     778A      4.474797   779A      4.478948   780A      4.486643  
     781A      4.493981   782A      4.508564   783A      4.511610  
     784A      4.523201   785A      4.525231   786A      4.545665  
     787A      4.546145   788A      4.558534   789A      4.569765  
     790A      4.583954   791A      4.593292   792A      4.607896  
     793A      4.612859   794A      4.620957   795A      4.633868  
     796A      4.639845   797A      4.660196   798A      4.664157  
     799A      4.675431   800A      4.687072   801A      4.698271  
     802A      4.701921   803A      4.710946   804A      4.713296  
     805A      4.726823   806A      4.729634   807A      4.736337  
     808A      4.752985   809A      4.766809   810A      4.771107  
     811A      4.773572   812A      4.786560   813A      4.795432  
     814A      4.802704   815A      4.821828   816A      4.827100  
     817A      4.832239   818A      4.846189   819A      4.856555  
     820A      4.876321   821A      4.883967   822A      4.895818  
     823A      4.903972   824A      4.919362   825A      4.923002  
     826A      4.929255   827A      4.944672   828A      4.958027  
     829A      4.968362   830A      4.971592   831A      4.992959  
     832A      5.001604   833A      5.003715   834A      5.019068  
     835A      5.025792   836A      5.036512   837A      5.043374  
     838A      5.061556   839A      5.065486   840A      5.077831  
     841A      5.093666   842A      5.104640   843A      5.116692  
     844A      5.131893   845A      5.138965   846A      5.144044  
     847A      5.154671   848A      5.159601   849A      5.166182  
     850A      5.178717   851A      5.188557   852A      5.200152  
     853A      5.213828   854A      5.236502   855A      5.251770  
     856A      5.257368   857A      5.265846   858A      5.277115  
     859A      5.284313   860A      5.302512   861A      5.310805  
     862A      5.319439   863A      5.327263   864A      5.330801  
     865A      5.339884   866A      5.347925   867A      5.352854  
     868A      5.362988   869A      5.376217   870A      5.379079  
     871A      5.393856   872A      5.407219   873A      5.415913  
     874A      5.431334   875A      5.445973   876A      5.449135  
     877A      5.461299   878A      5.466823   879A      5.480260  
     880A      5.486983   881A      5.496344   882A      5.514294  
     883A      5.520922   884A      5.540397   885A      5.545040  
     886A      5.561533   887A      5.583262   888A      5.592656  
     889A      5.596962   890A      5.611290   891A      5.623067  
     892A      5.637313   893A      5.642920   894A      5.649291  
     895A      5.664711   896A      5.673208   897A      5.684143  
     898A      5.691702   899A      5.707830   900A      5.717874  
     901A      5.730077   902A      5.744070   903A      5.767606  
     904A      5.785223   905A      5.807200   906A      5.812891  
     907A      5.827277   908A      5.838197   909A      5.844129  
     910A      5.853937   911A      5.868268   912A      5.875865  
     913A      5.908108   914A      5.931348   915A      5.943387  
     916A      5.957921   917A      5.973944   918A      5.986814  
     919A      6.006226   920A      6.015535   921A      6.017006  
     922A      6.029436   923A      6.055498   924A      6.106951  
     925A      6.118297   926A      6.136811   927A      6.144606  
     928A      6.156818   929A      6.167511   930A      6.181429  
     931A      6.223776   932A      6.230970   933A      6.243082  
     934A      6.248601   935A      6.255333   936A      6.277764  
     937A      6.305540   938A      6.329739   939A      6.343509  
     940A      6.370163   941A      6.385323   942A      6.428211  
     943A      6.472033   944A      6.510949   945A      6.534996  
     946A      6.577904   947A      6.641966   948A      6.671250  
     949A      6.684814   950A      6.708187   951A      6.750964  
     952A      6.760809   953A      6.785905   954A      6.799406  
     955A      6.820520   956A      6.840538   957A      6.872838  
     958A      6.880038   959A      6.899389   960A      6.911584  
     961A      6.946237   962A      6.958255   963A      6.971332  
     964A      6.976940   965A      6.979520   966A      7.000074  
     967A      7.027590   968A      7.054023   969A      7.063031  
     970A      7.075577   971A      7.085240   972A      7.106777  
     973A      7.141871   974A      7.150898   975A      7.179309  
     976A      7.195544   977A      7.208001   978A      7.220697  
     979A      7.262098   980A      7.279882   981A      7.319598  
     982A      7.335219   983A      7.360198   984A      7.369116  
     985A      7.396114   986A      7.409199   987A      7.423049  
     988A      7.459778   989A      7.471580   990A      7.493728  
     991A      7.510600   992A      7.526891   993A      7.550919  
     994A      7.583218   995A      7.585839   996A      7.607890  
     997A      7.635076   998A      7.644711   999A      7.692762  
    1000A      7.718357  1001A      7.750195  1002A      7.801071  
    1003A      7.836845  1004A      7.874709  1005A      7.913393  
    1006A      7.915428  1007A      7.957372  1008A      7.961468  
    1009A      8.016972  1010A      8.049132  1011A      8.059802  
    1012A      8.164778  1013A      8.189953  1014A      8.283088  
    1015A      8.312339  1016A      8.453540  1017A      8.568197  
    1018A      8.620174  1019A      8.711861  1020A     15.953353  
    1021A     16.185745  1022A     16.572157  1023A     16.961268  
    1024A     17.293681  1025A     17.712610  1026A     18.123138  
    1027A     18.815834  1028A     18.872944  1029A     19.150009  
    1030A     19.581389  1031A     20.074915  1032A     20.186512  
    1033A     20.453804  1034A     20.764324  1035A     22.916274  

    Final Occupation by Irrep:
              A 
    DOCC [    60 ]

  @DF-RHF Final Energy:  -811.42778333621254

   => Energetics <=

    Nuclear Repulsion Energy =           1171.2129209071151763
    One-Electron Energy =               -3437.2412953728471621
    Two-Electron Energy =                1454.6005911295192163
    Total Energy =                       -811.4277833362125421

Computation Completed

*** tstop() called on node35.bme.utexas.edu at Fri Nov 13 01:08:26 2020
Module time:
	user time   =    2080.79 seconds =      34.68 minutes
	system time =     512.08 seconds =       8.53 minutes
	total time  =        593 seconds =       9.88 minutes
Total time:
	user time   =    2080.79 seconds =      34.68 minutes
	system time =     512.08 seconds =       8.53 minutes
	total time  =        593 seconds =       9.88 minutes
   => Loading Basis Set <=

    Name: (AUG-CC-PVTZ AUX)
    Role: RIFIT
    Keyword: DF_BASIS_MP2
    atoms 1-4   entry O          line   264 file /home/xy3866/psi4conda/share/psi4/basis/aug-cc-pvtz-ri.gbs 
    atoms 5-7   entry N          line   206 file /home/xy3866/psi4conda/share/psi4/basis/aug-cc-pvtz-ri.gbs 
    atoms 8-16  entry C          line   148 file /home/xy3866/psi4conda/share/psi4/basis/aug-cc-pvtz-ri.gbs 
    atoms 17-29 entry H          line    30 file /home/xy3866/psi4conda/share/psi4/basis/aug-cc-pvtz-ri.gbs 


*** tstart() called on node35.bme.utexas.edu
*** at Fri Nov 13 01:08:26 2020


  //>>>>>>>>>>>>>>>>>>>>>>>>>>>>>>>>>>>//
  //               DFMP2               //
  //<<<<<<<<<<<<<<<<<<<<<<<<<<<<<<<<<<<//

	 --------------------------------------------------------
	                          DF-MP2                         
	      2nd-Order Density-Fitted Moller-Plesset Theory     
	              RMP2 Wavefunction,   8 Threads             
	                                                         
	        Rob Parrish, Justin Turney, Andy Simmonett,      
	           Ed Hohenstein, and C. David Sherrill          
	 --------------------------------------------------------

   => Auxiliary Basis Set <=

  Basis Set: (AUG-CC-PVTZ AUX)
    Blend: AUG-CC-PVTZ-RI
    Number of shells: 630
    Number of basis function: 2294
    Number of Cartesian functions: 2891
    Spherical Harmonics?: true
    Max angular momentum: 4

	 --------------------------------------------------------
	                 NBF =  1035, NAUX =  2294
	 --------------------------------------------------------
	   CLASS    FOCC     OCC    AOCC    AVIR     VIR    FVIR
	   PAIRS       0      60      60     975     975       0
	 --------------------------------------------------------

  DFHelper Memory: AOs need 15.953 GiB; user supplied 22.352 GiB. Using in-core AOs.


         ------------------------------------------------------------
                                     CPHF                           
                                  Rob Parrish                       
         ------------------------------------------------------------

  ==> Geometry <==

    Molecular point group: c1
    Full point group: C1

    Geometry (in Angstrom), charge = 0, multiplicity = 1:

       Center              X                  Y                   Z               Mass       
    ------------   -----------------  -----------------  -----------------  -----------------
         O            1.371958410257    -0.376526549453    -0.933181743701    15.994914619570
         O            3.211944410257     1.904697450547    -0.300850743701    15.994914619570
         O            2.809294410257    -2.745462549453    -0.401538743701    15.994914619570
         O           -1.352298589743     2.377489450547     0.153445256299    15.994914619570
         N           -0.788356589743     0.202902450547    -0.230593743701    14.003074004430
         N           -3.044284589743     0.808723450547     0.238674256299    14.003074004430
         N           -4.663522589743    -0.808950549453     0.411299256299    14.003074004430
         C            2.711482410257     0.879038450547     0.558136256299    12.000000000000
         C            1.246731410257     1.110710450547     0.886514256299    12.000000000000
         C            2.661706410257    -0.388806549453    -0.286807743701    12.000000000000
         C            0.396733610257     0.620547250547    -0.390937343701    12.000000000000
         C            2.811985410257    -1.656531549453     0.521132256299    12.000000000000
         C           -1.117449589743    -1.112334549453    -0.309613743701    12.000000000000
         C           -1.734800589743     1.207376450547     0.080707256299    12.000000000000
         C           -2.407419589743    -1.501076549453    -0.105879743701    12.000000000000
         C           -3.352104589743    -0.469675549453     0.167173256299    12.000000000000
         H            3.344268410257     0.760269450547     1.449515256299     1.007825032230
         H            0.914594410257     0.447313450547     1.692151256299     1.007825032230
         H            0.995216410257     2.137551450547     1.156809256299     1.007825032230
         H            0.537341410257     1.516738450547    -1.126250743701     1.007825032230
         H            3.427379410257    -0.360798549453    -1.067963743701     1.007825032230
         H            1.980636410257    -1.729699549453     1.241885256299     1.007825032230
         H            3.755976410257    -1.606030549453     1.086951256299     1.007825032230
         H            3.113738410257     2.749808450547     0.176645256299     1.007825032230
         H           -0.300852589743    -1.785716549453    -0.545035743701     1.007825032230
         H            2.919917410257    -3.561587549453     0.117874256299     1.007825032230
         H           -2.693580589743    -2.545599549453    -0.154587743701     1.007825032230
         H           -5.018823589743    -1.634257549453    -0.058056743701     1.007825032230
         H           -5.289583589743    -0.010313549453     0.384763256299     1.007825032230

  Nuclear repulsion = 1171.212920907115176
  Reference energy  = -811.427783336212542

  ==> Basis Set <==

  Basis Set: AUG-CC-PVTZ
    Blend: AUG-CC-PVTZ
    Number of shells: 341
    Number of basis function: 1035
    Number of Cartesian functions: 1205
    Spherical Harmonics?: true
    Max angular momentum: 3

  ==> CGRSolver (by Rob Parrish) <==

   Number of roots    =         1
   Preconditioning    =    JACOBI
   Convergence cutoff =     1E-06
   Maximum iterations =       100

  ==> CPHFRHamiltonian (by Rob Parrish) <== 

  ==> MemDFJK: Density-Fitted J/K Matrices <==

    J tasked:                   Yes
    K tasked:                   Yes
    wK tasked:                   No
    OpenMP threads:               8
    Memory [MiB]:             22888
    Algorithm:                 Disk
    Schwarz Cutoff:           1E-12
    Mask sparsity (%):      13.3929
    Fitting Condition:        1E-10

   => Auxiliary Basis Set <=

  Basis Set: (AUG-CC-PVTZ AUX)
    Blend: AUG-CC-PVTZ-JKFIT
    Number of shells: 662
    Number of basis function: 2262
    Number of Cartesian functions: 2811
    Spherical Harmonics?: true
    Max angular momentum: 4

  ==> CPHF Iterations <==

  => Iterations <=

             Iter  Converged  Remaining    Residual
  CGR           1          0          1   1.257E-01
  CGR           2          0          1   4.046E-02
  CGR           3          0          1   2.027E-02
  CGR           4          0          1   6.197E-03
  CGR           5          0          1   2.694E-03
  CGR           6          0          1   1.049E-03
  CGR           7          0          1   3.520E-04
  CGR           8          0          1   1.374E-04
  CGR           9          0          1   4.780E-05
  CGR          10          0          1   1.870E-05
  CGR          11          0          1   7.976E-06
  CGR          12          0          1   2.772E-06
  CGR          13          0          1   1.029E-06
  CGR          14          1          0   3.217E-07

    CGRSolver converged.

	-----------------------------------------------------------
	 ==================> DF-MP2 Energies <==================== 
	-----------------------------------------------------------
	 Reference Energy          =    -811.4277833362125421 [Eh]
	 Singles Energy            =      -0.0000000000000000 [Eh]
	 Same-Spin Energy          =      -0.8324412234415104 [Eh]
	 Opposite-Spin Energy      =      -2.5296824236687030 [Eh]
	 Correlation Energy        =      -3.3621236471102134 [Eh]
	 Total Energy              =    -814.7899069833227941 [Eh]
	-----------------------------------------------------------
	 ================> DF-SCS-MP2 Energies <================== 
	-----------------------------------------------------------
	 SCS Same-Spin Scale       =       0.3333333333333333 [-]
	 SCS Opposite-Spin Scale   =       1.2000000000000000 [-]
	 SCS Same-Spin Energy      =      -0.2774804078138368 [Eh]
	 SCS Opposite-Spin Energy  =      -3.0356189084024434 [Eh]
	 SCS Correlation Energy    =      -3.3130993162162801 [Eh]
	 SCS Total Energy          =    -814.7408826524288088 [Eh]
	-----------------------------------------------------------



Properties will be evaluated at  -0.000000,  -0.000000,   0.000000 [a0]

Properties computed using the MP2 density matrix

  Nuclear Dipole Moment: [e a0]
     X:     7.2593      Y:    -5.2658      Z:     4.0741

  Electronic Dipole Moment: [e a0]
     X:    -7.3014      Y:     3.3826      Z:    -3.0734

  Dipole Moment: [e a0]
     X:    -0.0421      Y:    -1.8831      Z:     1.0007     Total:     2.1329

  Dipole Moment: [D]
     X:    -0.1071      Y:    -4.7865      Z:     2.5435     Total:     5.4214


*** tstop() called on node35.bme.utexas.edu at Fri Nov 13 01:38:27 2020
Module time:
	user time   =    9097.23 seconds =     151.62 minutes
	system time =    1746.01 seconds =      29.10 minutes
	total time  =       1801 seconds =      30.02 minutes
Total time:
	user time   =   11178.59 seconds =     186.31 minutes
	system time =    2258.10 seconds =      37.63 minutes
	total time  =       2394 seconds =      39.90 minutes

    Psi4 stopped on: Friday, 13 November 2020 01:38AM
    Psi4 wall time for execution: 0:39:56.12

*** Psi4 exiting successfully. Buy a developer a beer!
