21650900                                                                
Freq      RMP2-FC                                                     6-31G(d)            
Number of atoms                            I               17
Info1-9                                    I   N=           9
          29          27        1002           0           0         100
           6           2           1
Charge                                     I                0
Multiplicity                               I                1
Number of electrons                        I               60
Number of alpha electrons                  I               30
Number of beta electrons                   I               30
Number of basis functions                  I              138
Number of independent functions            I              138
Number of point charges in /Mol/           I                0
Number of translation vectors              I                0
Atomic numbers                             I   N=          17
           8           7           6           6           6           6
           6           6           1           1           1           1
           1           1           1           1           1
Nuclear charges                            R   N=          17
  8.00000000E+00  7.00000000E+00  6.00000000E+00  6.00000000E+00  6.00000000E+00
  6.00000000E+00  6.00000000E+00  6.00000000E+00  1.00000000E+00  1.00000000E+00
  1.00000000E+00  1.00000000E+00  1.00000000E+00  1.00000000E+00  1.00000000E+00
  1.00000000E+00  1.00000000E+00
Current cartesian coordinates              R   N=          51
  1.82106866E+00 -1.89004409E+00 -8.12952608E-01  1.45128033E+00  2.09803343E+00
  5.76402324E-01 -2.50267766E+00 -2.68966197E-01 -7.03275040E-01  2.60973463E-01
  1.12570291E-01 -2.91349429E-01 -3.90686253E+00  2.23585060E+00 -4.33708622E-01
 -3.52401439E+00 -2.27708500E+00  1.11893079E+00  4.19279146E+00 -1.04129790E+00
 -2.09815732E-01  3.97618287E+00  1.37847356E+00  6.32766740E-01 -2.74349105E+00
 -9.74071775E-01 -2.64092960E+00 -3.67742059E+00  2.98580153E+00  1.47628232E+00
 -5.92182984E+00  1.95277861E+00 -7.99864605E-01 -3.18171090E+00  3.64478115E+00
 -1.75637918E+00 -3.30282018E+00 -1.63955002E+00  3.07389250E+00 -2.51735266E+00
 -4.06685873E+00  8.96128022E-01 -5.53453458E+00 -2.60762085E+00  7.65591542E-01
  5.73105046E+00 -2.34798173E+00 -4.96654020E-01  5.44223845E+00  2.64956838E+00
  1.26944538E+00
Force Field                                I                0
Int Atom Types                             I   N=          17
           0           0           0           0           0           0
           0           0           0           0           0           0
           0           0           0           0           0
MM charges                                 R   N=          17
  0.00000000E+00  0.00000000E+00  0.00000000E+00  0.00000000E+00  0.00000000E+00
  0.00000000E+00  0.00000000E+00  0.00000000E+00  0.00000000E+00  0.00000000E+00
  0.00000000E+00  0.00000000E+00  0.00000000E+00  0.00000000E+00  0.00000000E+00
  0.00000000E+00  0.00000000E+00
Integer atomic weights                     I   N=          17
          16          14          12          12          12          12
          12          12           1           1           1           1
           1           1           1           1           1
Real atomic weights                        R   N=          17
  1.59949146E+01  1.40030740E+01  1.20000000E+01  1.20000000E+01  1.20000000E+01
  1.20000000E+01  1.20000000E+01  1.20000000E+01  1.00782504E+00  1.00782504E+00
  1.00782504E+00  1.00782504E+00  1.00782504E+00  1.00782504E+00  1.00782504E+00
  1.00782504E+00  1.00782504E+00
Atom fragment info                         I   N=          17
           0           0           0           0           0           0
           0           0           0           0           0           0
           0           0           0           0           0
Atom residue num                           I   N=          17
           0           0           0           0           0           0
           0           0           0           0           0           0
           0           0           0           0           0
Nuclear spins                              I   N=          17
           0           2           0           0           0           0
           0           0           1           1           1           1
           1           1           1           1           1
Nuclear ZEff                               R   N=          17
 -5.60000000E+00 -4.55000000E+00 -3.60000000E+00 -3.60000000E+00 -3.60000000E+00
 -3.60000000E+00 -3.60000000E+00 -3.60000000E+00 -1.00000000E+00 -1.00000000E+00
 -1.00000000E+00 -1.00000000E+00 -1.00000000E+00 -1.00000000E+00 -1.00000000E+00
 -1.00000000E+00 -1.00000000E+00
Nuclear QMom                               R   N=          17
  0.00000000E+00  2.04400000E+00  0.00000000E+00  0.00000000E+00  0.00000000E+00
  0.00000000E+00  0.00000000E+00  0.00000000E+00  0.00000000E+00  0.00000000E+00
  0.00000000E+00  0.00000000E+00  0.00000000E+00  0.00000000E+00  0.00000000E+00
  0.00000000E+00  0.00000000E+00
Nuclear GFac                               R   N=          17
  0.00000000E+00  4.03761000E-01  0.00000000E+00  0.00000000E+00  0.00000000E+00
  0.00000000E+00  0.00000000E+00  0.00000000E+00  2.79284600E+00  2.79284600E+00
  2.79284600E+00  2.79284600E+00  2.79284600E+00  2.79284600E+00  2.79284600E+00
  2.79284600E+00  2.79284600E+00
MicOpt                                     I   N=          17
          -1          -1          -1          -1          -1          -1
          -1          -1          -1          -1          -1          -1
          -1          -1          -1          -1          -1
Number of contracted shells                I               50
Number of primitive shells                 I              124
Pure/Cartesian d shells                    I                1
Pure/Cartesian f shells                    I                0
Highest angular momentum                   I                2
Largest degree of contraction              I                6
Shell types                                I   N=          50
           0          -1          -1           2           0          -1
          -1           2           0          -1          -1           2
           0          -1          -1           2           0          -1
          -1           2           0          -1          -1           2
           0          -1          -1           2           0          -1
          -1           2           0           0           0           0
           0           0           0           0           0           0
           0           0           0           0           0           0
           0           0
Number of primitives per shell             I   N=          50
           6           3           1           1           6           3
           1           1           6           3           1           1
           6           3           1           1           6           3
           1           1           6           3           1           1
           6           3           1           1           6           3
           1           1           3           1           3           1
           3           1           3           1           3           1
           3           1           3           1           3           1
           3           1
Shell to atom map                          I   N=          50
           1           1           1           1           2           2
           2           2           3           3           3           3
           4           4           4           4           5           5
           5           5           6           6           6           6
           7           7           7           7           8           8
           8           8           9           9          10          10
          11          11          12          12          13          13
          14          14          15          15          16          16
          17          17
Primitive exponents                        R   N=         124
  5.48467166E+03  8.25234946E+02  1.88046958E+02  5.29645000E+01  1.68975704E+01
  5.79963534E+00  1.55396162E+01  3.59993359E+00  1.01376175E+00  2.70005823E-01
  8.00000000E-01  4.17351146E+03  6.27457911E+02  1.42902093E+02  4.02343293E+01
  1.28202129E+01  4.39043701E+00  1.16263619E+01  2.71627981E+00  7.72218397E-01
  2.12031498E-01  8.00000000E-01  3.04752488E+03  4.57369518E+02  1.03948685E+02
  2.92101553E+01  9.28666296E+00  3.16392696E+00  7.86827235E+00  1.88128854E+00
  5.44249258E-01  1.68714478E-01  8.00000000E-01  3.04752488E+03  4.57369518E+02
  1.03948685E+02  2.92101553E+01  9.28666296E+00  3.16392696E+00  7.86827235E+00
  1.88128854E+00  5.44249258E-01  1.68714478E-01  8.00000000E-01  3.04752488E+03
  4.57369518E+02  1.03948685E+02  2.92101553E+01  9.28666296E+00  3.16392696E+00
  7.86827235E+00  1.88128854E+00  5.44249258E-01  1.68714478E-01  8.00000000E-01
  3.04752488E+03  4.57369518E+02  1.03948685E+02  2.92101553E+01  9.28666296E+00
  3.16392696E+00  7.86827235E+00  1.88128854E+00  5.44249258E-01  1.68714478E-01
  8.00000000E-01  3.04752488E+03  4.57369518E+02  1.03948685E+02  2.92101553E+01
  9.28666296E+00  3.16392696E+00  7.86827235E+00  1.88128854E+00  5.44249258E-01
  1.68714478E-01  8.00000000E-01  3.04752488E+03  4.57369518E+02  1.03948685E+02
  2.92101553E+01  9.28666296E+00  3.16392696E+00  7.86827235E+00  1.88128854E+00
  5.44249258E-01  1.68714478E-01  8.00000000E-01  1.87311370E+01  2.82539436E+00
  6.40121692E-01  1.61277759E-01  1.87311370E+01  2.82539436E+00  6.40121692E-01
  1.61277759E-01  1.87311370E+01  2.82539436E+00  6.40121692E-01  1.61277759E-01
  1.87311370E+01  2.82539436E+00  6.40121692E-01  1.61277759E-01  1.87311370E+01
  2.82539436E+00  6.40121692E-01  1.61277759E-01  1.87311370E+01  2.82539436E+00
  6.40121692E-01  1.61277759E-01  1.87311370E+01  2.82539436E+00  6.40121692E-01
  1.61277759E-01  1.87311370E+01  2.82539436E+00  6.40121692E-01  1.61277759E-01
  1.87311370E+01  2.82539436E+00  6.40121692E-01  1.61277759E-01
Contraction coefficients                   R   N=         124
  1.83107443E-03  1.39501722E-02  6.84450781E-02  2.32714336E-01  4.70192898E-01
  3.58520853E-01 -1.10777550E-01 -1.48026263E-01  1.13076702E+00  1.00000000E+00
  1.00000000E+00  1.83477216E-03  1.39946270E-02  6.85865518E-02  2.32240873E-01
  4.69069948E-01  3.60455199E-01 -1.14961182E-01 -1.69117479E-01  1.14585195E+00
  1.00000000E+00  1.00000000E+00  1.83473713E-03  1.40373228E-02  6.88426223E-02
  2.32184443E-01  4.67941348E-01  3.62311985E-01 -1.19332420E-01 -1.60854152E-01
  1.14345644E+00  1.00000000E+00  1.00000000E+00  1.83473713E-03  1.40373228E-02
  6.88426223E-02  2.32184443E-01  4.67941348E-01  3.62311985E-01 -1.19332420E-01
 -1.60854152E-01  1.14345644E+00  1.00000000E+00  1.00000000E+00  1.83473713E-03
  1.40373228E-02  6.88426223E-02  2.32184443E-01  4.67941348E-01  3.62311985E-01
 -1.19332420E-01 -1.60854152E-01  1.14345644E+00  1.00000000E+00  1.00000000E+00
  1.83473713E-03  1.40373228E-02  6.88426223E-02  2.32184443E-01  4.67941348E-01
  3.62311985E-01 -1.19332420E-01 -1.60854152E-01  1.14345644E+00  1.00000000E+00
  1.00000000E+00  1.83473713E-03  1.40373228E-02  6.88426223E-02  2.32184443E-01
  4.67941348E-01  3.62311985E-01 -1.19332420E-01 -1.60854152E-01  1.14345644E+00
  1.00000000E+00  1.00000000E+00  1.83473713E-03  1.40373228E-02  6.88426223E-02
  2.32184443E-01  4.67941348E-01  3.62311985E-01 -1.19332420E-01 -1.60854152E-01
  1.14345644E+00  1.00000000E+00  1.00000000E+00  3.34946043E-02  2.34726953E-01
  8.13757326E-01  1.00000000E+00  3.34946043E-02  2.34726953E-01  8.13757326E-01
  1.00000000E+00  3.34946043E-02  2.34726953E-01  8.13757326E-01  1.00000000E+00
  3.34946043E-02  2.34726953E-01  8.13757326E-01  1.00000000E+00  3.34946043E-02
  2.34726953E-01  8.13757326E-01  1.00000000E+00  3.34946043E-02  2.34726953E-01
  8.13757326E-01  1.00000000E+00  3.34946043E-02  2.34726953E-01  8.13757326E-01
  1.00000000E+00  3.34946043E-02  2.34726953E-01  8.13757326E-01  1.00000000E+00
  3.34946043E-02  2.34726953E-01  8.13757326E-01  1.00000000E+00
P(S=P) Contraction coefficients            R   N=         124
  0.00000000E+00  0.00000000E+00  0.00000000E+00  0.00000000E+00  0.00000000E+00
  0.00000000E+00  7.08742682E-02  3.39752839E-01  7.27158577E-01  1.00000000E+00
  0.00000000E+00  0.00000000E+00  0.00000000E+00  0.00000000E+00  0.00000000E+00
  0.00000000E+00  0.00000000E+00  6.75797439E-02  3.23907296E-01  7.40895140E-01
  1.00000000E+00  0.00000000E+00  0.00000000E+00  0.00000000E+00  0.00000000E+00
  0.00000000E+00  0.00000000E+00  0.00000000E+00  6.89990666E-02  3.16423961E-01
  7.44308291E-01  1.00000000E+00  0.00000000E+00  0.00000000E+00  0.00000000E+00
  0.00000000E+00  0.00000000E+00  0.00000000E+00  0.00000000E+00  6.89990666E-02
  3.16423961E-01  7.44308291E-01  1.00000000E+00  0.00000000E+00  0.00000000E+00
  0.00000000E+00  0.00000000E+00  0.00000000E+00  0.00000000E+00  0.00000000E+00
  6.89990666E-02  3.16423961E-01  7.44308291E-01  1.00000000E+00  0.00000000E+00
  0.00000000E+00  0.00000000E+00  0.00000000E+00  0.00000000E+00  0.00000000E+00
  0.00000000E+00  6.89990666E-02  3.16423961E-01  7.44308291E-01  1.00000000E+00
  0.00000000E+00  0.00000000E+00  0.00000000E+00  0.00000000E+00  0.00000000E+00
  0.00000000E+00  0.00000000E+00  6.89990666E-02  3.16423961E-01  7.44308291E-01
  1.00000000E+00  0.00000000E+00  0.00000000E+00  0.00000000E+00  0.00000000E+00
  0.00000000E+00  0.00000000E+00  0.00000000E+00  6.89990666E-02  3.16423961E-01
  7.44308291E-01  1.00000000E+00  0.00000000E+00  0.00000000E+00  0.00000000E+00
  0.00000000E+00  0.00000000E+00  0.00000000E+00  0.00000000E+00  0.00000000E+00
  0.00000000E+00  0.00000000E+00  0.00000000E+00  0.00000000E+00  0.00000000E+00
  0.00000000E+00  0.00000000E+00  0.00000000E+00  0.00000000E+00  0.00000000E+00
  0.00000000E+00  0.00000000E+00  0.00000000E+00  0.00000000E+00  0.00000000E+00
  0.00000000E+00  0.00000000E+00  0.00000000E+00  0.00000000E+00  0.00000000E+00
  0.00000000E+00  0.00000000E+00  0.00000000E+00  0.00000000E+00  0.00000000E+00
  0.00000000E+00  0.00000000E+00  0.00000000E+00  0.00000000E+00
Coordinates of each shell                  R   N=         150
  1.82106866E+00 -1.89004409E+00 -8.12952608E-01  1.82106866E+00 -1.89004409E+00
 -8.12952608E-01  1.82106866E+00 -1.89004409E+00 -8.12952608E-01  1.82106866E+00
 -1.89004409E+00 -8.12952608E-01  1.45128033E+00  2.09803343E+00  5.76402324E-01
  1.45128033E+00  2.09803343E+00  5.76402324E-01  1.45128033E+00  2.09803343E+00
  5.76402324E-01  1.45128033E+00  2.09803343E+00  5.76402324E-01 -2.50267766E+00
 -2.68966197E-01 -7.03275040E-01 -2.50267766E+00 -2.68966197E-01 -7.03275040E-01
 -2.50267766E+00 -2.68966197E-01 -7.03275040E-01 -2.50267766E+00 -2.68966197E-01
 -7.03275040E-01  2.60973463E-01  1.12570291E-01 -2.91349429E-01  2.60973463E-01
  1.12570291E-01 -2.91349429E-01  2.60973463E-01  1.12570291E-01 -2.91349429E-01
  2.60973463E-01  1.12570291E-01 -2.91349429E-01 -3.90686253E+00  2.23585060E+00
 -4.33708622E-01 -3.90686253E+00  2.23585060E+00 -4.33708622E-01 -3.90686253E+00
  2.23585060E+00 -4.33708622E-01 -3.90686253E+00  2.23585060E+00 -4.33708622E-01
 -3.52401439E+00 -2.27708500E+00  1.11893079E+00 -3.52401439E+00 -2.27708500E+00
  1.11893079E+00 -3.52401439E+00 -2.27708500E+00  1.11893079E+00 -3.52401439E+00
 -2.27708500E+00  1.11893079E+00  4.19279146E+00 -1.04129790E+00 -2.09815732E-01
  4.19279146E+00 -1.04129790E+00 -2.09815732E-01  4.19279146E+00 -1.04129790E+00
 -2.09815732E-01  4.19279146E+00 -1.04129790E+00 -2.09815732E-01  3.97618287E+00
  1.37847356E+00  6.32766740E-01  3.97618287E+00  1.37847356E+00  6.32766740E-01
  3.97618287E+00  1.37847356E+00  6.32766740E-01  3.97618287E+00  1.37847356E+00
  6.32766740E-01 -2.74349105E+00 -9.74071775E-01 -2.64092960E+00 -2.74349105E+00
 -9.74071775E-01 -2.64092960E+00 -3.67742059E+00  2.98580153E+00  1.47628232E+00
 -3.67742059E+00  2.98580153E+00  1.47628232E+00 -5.92182984E+00  1.95277861E+00
 -7.99864605E-01 -5.92182984E+00  1.95277861E+00 -7.99864605E-01 -3.18171090E+00
  3.64478115E+00 -1.75637918E+00 -3.18171090E+00  3.64478115E+00 -1.75637918E+00
 -3.30282018E+00 -1.63955002E+00  3.07389250E+00 -3.30282018E+00 -1.63955002E+00
  3.07389250E+00 -2.51735266E+00 -4.06685873E+00  8.96128022E-01 -2.51735266E+00
 -4.06685873E+00  8.96128022E-01 -5.53453458E+00 -2.60762085E+00  7.65591542E-01
 -5.53453458E+00 -2.60762085E+00  7.65591542E-01  5.73105046E+00 -2.34798173E+00
 -4.96654020E-01  5.73105046E+00 -2.34798173E+00 -4.96654020E-01  5.44223845E+00
  2.64956838E+00  1.26944538E+00  5.44223845E+00  2.64956838E+00  1.26944538E+00
Constraint Structure                       R   N=          51
  1.82106866E+00 -1.89004409E+00 -8.12952608E-01  1.45128033E+00  2.09803343E+00
  5.76402324E-01 -2.50267766E+00 -2.68966197E-01 -7.03275040E-01  2.60973463E-01
  1.12570291E-01 -2.91349429E-01 -3.90686253E+00  2.23585060E+00 -4.33708622E-01
 -3.52401439E+00 -2.27708500E+00  1.11893079E+00  4.19279146E+00 -1.04129790E+00
 -2.09815732E-01  3.97618287E+00  1.37847356E+00  6.32766740E-01 -2.74349105E+00
 -9.74071775E-01 -2.64092960E+00 -3.67742059E+00  2.98580153E+00  1.47628232E+00
 -5.92182984E+00  1.95277861E+00 -7.99864605E-01 -3.18171090E+00  3.64478115E+00
 -1.75637918E+00 -3.30282018E+00 -1.63955002E+00  3.07389250E+00 -2.51735266E+00
 -4.06685873E+00  8.96128022E-01 -5.53453458E+00 -2.60762085E+00  7.65591542E-01
  5.73105046E+00 -2.34798173E+00 -4.96654020E-01  5.44223845E+00  2.64956838E+00
  1.26944538E+00
Num ILSW                                   I              100
ILSW                                       I   N=         100
           0           1           0           0           2           0
           0           0           0           0           0          -1
           0           0           0           0           0           0
           0           0           0           0           1           0
           1           0           0           0           0           0
           0           0      100000           0          -1           0
           0           0           0           0           0           0
           0           0           0           1           1           0
           0           0           1           0           0           0
           0           0           4          40           0           0
           0           0           0           0           0           0
           0           0           0           0           0           0
           0           0           0           0           0           0
           0           0           0           0           0           0
           0           0           0           0           0           0
           0           0           0           0           0           0
           0           0           0           0
Num RLSW                                   I               40
RLSW                                       R   N=          40
  1.00000000E+00  1.00000000E+00  1.00000000E+00  1.00000000E+00  1.00000000E+00
  0.00000000E+00  0.00000000E+00  1.00000000E+00  0.00000000E+00  0.00000000E+00
  0.00000000E+00  0.00000000E+00  1.00000000E+00  0.00000000E+00  0.00000000E+00
  0.00000000E+00  0.00000000E+00  1.00000000E+00  0.00000000E+00  0.00000000E+00
  0.00000000E+00  0.00000000E+00  1.00000000E+00  0.00000000E+00  0.00000000E+00
  0.00000000E+00  0.00000000E+00  1.00000000E+00  0.00000000E+00  0.00000000E+00
  0.00000000E+00  0.00000000E+00  0.00000000E+00  0.00000000E+00  0.00000000E+00
  0.00000000E+00  0.00000000E+00  0.00000000E+00  1.00000000E+00  1.00000000E+00
MxBond                                     I                4
NBond                                      I   N=          17
           2           2           4           3           4           4
           3           3           1           1           1           1
           1           1           1           1           1
IBond                                      I   N=          68
           4           7           0           0           4           8
           0           0           4           5           6           9
           1           2           3           0           3          10
          11          12           3          13          14          15
           1           8          16           0           2           7
          17           0           3           0           0           0
           5           0           0           0           5           0
           0           0           5           0           0           0
           6           0           0           0           6           0
           0           0           6           0           0           0
           7           0           0           0           8           0
           0           0
RBond                                      R   N=          68
  1.50000000E+00  1.50000000E+00  0.00000000E+00  0.00000000E+00  1.50000000E+00
  1.00000000E+00  0.00000000E+00  0.00000000E+00  1.00000000E+00  1.00000000E+00
  1.00000000E+00  1.00000000E+00  1.50000000E+00  1.50000000E+00  1.00000000E+00
  0.00000000E+00  1.00000000E+00  1.00000000E+00  1.00000000E+00  1.00000000E+00
  1.00000000E+00  1.00000000E+00  1.00000000E+00  1.00000000E+00  1.50000000E+00
  1.50000000E+00  1.00000000E+00  0.00000000E+00  1.00000000E+00  1.50000000E+00
  1.00000000E+00  0.00000000E+00  1.00000000E+00  0.00000000E+00  0.00000000E+00
  0.00000000E+00  1.00000000E+00  0.00000000E+00  0.00000000E+00  0.00000000E+00
  1.00000000E+00  0.00000000E+00  0.00000000E+00  0.00000000E+00  1.00000000E+00
  0.00000000E+00  0.00000000E+00  0.00000000E+00  1.00000000E+00  0.00000000E+00
  0.00000000E+00  0.00000000E+00  1.00000000E+00  0.00000000E+00  0.00000000E+00
  0.00000000E+00  1.00000000E+00  0.00000000E+00  0.00000000E+00  0.00000000E+00
  1.00000000E+00  0.00000000E+00  0.00000000E+00  0.00000000E+00  1.00000000E+00
  0.00000000E+00  0.00000000E+00  0.00000000E+00
Virial Ratio                               R      2.002318821754851E+00
SCF Energy                                 R     -3.617442148713330E+02
MP2 Energy                                 R     -3.628611565268599E+02
Total Energy                               R     -3.628611565268599E+02
Post-SCF wavefunction norm                 R      1.656777081638166E+00
RMS Force                                  R      1.872610721806358E-07
RMS Density                                R      2.338342804242341E-09
External E-field                           R   N=          35
  0.00000000E+00  0.00000000E+00  0.00000000E+00  0.00000000E+00  0.00000000E+00
  0.00000000E+00  0.00000000E+00  0.00000000E+00  0.00000000E+00  0.00000000E+00
  0.00000000E+00  0.00000000E+00  0.00000000E+00  0.00000000E+00  0.00000000E+00
  0.00000000E+00  0.00000000E+00  0.00000000E+00  0.00000000E+00  0.00000000E+00
  0.00000000E+00  0.00000000E+00  0.00000000E+00  0.00000000E+00  0.00000000E+00
  0.00000000E+00  0.00000000E+00  0.00000000E+00  0.00000000E+00  0.00000000E+00
  0.00000000E+00  0.00000000E+00  0.00000000E+00  0.00000000E+00  0.00000000E+00
IOpCl                                      I                0
IROHF                                      I                0
Alpha Orbital Energies                     R   N=         138
 -2.06387058E+01 -1.55614238E+01 -1.13328196E+01 -1.12910860E+01 -1.12591994E+01
 -1.12497091E+01 -1.12245731E+01 -1.12166183E+01 -1.47359191E+00 -1.22227921E+00
 -1.10175161E+00 -1.00437412E+00 -9.37229245E-01 -8.56884501E-01 -8.23415309E-01
 -7.68112532E-01 -7.11149181E-01 -6.57641285E-01 -6.33444639E-01 -6.05456632E-01
 -5.96763122E-01 -5.67711554E-01 -5.55875650E-01 -5.40232167E-01 -5.04021680E-01
 -4.88985768E-01 -4.86878100E-01 -4.49754928E-01 -4.41599795E-01 -3.27517077E-01
  1.58347571E-01  2.26089428E-01  2.42292433E-01  2.78926328E-01  2.86552081E-01
  2.92136857E-01  3.00952576E-01  3.07035824E-01  3.19913116E-01  3.34901527E-01
  3.46915464E-01  3.51971941E-01  3.93170460E-01  4.10755458E-01  4.35617194E-01
  4.69976591E-01  5.02625006E-01  5.79854010E-01  6.65862981E-01  6.83940574E-01
  7.12291276E-01  7.29299818E-01  7.49674781E-01  7.67641436E-01  7.89272845E-01
  8.33471886E-01  8.39901926E-01  8.51241101E-01  8.62550344E-01  8.85922048E-01
  9.10435649E-01  9.56233640E-01  9.60810808E-01  9.88585894E-01  1.00857860E+00
  1.03467280E+00  1.05999017E+00  1.08099991E+00  1.10058465E+00  1.11476570E+00
  1.12858627E+00  1.15294615E+00  1.16310453E+00  1.18781262E+00  1.19286044E+00
  1.20809120E+00  1.22337981E+00  1.23334658E+00  1.25056594E+00  1.25920921E+00
  1.28657620E+00  1.31124912E+00  1.37708947E+00  1.48120471E+00  1.51787439E+00
  1.60741796E+00  1.63381672E+00  1.64855911E+00  1.65456458E+00  1.73601637E+00
  1.77529623E+00  1.78584657E+00  1.81454064E+00  1.85344248E+00  1.87683788E+00
  2.02490753E+00  2.04340469E+00  2.06007489E+00  2.14615587E+00  2.16480760E+00
  2.20628395E+00  2.23286680E+00  2.28522573E+00  2.30967368E+00  2.31967077E+00
  2.35416474E+00  2.37678152E+00  2.41668269E+00  2.51688051E+00  2.52913337E+00
  2.53652103E+00  2.58197336E+00  2.59392750E+00  2.61278962E+00  2.65275894E+00
  2.68179376E+00  2.70221627E+00  2.75251576E+00  2.82510349E+00  2.85672243E+00
  2.92378372E+00  2.96152929E+00  3.00101913E+00  3.04684833E+00  3.07794602E+00
  3.14489936E+00  3.22432797E+00  3.32075184E+00  3.44425998E+00  3.54274570E+00
  4.42362035E+00  4.55993465E+00  4.58916100E+00  4.61178172E+00  4.73998364E+00
  4.74991285E+00  4.84224832E+00  5.07209033E+00
Alpha MO coefficients                      R   N=       19044
  9.94671401E-01  2.12119685E-02  3.45473283E-04  1.15227342E-03  4.54419821E-04
  3.64686551E-03 -2.09482006E-04 -7.20263754E-04 -2.75266723E-04 -4.08877808E-03
 -4.00100314E-03 -3.92239823E-03  2.49980870E-05 -1.86856615E-05 -3.62005941E-05
 -9.69622162E-06 -2.88463539E-05 -4.73817230E-06  6.00708235E-05  2.34351373E-05
  1.17518553E-04  7.98982184E-05 -3.64878056E-05 -1.45415913E-05  4.39996390E-06
 -6.70212129E-05 -4.23028719E-05 -1.03703375E-05  3.46922463E-06 -1.14154804E-05
 -1.47909734E-06  2.54197934E-05  7.80616594E-06 -2.43488700E-05 -2.88555185E-06
  2.44872868E-04 -1.37232235E-04  2.62553656E-04  8.36065399E-05 -5.35682140E-05
  6.83569004E-06 -1.31784000E-05  2.23022791E-05 -8.24544256E-07  1.06626637E-06
 -2.15376661E-06  3.42763669E-04  2.19947485E-04 -2.82680362E-04 -7.85901596E-05
 -1.42665860E-05  1.34073615E-04  9.07720153E-05  6.83061091E-05 -1.62894848E-05
 -1.52235840E-05 -4.07323045E-05  1.77081518E-05  9.13040495E-06  1.49001788E-05
  2.18141283E-06  2.15307122E-05 -1.24454399E-05  1.10135421E-05 -2.69617319E-06
 -2.68925071E-04 -4.25793512E-05  1.01267699E-04  1.63428918E-05 -7.18060998E-06
 -2.69684443E-06  1.57770213E-06  7.27726543E-06 -1.97730847E-06  1.24937700E-06
 -1.20381188E-06 -1.25301714E-05  2.77674170E-05  1.69595541E-05  7.75143480E-07
  1.43733586E-04 -3.72264789E-05 -1.57753409E-04 -5.57463538E-05  1.56392263E-05
 -1.58040404E-05  1.89374666E-06  6.23772102E-08 -3.18726881E-06  6.97287167E-06
 -5.85457493E-06  3.31865111E-04 -3.43220016E-04 -1.33409220E-04 -9.06541560E-05
  4.43425009E-04 -1.60709202E-04  6.82693764E-04  2.20172011E-04 -4.17047750E-05
 -2.25362145E-06 -5.06945844E-05  1.11976962E-06  4.59844321E-06  2.32486378E-05
  7.48471188E-06  3.32577237E-05  2.26066774E-05  5.62647328E-05  2.32329229E-05
 -8.43025015E-04  1.12043859E-04  3.59242329E-04  1.46496344E-04  5.37447238E-06
 -4.75572904E-05 -7.32199028E-06 -1.85513574E-06 -1.61357031E-07 -1.93047064E-05
  3.85539120E-05 -9.82607331E-06  5.65000249E-06 -3.25061696E-09  8.46172130E-06
  1.87371047E-05  6.82075152E-06  7.52308748E-06  4.70118074E-06  4.19696121E-05
  4.15000348E-05 -2.15492418E-04 -1.76232335E-05 -6.27110614E-05  3.55732388E-05
  1.93748392E-04  1.00586244E-05 -6.70117585E-05 -4.97314194E-05 -3.10368230E-04
  3.85325573E-05 -8.13979434E-05 -2.32745430E-05  1.39186045E-03 -1.16451786E-04
  2.32640651E-04  6.33748415E-05 -8.93253807E-05 -1.54179960E-04 -2.28852782E-04
 -5.72503694E-06  2.16038852E-05  3.57152809E-05  9.95247255E-01  2.49494095E-02
  6.84001656E-04 -1.89199204E-03 -5.98719183E-04 -6.87198353E-03 -7.87914589E-04
  2.72148747E-03  8.79045419E-04 -2.81091847E-03 -2.67909184E-03 -3.01161759E-03
  7.41165953E-05  6.45969083E-05  1.71805967E-04 -6.39105919E-06 -7.21654376E-05
  5.97700717E-06  2.39498247E-05  1.45697131E-05  9.13630739E-04  6.48216754E-04
 -7.12161385E-04 -2.11033280E-04  8.11975339E-05 -2.98594176E-05 -7.31577989E-06
 -7.64998012E-05 -2.17472196E-05 -1.57590368E-05  3.62828447E-05  4.19629162E-04
 -3.08416082E-05  7.83692519E-06 -4.42857416E-06  2.50900802E-03  1.70574801E-03
  2.10218001E-03  9.79929625E-04 -2.81354937E-04 -4.33732606E-04 -1.10857346E-04
 -2.24336830E-04 -1.15379335E-04 -1.94067613E-04  5.74299517E-06  3.04577531E-05
  6.25839427E-05 -5.19664199E-06  8.47226127E-06  3.77962578E-04 -3.16065684E-04
 -2.26142214E-04 -4.13210369E-05 -2.35579331E-06  1.31741978E-05  3.48168199E-07
  6.65569681E-06  4.63435015E-06 -8.67679763E-07  6.23264771E-06  1.47935875E-05
  2.50953353E-07 -3.03565993E-06 -8.47225061E-07 -2.64175639E-04 -8.53489049E-05
  8.71752583E-05  1.96139620E-04  1.93527999E-05  2.84113492E-05 -5.44093371E-06
 -3.49939802E-06  1.73156197E-05 -2.54876105E-06  2.41785317E-05  3.94542123E-05
 -3.16525125E-06 -6.03479114E-05 -2.16417545E-05 -2.33637888E-03  1.17496661E-03
 -1.19701338E-03 -2.84936150E-04  5.00480307E-05  1.67533590E-05  3.12800881E-05
 -1.79780957E-05 -5.13519432E-06 -9.87103025E-06  4.42283598E-06  3.45116687E-04
 -1.67978465E-04  5.98408380E-05  1.56874228E-07  3.81563312E-03 -1.66906455E-03