
    -----------------------------------------------------------------------
          Psi4: An Open-Source Ab Initio Electronic Structure Package
                               Psi4 1.4a3.dev225 

                         Git: Rev {master} 7105e37 


    D. G. A. Smith, L. A. Burns, A. C. Simmonett, R. M. Parrish,
    M. C. Schieber, R. Galvelis, P. Kraus, H. Kruse, R. Di Remigio,
    A. Alenaizan, A. M. James, S. Lehtola, J. P. Misiewicz, M. Scheurer,
    R. A. Shaw, J. B. Schriber, Y. Xie, Z. L. Glick, D. A. Sirianni,
    J. S. O'Brien, J. M. Waldrop, A. Kumar, E. G. Hohenstein,
    B. P. Pritchard, B. R. Brooks, H. F. Schaefer III, A. Yu. Sokolov,
    K. Patkowski, A. E. DePrince III, U. Bozkaya, R. A. King,
    F. A. Evangelista, J. M. Turney, T. D. Crawford, C. D. Sherrill,
    J. Chem. Phys. 152(18) 184108 (2020). https://doi.org/10.1063/5.0006002

                            Additional Code Authors
    E. T. Seidl, C. L. Janssen, E. F. Valeev, M. L. Leininger,
    J. F. Gonthier, R. M. Richard, H. R. McAlexander, M. Saitow, X. Wang,
    P. Verma, and M. H. Lechner

             Previous Authors, Complete List of Code Contributors,
                       and Citations for Specific Modules
    https://github.com/psi4/psi4/blob/master/codemeta.json
    https://github.com/psi4/psi4/graphs/contributors
    http://psicode.org/psi4manual/master/introduction.html#citing-psifour

    -----------------------------------------------------------------------


    Psi4 started on: Saturday, 06 March 2021 04:43PM

    Process ID: 200449
    Host:       c459-032.stampede2.tacc.utexas.edu
    PSIDATADIR: /home1/07844/xy3866/miniconda3/envs/p4env/share/psi4
    Memory:     500.0 MiB
    Threads:    32
    
  ==> Input File <==

--------------------------------------------------------------------------
#psi4
#
memory 32 gb

molecule  {
0 1
  O       -0.4083860    -1.2037120     0.0000020
  O        1.7243640     1.6671510     0.0000140
  N        2.2253870    -0.5811730    -0.0000150
  C       -2.3031430     0.0242890     0.0000050
  C       -0.0581500     0.1228580    -0.0000120
  C       -1.1822370     0.9067590    -0.0000090
  C       -1.7775000    -1.2415930     0.0000090
  C        1.3735220     0.4821180    -0.0000010
  C       -3.7529710     0.3950310    -0.0000010
  C        3.6643050    -0.4088610     0.0000040
  H       -1.1841660     1.9889020    -0.0000190
  H       -2.2178060    -2.2289420     0.0000270
  H       -4.0072870     0.9882130    -0.8832630
  H       -4.3837090    -0.4981310     0.0000100
  H       -4.0072900     0.9882370     0.8832440
  H        1.8267750    -1.5109680    -0.0000190
  H        4.0722182    -0.8158548    -0.8097786
  H        4.1132390    -0.8567810     0.8912880
  H        3.8584940     0.6633720    -0.0000070
units angstrom
no_reorient  #important for SAPT in psi4, default
symmetry c1  #important for SAPT in psi4, default
}

set PROPERTIES_ORIGIN ["COM"]
properties('MP2/aug-cc-pvtz', properties = ['dipole'])
--------------------------------------------------------------------------

  Memory set to  29.802 GiB by Python driver.
    SCF Algorithm Type (re)set to DF.

*** tstart() called on c459-032.stampede2.tacc.utexas.edu
*** at Sat Mar  6 16:43:20 2021

   => Loading Basis Set <=

    Name: AUG-CC-PVTZ
    Role: ORBITAL
    Keyword: BASIS
    atoms 1-2   entry O          line   331 file /home1/07844/xy3866/miniconda3/envs/p4env/share/psi4/basis/aug-cc-pvtz.gbs 
    atoms 3     entry N          line   285 file /home1/07844/xy3866/miniconda3/envs/p4env/share/psi4/basis/aug-cc-pvtz.gbs 
    atoms 4-10  entry C          line   239 file /home1/07844/xy3866/miniconda3/envs/p4env/share/psi4/basis/aug-cc-pvtz.gbs 
    atoms 11-19 entry H          line    40 file /home1/07844/xy3866/miniconda3/envs/p4env/share/psi4/basis/aug-cc-pvtz.gbs 


         ---------------------------------------------------------
                                   SCF
               by Justin Turney, Rob Parrish, Andy Simmonett
                          and Daniel G. A. Smith
                              RHF Reference
                       32 Threads,  30517 MiB Core
         ---------------------------------------------------------

  ==> Geometry <==

    Molecular point group: c1
    Full point group: C1

    Geometry (in Angstrom), charge = 0, multiplicity = 1:

       Center              X                  Y                   Z               Mass       
    ------------   -----------------  -----------------  -----------------  -----------------
         O           -0.421563421909    -1.213417553579    -0.000588420751    15.994914619570
         O            1.711186578091     1.657445446421    -0.000576420751    15.994914619570
         N            2.212209578091    -0.590878553579    -0.000605420751    14.003074004430
         C           -2.316320421909     0.014583446421    -0.000585420751    12.000000000000
         C           -0.071327421909     0.113152446421    -0.000602420751    12.000000000000
         C           -1.195414421909     0.897053446421    -0.000599420751    12.000000000000
         C           -1.790677421909    -1.251298553579    -0.000581420751    12.000000000000
         C            1.360344578091     0.472412446421    -0.000591420751    12.000000000000
         C           -3.766148421909     0.385325446421    -0.000591420751    12.000000000000
         C            3.651127578091    -0.418566553579    -0.000586420751    12.000000000000
         H           -1.197343421909     1.979196446421    -0.000609420751     1.007825032230
         H           -2.230983421909    -2.238647553579    -0.000563420751     1.007825032230
         H           -4.020464421909     0.978507446421    -0.883853420751     1.007825032230
         H           -4.396886421909    -0.507836553579    -0.000580420751     1.007825032230
         H           -4.020467421909     0.978531446421     0.882653579249     1.007825032230
         H            1.813597578091    -1.520673553579    -0.000609420751     1.007825032230
         H            4.059040778091    -0.825560353579    -0.810369020751     1.007825032230
         H            4.100061578091    -0.866486553579     0.890697579249     1.007825032230
         H            3.845316578091     0.653666446421    -0.000597420751     1.007825032230

  Running in c1 symmetry.

  Rotational constants: A =      0.13402  B =      0.02394  C =      0.02046 [cm^-1]
  Rotational constants: A =   4017.94528  B =    717.68986  C =    613.40751 [MHz]
  Nuclear repulsion =  510.132276384828288

  Charge       = 0
  Multiplicity = 1
  Electrons    = 74
  Nalpha       = 37
  Nbeta        = 37

  ==> Algorithm <==

  SCF Algorithm Type is DF.
  DIIS enabled.
  MOM disabled.
  Fractional occupation disabled.
  Guess Type is SAD.
  Energy threshold   = 1.00e-10
  Density threshold  = 1.00e-10
  Integral threshold = 1.00e-12

  ==> Primary Basis <==

  Basis Set: AUG-CC-PVTZ
    Blend: AUG-CC-PVTZ
    Number of shells: 221
    Number of basis functions: 667
    Number of Cartesian functions: 775
    Spherical Harmonics?: true
    Max angular momentum: 3

   => Loading Basis Set <=

    Name: (AUG-CC-PVTZ AUX)
    Role: JKFIT
    Keyword: DF_BASIS_SCF
    atoms 1-2   entry O          line   286 file /home1/07844/xy3866/miniconda3/envs/p4env/share/psi4/basis/aug-cc-pvtz-jkfit.gbs 
    atoms 3     entry N          line   224 file /home1/07844/xy3866/miniconda3/envs/p4env/share/psi4/basis/aug-cc-pvtz-jkfit.gbs 
    atoms 4-10  entry C          line   162 file /home1/07844/xy3866/miniconda3/envs/p4env/share/psi4/basis/aug-cc-pvtz-jkfit.gbs 
    atoms 11-19 entry H          line    70 file /home1/07844/xy3866/miniconda3/envs/p4env/share/psi4/basis/aug-cc-pvtz-jkfit.gbs 

  ==> Integral Setup <==

  DFHelper Memory: AOs need 4.318 GiB; user supplied 22.352 GiB. Using in-core AOs.

  ==> MemDFJK: Density-Fitted J/K Matrices <==

    J tasked:                   Yes
    K tasked:                   Yes
    wK tasked:                   No
    OpenMP threads:              32
    Memory [MiB]:             22888
    Algorithm:                 Core
    Schwarz Cutoff:           1E-12
    Mask sparsity (%):      14.7857
    Fitting Condition:        1E-10

   => Auxiliary Basis Set <=

  Basis Set: (AUG-CC-PVTZ AUX)
    Blend: AUG-CC-PVTZ-JKFIT
    Number of shells: 426
    Number of basis functions: 1454
    Number of Cartesian functions: 1805
    Spherical Harmonics?: true
    Max angular momentum: 4

  Minimum eigenvalue in the overlap matrix is 2.3037662915E-06.
  Reciprocal condition number of the overlap matrix is 1.3537172908E-07.
    Using symmetric orthogonalization.

  ==> Pre-Iterations <==

  SCF Guess: Superposition of Atomic Densities via on-the-fly atomic UHF (no occupation information).

   -------------------------
    Irrep   Nso     Nmo    
   -------------------------
     A        667     667 
   -------------------------
    Total     667     667
   -------------------------

  ==> Iterations <==

                           Total Energy        Delta E     RMS |[F,P]|

   @DF-RHF iter SAD:  -473.88302573780794   -4.73883e+02   0.00000e+00 
   @DF-RHF iter   1:  -474.35312186444111   -4.70096e-01   1.11470e-03 DIIS
   @DF-RHF iter   2:  -474.56914424571545   -2.16022e-01   6.52273e-04 DIIS
   @DF-RHF iter   3:  -474.64117836231020   -7.20341e-02   1.59969e-04 DIIS
   @DF-RHF iter   4:  -474.64709139033016   -5.91303e-03   5.71890e-05 DIIS
   @DF-RHF iter   5:  -474.64798303932230   -8.91649e-04   1.25005e-05 DIIS
   @DF-RHF iter   6:  -474.64805432705936   -7.12877e-05   5.72157e-06 DIIS
   @DF-RHF iter   7:  -474.64807176228885   -1.74352e-05   2.07066e-06 DIIS
   @DF-RHF iter   8:  -474.64807539296845   -3.63068e-06   8.36909e-07 DIIS
   @DF-RHF iter   9:  -474.64807588192491   -4.88956e-07   3.08525e-07 DIIS
   @DF-RHF iter  10:  -474.64807593140017   -4.94753e-08   1.02856e-07 DIIS
   @DF-RHF iter  11:  -474.64807593718626   -5.78609e-09   4.19853e-08 DIIS
   @DF-RHF iter  12:  -474.64807593794421   -7.57950e-10   1.58103e-08 DIIS
   @DF-RHF iter  13:  -474.64807593815146   -2.07251e-10   6.96766e-09 DIIS
   @DF-RHF iter  14:  -474.64807593818585   -3.43903e-11   2.93471e-09 DIIS
   @DF-RHF iter  15:  -474.64807593819478   -8.92442e-12   1.56174e-09 DIIS
   @DF-RHF iter  16:  -474.64807593819603   -1.25056e-12   5.66874e-10 DIIS
   @DF-RHF iter  17:  -474.64807593819614   -1.13687e-13   2.14872e-10 DIIS
   @DF-RHF iter  18:  -474.64807593819580    3.41061e-13   7.01485e-11 DIIS
  Energy and wave function converged.


  ==> Post-Iterations <==

    Orbital Energies [Eh]
    ---------------------

    Doubly Occupied:                                                      

       1A    -20.636431     2A    -20.513549     3A    -15.586005  
       4A    -11.357740     5A    -11.300581     6A    -11.298601  
       7A    -11.249885     8A    -11.246060     9A    -11.245614  
      10A    -11.238532    11A     -1.467640    12A     -1.368372  
      13A     -1.229409    14A     -1.112797    15A     -1.041404  
      16A     -0.976939    17A     -0.945736    18A     -0.841928  
      19A     -0.796263    20A     -0.772434    21A     -0.737678  
      22A     -0.668914    23A     -0.656373    24A     -0.638760  
      25A     -0.625069    26A     -0.596206    27A     -0.592017  
      28A     -0.580107    29A     -0.578289    30A     -0.552002  
      31A     -0.545446    32A     -0.536438    33A     -0.521621  
      34A     -0.431312    35A     -0.399058    36A     -0.389430  
      37A     -0.323721  

    Virtual:                                                              

      38A      0.024148    39A      0.028913    40A      0.034807  
      41A      0.043097    42A      0.045579    43A      0.049489  
      44A      0.050849    45A      0.067600    46A      0.069994  
      47A      0.078266    48A      0.079263    49A      0.096337  
      50A      0.099292    51A      0.105307    52A      0.109713  
      53A      0.111177    54A      0.113291    55A      0.121448  
      56A      0.125363    57A      0.131080    58A      0.132017  
      59A      0.137807    60A      0.138124    61A      0.143478  
      62A      0.148956    63A      0.149133    64A      0.157111  
      65A      0.160865    66A      0.163333    67A      0.164003  
      68A      0.179318    69A      0.193366    70A      0.194159  
      71A      0.198773    72A      0.205726    73A      0.210883  
      74A      0.218137    75A      0.222014    76A      0.226038  
      77A      0.233282    78A      0.243449    79A      0.245278  
      80A      0.253518    81A      0.259587    82A      0.260057  
      83A      0.271411    84A      0.277299    85A      0.281250  
      86A      0.284166    87A      0.289453    88A      0.293913  
      89A      0.297402    90A      0.298139    91A      0.304674  
      92A      0.315877    93A      0.322945    94A      0.324641  
      95A      0.335166    96A      0.335644    97A      0.342773  
      98A      0.343728    99A      0.346428   100A      0.348441  
     101A      0.354146   102A      0.356336   103A      0.358988  
     104A      0.366719   105A      0.373117   106A      0.377063  
     107A      0.379898   108A      0.388933   109A      0.393479  
     110A      0.397287   111A      0.407039   112A      0.410808  
     113A      0.419997   114A      0.420843   115A      0.425098  
     116A      0.430469   117A      0.434319   118A      0.443383  
     119A      0.448186   120A      0.450179   121A      0.451866  
     122A      0.455416   123A      0.458779   124A      0.462595  
     125A      0.469451   126A      0.476952   127A      0.480699  
     128A      0.482787   129A      0.485907   130A      0.487702  
     131A      0.489139   132A      0.496515   133A      0.501460  
     134A      0.504273   135A      0.514201   136A      0.515340  
     137A      0.520011   138A      0.522725   139A      0.523482  
     140A      0.527201   141A      0.532953   142A      0.542471  
     143A      0.543766   144A      0.557436   145A      0.558665  
     146A      0.563687   147A      0.565530   148A      0.576248  
     149A      0.579268   150A      0.584379   151A      0.602874  
     152A      0.604650   153A      0.617270   154A      0.625831  
     155A      0.631376   156A      0.636015   157A      0.636469  
     158A      0.648077   159A      0.664700   160A      0.669329  
     161A      0.671182   162A      0.673679   163A      0.680906  
     164A      0.692360   165A      0.699572   166A      0.717819  
     167A      0.732399   168A      0.734589   169A      0.741983  
     170A      0.752555   171A      0.761096   172A      0.763749  
     173A      0.782084   174A      0.788494   175A      0.801313  
     176A      0.803599   177A      0.809709   178A      0.815816  
     179A      0.818810   180A      0.825392   181A      0.829207  
     182A      0.842864   183A      0.845228   184A      0.850343  
     185A      0.864446   186A      0.871964   187A      0.874837  
     188A      0.876373   189A      0.889991   190A      0.892372  
     191A      0.895207   192A      0.897484   193A      0.906905  
     194A      0.910735   195A      0.914950   196A      0.919238  
     197A      0.924182   198A      0.932257   199A      0.935628  
     200A      0.943063   201A      0.944194   202A      0.950729  
     203A      0.954364   204A      0.962831   205A      0.966428  
     206A      0.969005   207A      0.975872   208A      0.983432  
     209A      0.994184   210A      0.999388   211A      1.003300  
     212A      1.007035   213A      1.015205   214A      1.026241  
     215A      1.027789   216A      1.034284   217A      1.035526  
     218A      1.045391   219A      1.046690   220A      1.055079  
     221A      1.057416   222A      1.069851   223A      1.079259  
     224A      1.089804   225A      1.092419   226A      1.094086  
     227A      1.099126   228A      1.103591   229A      1.109715  
     230A      1.110847   231A      1.126869   232A      1.127219  
     233A      1.135631   234A      1.138547   235A      1.144098  
     236A      1.149911   237A      1.155651   238A      1.158681  
     239A      1.161213   240A      1.167203   241A      1.172513  
     242A      1.174543   243A      1.183485   244A      1.191676  
     245A      1.206847   246A      1.208900   247A      1.210746  
     248A      1.212886   249A      1.219182   250A      1.228170  
     251A      1.229819   252A      1.248584   253A      1.254570  
     254A      1.268763   255A      1.273636   256A      1.275927  
     257A      1.287178   258A      1.290800   259A      1.299874  
     260A      1.310589   261A      1.313313   262A      1.323317  
     263A      1.329410   264A      1.340558   265A      1.340723  
     266A      1.345911   267A      1.370540   268A      1.377008  
     269A      1.387445   270A      1.393070   271A      1.401908  
     272A      1.409602   273A      1.416904   274A      1.422465  
     275A      1.432523   276A      1.444712   277A      1.455038  
     278A      1.460836   279A      1.467756   280A      1.483680  
     281A      1.488894   282A      1.492251   283A      1.496476  
     284A      1.510651   285A      1.513194   286A      1.526019  
     287A      1.533201   288A      1.554258   289A      1.555514  
     290A      1.564180   291A      1.575297   292A      1.590489  
     293A      1.603653   294A      1.611083   295A      1.613134  
     296A      1.616968   297A      1.631526   298A      1.644518  
     299A      1.651953   300A      1.655510   301A      1.672659  
     302A      1.677032   303A      1.684532   304A      1.690548  
     305A      1.695744   306A      1.709653   307A      1.721705  
     308A      1.729116   309A      1.732274   310A      1.735760  
     311A      1.754351   312A      1.757745   313A      1.758210  
     314A      1.763605   315A      1.776453   316A      1.786001  
     317A      1.792450   318A      1.799339   319A      1.801319  
     320A      1.806713   321A      1.814540   322A      1.829053  
     323A      1.850590   324A      1.852136   325A      1.870577  
     326A      1.878148   327A      1.897495   328A      1.913799  
     329A      1.926568   330A      1.930567   331A      1.935598  
     332A      1.950315   333A      1.953711   334A      1.961024  
     335A      1.976007   336A      1.983486   337A      1.997481  
     338A      2.006791   339A      2.015800   340A      2.021791  
     341A      2.024731   342A      2.041282   343A      2.050962  
     344A      2.058085   345A      2.070685   346A      2.079081  
     347A      2.098327   348A      2.100737   349A      2.102650  
     350A      2.116067   351A      2.128130   352A      2.158356  
     353A      2.178665   354A      2.180782   355A      2.188700  
     356A      2.202246   357A      2.206817   358A      2.214825  
     359A      2.219024   360A      2.220611   361A      2.238623  
     362A      2.246208   363A      2.252765   364A      2.272004  
     365A      2.275613   366A      2.292787   367A      2.307280  
     368A      2.323097   369A      2.342120   370A      2.349611  
     371A      2.367373   372A      2.375622   373A      2.385618  
     374A      2.388922   375A      2.403932   376A      2.410634  
     377A      2.415341   378A      2.450226   379A      2.459958  
     380A      2.467120   381A      2.485650   382A      2.488602  
     383A      2.525287   384A      2.545982   385A      2.552843  
     386A      2.557588   387A      2.568137   388A      2.586598  
     389A      2.607088   390A      2.615216   391A      2.627004  
     392A      2.639249   393A      2.652128   394A      2.682337  
     395A      2.705864   396A      2.710253   397A      2.737417  
     398A      2.741653   399A      2.748023   400A      2.763455  
     401A      2.785900   402A      2.833656   403A      2.835234  
     404A      2.869062   405A      2.892817   406A      2.908684  
     407A      2.910774   408A      2.920264   409A      2.976250  
     410A      2.990102   411A      3.000381   412A      3.027619  
     413A      3.058431   414A      3.085539   415A      3.107799  
     416A      3.130998   417A      3.153446   418A      3.158194  
     419A      3.191649   420A      3.213829   421A      3.222488  
     422A      3.256374   423A      3.257580   424A      3.309215  
     425A      3.310540   426A      3.320541   427A      3.349368  
     428A      3.350170   429A      3.374579   430A      3.385263  
     431A      3.397155   432A      3.402864   433A      3.409276  
     434A      3.428172   435A      3.436876   436A      3.452955  
     437A      3.465094   438A      3.491878   439A      3.517474  
     440A      3.522476   441A      3.525310   442A      3.540470  
     443A      3.548316   444A      3.569116   445A      3.577020  
     446A      3.590985   447A      3.595905   448A      3.611718  
     449A      3.625713   450A      3.635078   451A      3.643830  
     452A      3.652681   453A      3.669452   454A      3.673516  
     455A      3.700894   456A      3.702082   457A      3.707283  
     458A      3.728556   459A      3.739145   460A      3.759448  
     461A      3.767643   462A      3.776889   463A      3.781706  
     464A      3.794645   465A      3.800638   466A      3.803605  
     467A      3.820201   468A      3.824155   469A      3.855192  
     470A      3.871435   471A      3.883909   472A      3.887969  
     473A      3.899712   474A      3.917022   475A      3.926514  
     476A      3.943130   477A      3.948857   478A      3.967277  
     479A      3.978787   480A      3.982671   481A      3.989635  
     482A      3.998867   483A      4.003920   484A      4.019289  
     485A      4.040511   486A      4.048379   487A      4.067136  
     488A      4.076177   489A      4.085882   490A      4.100371  
     491A      4.105533   492A      4.114080   493A      4.122401  
     494A      4.141597   495A      4.146027   496A      4.153814  
     497A      4.161856   498A      4.176208   499A      4.180655  
     500A      4.185348   501A      4.188931   502A      4.189525  
     503A      4.240683   504A      4.242798   505A      4.251948  
     506A      4.260461   507A      4.281408   508A      4.286521  
     509A      4.311643   510A      4.318073   511A      4.327305  
     512A      4.338025   513A      4.355804   514A      4.365555  
     515A      4.376968   516A      4.389721   517A      4.415961  
     518A      4.417148   519A      4.442595   520A      4.443953  
     521A      4.473432   522A      4.475533   523A      4.495849  
     524A      4.505940   525A      4.508799   526A      4.523078  
     527A      4.542366   528A      4.561992   529A      4.581394  
     530A      4.592233   531A      4.605087   532A      4.643934  
     533A      4.668083   534A      4.680409   535A      4.694477  
     536A      4.704719   537A      4.715893   538A      4.724260  
     539A      4.737139   540A      4.755935   541A      4.783479  
     542A      4.791245   543A      4.805201   544A      4.807382  
     545A      4.821982   546A      4.836386   547A      4.847084  
     548A      4.869039   549A      4.889859   550A      4.891768  
     551A      4.909656   552A      4.920829   553A      4.950486  
     554A      4.951314   555A      4.956882   556A      4.991841  
     557A      5.001563   558A      5.017572   559A      5.043828  
     560A      5.049946   561A      5.067592   562A      5.073974  
     563A      5.088843   564A      5.101047   565A      5.113341  
     566A      5.143522   567A      5.171581   568A      5.178426  
     569A      5.199261   570A      5.206593   571A      5.216176  
     572A      5.231794   573A      5.263970   574A      5.301654  
     575A      5.304323   576A      5.325545   577A      5.333116  
     578A      5.345346   579A      5.377519   580A      5.401488  
     581A      5.428873   582A      5.448622   583A      5.490793  
     584A      5.526150   585A      5.538255   586A      5.563803  
     587A      5.575022   588A      5.580208   589A      5.628198  
     590A      5.635715   591A      5.684013   592A      5.699605  
     593A      5.707715   594A      5.730061   595A      5.739984  
     596A      5.747093   597A      5.795166   598A      5.818652  
     599A      5.855817   600A      5.874590   601A      5.912904  
     602A      5.936954   603A      5.947564   604A      6.015689  
     605A      6.060266   606A      6.096481   607A      6.140533  
     608A      6.164610   609A      6.169301   610A      6.184369  
     611A      6.211221   612A      6.270253   613A      6.280630  
     614A      6.292139   615A      6.335779   616A      6.389534  
     617A      6.422457   618A      6.482554   619A      6.519264  
     620A      6.556074   621A      6.631036   622A      6.646310  
     623A      6.709942   624A      6.728803   625A      6.747963  
     626A      6.752645   627A      6.761207   628A      6.800425  
     629A      6.811591   630A      6.833569   631A      6.872021  
     632A      6.887879   633A      6.912916   634A      6.946741  
     635A      6.991864   636A      7.019880   637A      7.051583  
     638A      7.098087   639A      7.117414   640A      7.216125  
     641A      7.233178   642A      7.417601   643A      7.450202  
     644A      7.468791   645A      7.537410   646A      7.627178  
     647A      7.653902   648A      7.698288   649A      7.745446  
     650A      7.760875   651A      7.841374   652A      7.902223  
     653A      7.975695   654A      8.005521   655A      8.057218  
     656A      8.393774   657A      8.546114   658A     14.844319  
     659A     16.554043   660A     16.832634   661A     17.350011  
     662A     17.717322   663A     18.502192   664A     19.099940  
     665A     19.848351   666A     20.412802   667A     20.524106  

    Final Occupation by Irrep:
              A 
    DOCC [    37 ]

  @DF-RHF Final Energy:  -474.64807593819580

   => Energetics <=

    Nuclear Repulsion Energy =            510.1322763848282875
    One-Electron Energy =               -1658.3639930963331608
    Two-Electron Energy =                 673.5836407733089573
    Total Energy =                       -474.6480759381958023

Computation Completed

*** tstop() called on c459-032.stampede2.tacc.utexas.edu at Sat Mar  6 16:43:58 2021
Module time:
	user time   =     673.65 seconds =      11.23 minutes
	system time =      48.29 seconds =       0.80 minutes
	total time  =         38 seconds =       0.63 minutes
Total time:
	user time   =     673.65 seconds =      11.23 minutes
	system time =      48.29 seconds =       0.80 minutes
	total time  =         38 seconds =       0.63 minutes
   => Loading Basis Set <=

    Name: (AUG-CC-PVTZ AUX)
    Role: RIFIT
    Keyword: DF_BASIS_MP2
    atoms 1-2   entry O          line   264 file /home1/07844/xy3866/miniconda3/envs/p4env/share/psi4/basis/aug-cc-pvtz-ri.gbs 
    atoms 3     entry N          line   206 file /home1/07844/xy3866/miniconda3/envs/p4env/share/psi4/basis/aug-cc-pvtz-ri.gbs 
    atoms 4-10  entry C          line   148 file /home1/07844/xy3866/miniconda3/envs/p4env/share/psi4/basis/aug-cc-pvtz-ri.gbs 
    atoms 11-19 entry H          line    30 file /home1/07844/xy3866/miniconda3/envs/p4env/share/psi4/basis/aug-cc-pvtz-ri.gbs 


*** tstart() called on c459-032.stampede2.tacc.utexas.edu
*** at Sat Mar  6 16:43:59 2021


  //>>>>>>>>>>>>>>>>>>>>>>>>>>>>>>>>>>>//
  //               DFMP2               //
  //<<<<<<<<<<<<<<<<<<<<<<<<<<<<<<<<<<<//

	 --------------------------------------------------------
	                          DF-MP2                         
	      2nd-Order Density-Fitted Moller-Plesset Theory     
	              RMP2 Wavefunction,  32 Threads             
	                                                         
	        Rob Parrish, Justin Turney, Andy Simmonett,      
	           Ed Hohenstein, and C. David Sherrill          
	 --------------------------------------------------------

   => Auxiliary Basis Set <=

  Basis Set: (AUG-CC-PVTZ AUX)
    Blend: AUG-CC-PVTZ-RI
    Number of shells: 406
    Number of basis functions: 1474
    Number of Cartesian functions: 1855
    Spherical Harmonics?: true
    Max angular momentum: 4

	 --------------------------------------------------------
	                 NBF =   667, NAUX =  1474
	 --------------------------------------------------------
	   CLASS    FOCC     OCC    AOCC    AVIR     VIR    FVIR
	   PAIRS       0      37      37     630     630       0
	 --------------------------------------------------------

  DFHelper Memory: AOs need 4.562 GiB; user supplied 22.352 GiB. Using in-core AOs.


         ------------------------------------------------------------
                                     CPHF                           
                                  Rob Parrish                       
         ------------------------------------------------------------

  ==> Geometry <==

    Molecular point group: c1
    Full point group: C1

    Geometry (in Angstrom), charge = 0, multiplicity = 1:

       Center              X                  Y                   Z               Mass       
    ------------   -----------------  -----------------  -----------------  -----------------
         O           -0.421563421909    -1.213417553579    -0.000588420751    15.994914619570
         O            1.711186578091     1.657445446421    -0.000576420751    15.994914619570
         N            2.212209578091    -0.590878553579    -0.000605420751    14.003074004430
         C           -2.316320421909     0.014583446421    -0.000585420751    12.000000000000
         C           -0.071327421909     0.113152446421    -0.000602420751    12.000000000000
         C           -1.195414421909     0.897053446421    -0.000599420751    12.000000000000
         C           -1.790677421909    -1.251298553579    -0.000581420751    12.000000000000
         C            1.360344578091     0.472412446421    -0.000591420751    12.000000000000
         C           -3.766148421909     0.385325446421    -0.000591420751    12.000000000000
         C            3.651127578091    -0.418566553579    -0.000586420751    12.000000000000
         H           -1.197343421909     1.979196446421    -0.000609420751     1.007825032230
         H           -2.230983421909    -2.238647553579    -0.000563420751     1.007825032230
         H           -4.020464421909     0.978507446421    -0.883853420751     1.007825032230
         H           -4.396886421909    -0.507836553579    -0.000580420751     1.007825032230
         H           -4.020467421909     0.978531446421     0.882653579249     1.007825032230
         H            1.813597578091    -1.520673553579    -0.000609420751     1.007825032230
         H            4.059040778091    -0.825560353579    -0.810369020751     1.007825032230
         H            4.100061578091    -0.866486553579     0.890697579249     1.007825032230
         H            3.845316578091     0.653666446421    -0.000597420751     1.007825032230

  Nuclear repulsion =  510.132276384828288
  Reference energy  = -474.648075938195802

  ==> Basis Set <==

  Basis Set: AUG-CC-PVTZ
    Blend: AUG-CC-PVTZ
    Number of shells: 221
    Number of basis functions: 667
    Number of Cartesian functions: 775
    Spherical Harmonics?: true
    Max angular momentum: 3

  ==> CGRSolver (by Rob Parrish) <==

   Number of roots    =         1
   Preconditioning    =    JACOBI
   Convergence cutoff =     1E-06
   Maximum iterations =       100

  ==> CPHFRHamiltonian (by Rob Parrish) <== 

  ==> MemDFJK: Density-Fitted J/K Matrices <==

    J tasked:                   Yes
    K tasked:                   Yes
    wK tasked:                   No
    OpenMP threads:              32
    Memory [MiB]:             22888
    Algorithm:                 Core
    Schwarz Cutoff:           1E-12
    Mask sparsity (%):       9.7269
    Fitting Condition:        1E-10

   => Auxiliary Basis Set <=

  Basis Set: (AUG-CC-PVTZ AUX)
    Blend: AUG-CC-PVTZ-JKFIT
    Number of shells: 426
    Number of basis functions: 1454
    Number of Cartesian functions: 1805
    Spherical Harmonics?: true
    Max angular momentum: 4

  ==> CPHF Iterations <==

  => Iterations <=

             Iter  Converged  Remaining    Residual
  CGR           1          0          1   1.239E-01
  CGR           2          0          1   4.107E-02
  CGR           3          0          1   1.846E-02
  CGR           4          0          1   5.940E-03
  CGR           5          0          1   2.658E-03
  CGR           6          0          1   1.077E-03
  CGR           7          0          1   4.165E-04
  CGR           8          0          1   1.785E-04
  CGR           9          0          1   6.894E-05
  CGR          10          0          1   2.764E-05
  CGR          11          0          1   1.001E-05
  CGR          12          0          1   2.729E-06
  CGR          13          0          1   1.061E-06
  CGR          14          1          0   3.064E-07

    CGRSolver converged.

	-----------------------------------------------------------
	 ==================> DF-MP2 Energies <==================== 
	-----------------------------------------------------------
	 Reference Energy          =    -474.6480759381958023 [Eh]
	 Singles Energy            =      -0.0000000000000000 [Eh]
	 Same-Spin Energy          =      -0.4908924507020977 [Eh]
	 Opposite-Spin Energy      =      -1.5260395455607245 [Eh]
	 Correlation Energy        =      -2.0169319962628220 [Eh]
	 Total Energy              =    -476.6650079344586288 [Eh]
	-----------------------------------------------------------
	 ================> DF-SCS-MP2 Energies <================== 
	-----------------------------------------------------------
	 SCS Same-Spin Scale       =       0.3333333333333333 [-]
	 SCS Opposite-Spin Scale   =       1.2000000000000000 [-]
	 SCS Same-Spin Energy      =      -0.1636308169006992 [Eh]
	 SCS Opposite-Spin Energy  =      -1.8312474546728694 [Eh]
	 SCS Correlation Energy    =      -1.9948782715735687 [Eh]
	 SCS Total Energy          =    -476.6429542097693570 [Eh]
	-----------------------------------------------------------



Properties will be evaluated at  -0.000000,   0.000000,   0.000000 [a0]

Properties computed using the MP2 density matrix

  Nuclear Dipole Moment: [e a0]
     X:    -1.9203      Y:    -1.2798      Z:     0.0714

  Electronic Dipole Moment: [e a0]
     X:     1.4338      Y:     0.0337      Z:    -0.0836

  Dipole Moment: [e a0]
     X:    -0.4865      Y:    -1.2462      Z:    -0.0122     Total:     1.3378

  Dipole Moment: [D]
     X:    -1.2364      Y:    -3.1675      Z:    -0.0310     Total:     3.4004


*** tstop() called on c459-032.stampede2.tacc.utexas.edu at Sat Mar  6 16:47:38 2021
Module time:
	user time   =    1960.30 seconds =      32.67 minutes
	system time =      65.26 seconds =       1.09 minutes
	total time  =        219 seconds =       3.65 minutes
Total time:
	user time   =    2634.91 seconds =      43.92 minutes
	system time =     113.56 seconds =       1.89 minutes
	total time  =        258 seconds =       4.30 minutes

    Psi4 stopped on: Saturday, 06 March 2021 04:47PM
    Psi4 wall time for execution: 0:04:19.44

*** Psi4 exiting successfully. Buy a developer a beer!
