
    -----------------------------------------------------------------------
          Psi4: An Open-Source Ab Initio Electronic Structure Package
                               Psi4 1.4a3.dev225 

                         Git: Rev {master} 7105e37 


    D. G. A. Smith, L. A. Burns, A. C. Simmonett, R. M. Parrish,
    M. C. Schieber, R. Galvelis, P. Kraus, H. Kruse, R. Di Remigio,
    A. Alenaizan, A. M. James, S. Lehtola, J. P. Misiewicz, M. Scheurer,
    R. A. Shaw, J. B. Schriber, Y. Xie, Z. L. Glick, D. A. Sirianni,
    J. S. O'Brien, J. M. Waldrop, A. Kumar, E. G. Hohenstein,
    B. P. Pritchard, B. R. Brooks, H. F. Schaefer III, A. Yu. Sokolov,
    K. Patkowski, A. E. DePrince III, U. Bozkaya, R. A. King,
    F. A. Evangelista, J. M. Turney, T. D. Crawford, C. D. Sherrill,
    J. Chem. Phys. 152(18) 184108 (2020). https://doi.org/10.1063/5.0006002

                            Additional Code Authors
    E. T. Seidl, C. L. Janssen, E. F. Valeev, M. L. Leininger,
    J. F. Gonthier, R. M. Richard, H. R. McAlexander, M. Saitow, X. Wang,
    P. Verma, and M. H. Lechner

             Previous Authors, Complete List of Code Contributors,
                       and Citations for Specific Modules
    https://github.com/psi4/psi4/blob/master/codemeta.json
    https://github.com/psi4/psi4/graphs/contributors
    http://psicode.org/psi4manual/master/introduction.html#citing-psifour

    -----------------------------------------------------------------------


    Psi4 started on: Sunday, 28 February 2021 08:57PM

    Process ID: 5174
    Host:       c404-052.stampede2.tacc.utexas.edu
    PSIDATADIR: /home1/07844/xy3866/miniconda3/envs/p4env/share/psi4
    Memory:     500.0 MiB
    Threads:    32
    
  ==> Input File <==

--------------------------------------------------------------------------
#psi4
#
memory 32 gb

molecule  {
0 1
  O        1.7572910     0.3059760     0.0000180
  C       -0.4850880     0.9739040    -0.0000120
  C        0.4405670    -0.0879150     0.0000040
  C       -1.8443600     0.6614770    -0.0000180
  C        0.0124250    -1.4183170     0.0000060
  C        0.0151430     2.3911510    -0.0000080
  C       -2.2900340    -0.6642210    -0.0000140
  C       -1.3585410    -1.6984920    -0.0000020
  C        2.7379480    -0.7266300     0.0000180
  H       -2.5677820     1.4752540    -0.0000300
  H        0.7228010    -2.2381660     0.0000160
  H       -0.8234040     3.0925880    -0.0001030
  H        0.6363730     2.5877470     0.8789620
  H        0.6365320     2.5876940    -0.8788760
  H       -3.3546920    -0.8829470    -0.0000210
  H       -1.6887710    -2.7346470     0.0000000
  H        2.7262882    -1.3297319    -0.9144566
  H        2.6565580    -1.3539040     0.8944650
  H        3.6991380    -0.2132700     0.0000220
units angstrom
no_reorient  #important for SAPT in psi4, default
symmetry c1  #important for SAPT in psi4, default
}

set PROPERTIES_ORIGIN ["COM"]
properties('MP2/aug-cc-pvtz', properties = ['dipole'])
--------------------------------------------------------------------------

  Memory set to  29.802 GiB by Python driver.
    SCF Algorithm Type (re)set to DF.

*** tstart() called on c404-052.stampede2.tacc.utexas.edu
*** at Sun Feb 28 20:57:32 2021

   => Loading Basis Set <=

    Name: AUG-CC-PVTZ
    Role: ORBITAL
    Keyword: BASIS
    atoms 1     entry O          line   331 file /home1/07844/xy3866/miniconda3/envs/p4env/share/psi4/basis/aug-cc-pvtz.gbs 
    atoms 2-9   entry C          line   239 file /home1/07844/xy3866/miniconda3/envs/p4env/share/psi4/basis/aug-cc-pvtz.gbs 
    atoms 10-19 entry H          line    40 file /home1/07844/xy3866/miniconda3/envs/p4env/share/psi4/basis/aug-cc-pvtz.gbs 


         ---------------------------------------------------------
                                   SCF
               by Justin Turney, Rob Parrish, Andy Simmonett
                          and Daniel G. A. Smith
                              RHF Reference
                       32 Threads,  30517 MiB Core
         ---------------------------------------------------------

  ==> Geometry <==

    Molecular point group: c1
    Full point group: C1

    Geometry (in Angstrom), charge = 0, multiplicity = 1:

       Center              X                  Y                   Z               Mass       
    ------------   -----------------  -----------------  -----------------  -----------------
         O            1.777703655082     0.313644247924     0.000183493876    15.994914619570
         C           -0.464675344918     0.981572247924     0.000153493876    12.000000000000
         C            0.460979655082    -0.080246752076     0.000169493876    12.000000000000
         C           -1.823947344918     0.669145247924     0.000147493876    12.000000000000
         C            0.032837655082    -1.410648752076     0.000171493876    12.000000000000
         C            0.035555655082     2.398819247924     0.000157493876    12.000000000000
         C           -2.269621344918    -0.656552752076     0.000151493876    12.000000000000
         C           -1.338128344918    -1.690823752076     0.000163493876    12.000000000000
         C            2.758360655082    -0.718961752076     0.000183493876    12.000000000000
         H           -2.547369344918     1.482922247924     0.000135493876     1.007825032230
         H            0.743213655082    -2.230497752076     0.000181493876     1.007825032230
         H           -0.802991344918     3.100256247924     0.000062493876     1.007825032230
         H            0.656785655082     2.595415247924     0.879127493876     1.007825032230
         H            0.656944655082     2.595362247924    -0.878710506124     1.007825032230
         H           -3.334279344918    -0.875278752076     0.000144493876     1.007825032230
         H           -1.668358344918    -2.726978752076     0.000165493876     1.007825032230
         H            2.746700855082    -1.322063652076    -0.914291106124     1.007825032230
         H            2.676970655082    -1.346235752076     0.894630493876     1.007825032230
         H            3.719550655082    -0.205601752076     0.000187493876     1.007825032230

  Running in c1 symmetry.

  Rotational constants: A =      0.08321  B =      0.05186  C =      0.03234 [cm^-1]
  Rotational constants: A =   2494.52781  B =   1554.79685  C =    969.59332 [MHz]
  Nuclear repulsion =  429.983543170596874

  Charge       = 0
  Multiplicity = 1
  Electrons    = 66
  Nalpha       = 33
  Nbeta        = 33

  ==> Algorithm <==

  SCF Algorithm Type is DF.
  DIIS enabled.
  MOM disabled.
  Fractional occupation disabled.
  Guess Type is SAD.
  Energy threshold   = 1.00e-10
  Density threshold  = 1.00e-10
  Integral threshold = 1.00e-12

  ==> Primary Basis <==

  Basis Set: AUG-CC-PVTZ
    Blend: AUG-CC-PVTZ
    Number of shells: 216
    Number of basis functions: 644
    Number of Cartesian functions: 745
    Spherical Harmonics?: true
    Max angular momentum: 3

   => Loading Basis Set <=

    Name: (AUG-CC-PVTZ AUX)
    Role: JKFIT
    Keyword: DF_BASIS_SCF
    atoms 1     entry O          line   286 file /home1/07844/xy3866/miniconda3/envs/p4env/share/psi4/basis/aug-cc-pvtz-jkfit.gbs 
    atoms 2-9   entry C          line   162 file /home1/07844/xy3866/miniconda3/envs/p4env/share/psi4/basis/aug-cc-pvtz-jkfit.gbs 
    atoms 10-19 entry H          line    70 file /home1/07844/xy3866/miniconda3/envs/p4env/share/psi4/basis/aug-cc-pvtz-jkfit.gbs 

  ==> Integral Setup <==

  DFHelper Memory: AOs need 4.167 GiB; user supplied 22.352 GiB. Using in-core AOs.

  ==> MemDFJK: Density-Fitted J/K Matrices <==

    J tasked:                   Yes
    K tasked:                   Yes
    wK tasked:                   No
    OpenMP threads:              32
    Memory [MiB]:             22888
    Algorithm:                 Core
    Schwarz Cutoff:           1E-12
    Mask sparsity (%):       7.9593
    Fitting Condition:        1E-10

   => Auxiliary Basis Set <=

  Basis Set: (AUG-CC-PVTZ AUX)
    Blend: AUG-CC-PVTZ-JKFIT
    Number of shells: 410
    Number of basis functions: 1396
    Number of Cartesian functions: 1729
    Spherical Harmonics?: true
    Max angular momentum: 4

  Minimum eigenvalue in the overlap matrix is 5.2691311983E-07.
  Reciprocal condition number of the overlap matrix is 2.7379811662E-08.
    Using symmetric orthogonalization.

  ==> Pre-Iterations <==

  SCF Guess: Superposition of Atomic Densities via on-the-fly atomic UHF (no occupation information).

   -------------------------
    Irrep   Nso     Nmo    
   -------------------------
     A        644     644 
   -------------------------
    Total     644     644
   -------------------------

  ==> Iterations <==

                           Total Energy        Delta E     RMS |[F,P]|

   @DF-RHF iter SAD:  -383.08151114800097   -3.83082e+02   0.00000e+00 
   @DF-RHF iter   1:  -383.48494150070667   -4.03430e-01   1.01716e-03 DIIS
   @DF-RHF iter   2:  -383.70789600840743   -2.22955e-01   4.43168e-04 DIIS
   @DF-RHF iter   3:  -383.74919081938833   -4.12948e-02   9.35383e-05 DIIS
   @DF-RHF iter   4:  -383.75219265089061   -3.00183e-03   3.05542e-05 DIIS
   @DF-RHF iter   5:  -383.75243335481451   -2.40704e-04   8.02210e-06 DIIS
   @DF-RHF iter   6:  -383.75245472288714   -2.13681e-05   2.75880e-06 DIIS
   @DF-RHF iter   7:  -383.75245741084461   -2.68796e-06   8.11249e-07 DIIS
   @DF-RHF iter   8:  -383.75245778388825   -3.73044e-07   2.78941e-07 DIIS
   @DF-RHF iter   9:  -383.75245784108756   -5.71993e-08   1.07342e-07 DIIS
   @DF-RHF iter  10:  -383.75245784896924   -7.88168e-09   4.68690e-08 DIIS
   @DF-RHF iter  11:  -383.75245785147069   -2.50145e-09   2.23367e-08 DIIS
   @DF-RHF iter  12:  -383.75245785204510   -5.74403e-10   1.04928e-08 DIIS
   @DF-RHF iter  13:  -383.75245785218783   -1.42734e-10   3.64624e-09 DIIS
   @DF-RHF iter  14:  -383.75245785220272   -1.48930e-11   1.09931e-09 DIIS
   @DF-RHF iter  15:  -383.75245785220091    1.81899e-12   3.53241e-10 DIIS
   @DF-RHF iter  16:  -383.75245785220091    0.00000e+00   1.00830e-10 DIIS
   @DF-RHF iter  17:  -383.75245785220136   -4.54747e-13   4.16707e-11 DIIS
  Energy and wave function converged.


  ==> Post-Iterations <==

    Orbital Energies [Eh]
    ---------------------

    Doubly Occupied:                                                      

       1A    -20.584787     2A    -11.295072     3A    -11.284112  
       4A    -11.234677     5A    -11.233895     6A    -11.231774  
       7A    -11.230232     8A    -11.224415     9A    -11.216064  
      10A     -1.404142    11A     -1.145313    12A     -1.044601  
      13A     -1.009256    14A     -0.948561    15A     -0.920996  
      16A     -0.813013    17A     -0.796631    18A     -0.708393  
      19A     -0.667244    20A     -0.654627    21A     -0.646258  
      22A     -0.612224    23A     -0.580848    24A     -0.568796  
      25A     -0.562953    26A     -0.538867    27A     -0.519867  
      28A     -0.510417    29A     -0.496249    30A     -0.475071  
      31A     -0.464850    32A     -0.331027    33A     -0.305254  

    Virtual:                                                              

      34A      0.028181    35A      0.032728    36A      0.033946  
      37A      0.043379    38A      0.044604    39A      0.047592  
      40A      0.060726    41A      0.061059    42A      0.067031  
      43A      0.074326    44A      0.095333    45A      0.100011  
      46A      0.103368    47A      0.108141    48A      0.113791  
      49A      0.114599    50A      0.117218    51A      0.125898  
      52A      0.128344    53A      0.131746    54A      0.132264  
      55A      0.135353    56A      0.139908    57A      0.147449  
      58A      0.148023    59A      0.148454    60A      0.153212  
      61A      0.153881    62A      0.160156    63A      0.168254  
      64A      0.170166    65A      0.173890    66A      0.176898  
      67A      0.189892    68A      0.191209    69A      0.194829  
      70A      0.209567    71A      0.219287    72A      0.223357  
      73A      0.228837    74A      0.240214    75A      0.250005  
      76A      0.250717    77A      0.256248    78A      0.265619  
      79A      0.272239    80A      0.275811    81A      0.281676  
      82A      0.291266    83A      0.297567    84A      0.306170  
      85A      0.311268    86A      0.317436    87A      0.319684  
      88A      0.324619    89A      0.329390    90A      0.332274  
      91A      0.335955    92A      0.338396    93A      0.338962  
      94A      0.340279    95A      0.350596    96A      0.356660  
      97A      0.362869    98A      0.367852    99A      0.368900  
     100A      0.378035   101A      0.380038   102A      0.380935  
     103A      0.393166   104A      0.395641   105A      0.403055  
     106A      0.414825   107A      0.416370   108A      0.420612  
     109A      0.423108   110A      0.426078   111A      0.427985  
     112A      0.433912   113A      0.445288   114A      0.450093  
     115A      0.454859   116A      0.458649   117A      0.459196  
     118A      0.462820   119A      0.463414   120A      0.473573  
     121A      0.474242   122A      0.486572   123A      0.490130  
     124A      0.493495   125A      0.495267   126A      0.500281  
     127A      0.501977   128A      0.502886   129A      0.508162  
     130A      0.509816   131A      0.512951   132A      0.520848  
     133A      0.531149   134A      0.532553   135A      0.541226  
     136A      0.542916   137A      0.546897   138A      0.551888  
     139A      0.557415   140A      0.559727   141A      0.565629  
     142A      0.569699   143A      0.579648   144A      0.582797  
     145A      0.587263   146A      0.591650   147A      0.595969  
     148A      0.598535   149A      0.605587   150A      0.621769  
     151A      0.630837   152A      0.641861   153A      0.649021  
     154A      0.652643   155A      0.655760   156A      0.688801  
     157A      0.693094   158A      0.699511   159A      0.699877  
     160A      0.701486   161A      0.724059   162A      0.724917  
     163A      0.727231   164A      0.730810   165A      0.740693  
     166A      0.743366   167A      0.764334   168A      0.766752  
     169A      0.771768   170A      0.789858   171A      0.804471  
     172A      0.807781   173A      0.809930   174A      0.824320  
     175A      0.834674   176A      0.847011   177A      0.848604  
     178A      0.850734   179A      0.854125   180A      0.861855  
     181A      0.870567   182A      0.874608   183A      0.879514  
     184A      0.882980   185A      0.889576   186A      0.890686  
     187A      0.896077   188A      0.906334   189A      0.908998  
     190A      0.910454   191A      0.917152   192A      0.920180  
     193A      0.922447   194A      0.925614   195A      0.938107  
     196A      0.942496   197A      0.950333   198A      0.955617  
     199A      0.965748   200A      0.966838   201A      0.973639  
     202A      0.980519   203A      0.991186   204A      0.993344  
     205A      1.002510   206A      1.005139   207A      1.009338  
     208A      1.012592   209A      1.018868   210A      1.025137  
     211A      1.029463   212A      1.032148   213A      1.041867  
     214A      1.044598   215A      1.052097   216A      1.058434  
     217A      1.063946   218A      1.075134   219A      1.079869  
     220A      1.084163   221A      1.089372   222A      1.093465  
     223A      1.099296   224A      1.110558   225A      1.114196  
     226A      1.118317   227A      1.127086   228A      1.129406  
     229A      1.130991   230A      1.142576   231A      1.152777  
     232A      1.159228   233A      1.164451   234A      1.170978  
     235A      1.174592   236A      1.185413   237A      1.190863  
     238A      1.191349   239A      1.195319   240A      1.206971  
     241A      1.218443   242A      1.221507   243A      1.226649  
     244A      1.228423   245A      1.230365   246A      1.243384  
     247A      1.245627   248A      1.251941   249A      1.254383  
     250A      1.262010   251A      1.266112   252A      1.271106  
     253A      1.283650   254A      1.289090   255A      1.302594  
     256A      1.315713   257A      1.320133   258A      1.321633  
     259A      1.336646   260A      1.345433   261A      1.358401  
     262A      1.369626   263A      1.379732   264A      1.381588  
     265A      1.390814   266A      1.407733   267A      1.413715  
     268A      1.418867   269A      1.432758   270A      1.435692  
     271A      1.448247   272A      1.467062   273A      1.475230  
     274A      1.485469   275A      1.488237   276A      1.505686  
     277A      1.507628   278A      1.525268   279A      1.532349  
     280A      1.536099   281A      1.549342   282A      1.559496  
     283A      1.563785   284A      1.567056   285A      1.583229  
     286A      1.596660   287A      1.610015   288A      1.626988  
     289A      1.629875   290A      1.636591   291A      1.645927  
     292A      1.648099   293A      1.660477   294A      1.665581  
     295A      1.668470   296A      1.677138   297A      1.685133  
     298A      1.694269   299A      1.699806   300A      1.705318  
     301A      1.719828   302A      1.729395   303A      1.745683  
     304A      1.758929   305A      1.761791   306A      1.773655  
     307A      1.779885   308A      1.784001   309A      1.787724  
     310A      1.804259   311A      1.807377   312A      1.811805  
     313A      1.820302   314A      1.829781   315A      1.838916  
     316A      1.843977   317A      1.863474   318A      1.869941  
     319A      1.880581   320A      1.891051   321A      1.893062  
     322A      1.895282   323A      1.906349   324A      1.923600  
     325A      1.924173   326A      1.940545   327A      1.953580  
     328A      1.954602   329A      1.962366   330A      1.964721  
     331A      1.998073   332A      2.022692   333A      2.026705  
     334A      2.031406   335A      2.033577   336A      2.055745  
     337A      2.071335   338A      2.072164   339A      2.076719  
     340A      2.090001   341A      2.098377   342A      2.104927  
     343A      2.111114   344A      2.119443   345A      2.120208  
     346A      2.127275   347A      2.130111   348A      2.135366  
     349A      2.152633   350A      2.159213   351A      2.163475  
     352A      2.169058   353A      2.200635   354A      2.204126  
     355A      2.218519   356A      2.225878   357A      2.241255  
     358A      2.248645   359A      2.264222   360A      2.274417  
     361A      2.279462   362A      2.285239   363A      2.300238  
     364A      2.304712   365A      2.309512   366A      2.321527  
     367A      2.348261   368A      2.353477   369A      2.383585  
     370A      2.395409   371A      2.399650   372A      2.402324  
     373A      2.439610   374A      2.448101   375A      2.484351  
     376A      2.503439   377A      2.518393   378A      2.542965  
     379A      2.557691   380A      2.557870   381A      2.589681  
     382A      2.606213   383A      2.636688   384A      2.669294  
     385A      2.696874   386A      2.722396   387A      2.728189  
     388A      2.744221   389A      2.762288   390A      2.765373  
     391A      2.788277   392A      2.795263   393A      2.816919  
     394A      2.854319   395A      2.860473   396A      2.872919  
     397A      2.916032   398A      2.951494   399A      2.957320  
     400A      3.022701   401A      3.052167   402A      3.076437  
     403A      3.094879   404A      3.115196   405A      3.121886  
     406A      3.190171   407A      3.208154   408A      3.224568  
     409A      3.228172   410A      3.254218   411A      3.290941  
     412A      3.296292   413A      3.331792   414A      3.337515  
     415A      3.372746   416A      3.382079   417A      3.383616  
     418A      3.393562   419A      3.413738   420A      3.428445  
     421A      3.438339   422A      3.459931   423A      3.464694  
     424A      3.479265   425A      3.491201   426A      3.495332  
     427A      3.502617   428A      3.522210   429A      3.535860  
     430A      3.542367   431A      3.546849   432A      3.552061  
     433A      3.553865   434A      3.568440   435A      3.574583  
     436A      3.600308   437A      3.609355   438A      3.632857  
     439A      3.637921   440A      3.641554   441A      3.672307  
     442A      3.678260   443A      3.687140   444A      3.689835  
     445A      3.709640   446A      3.713703   447A      3.720924  
     448A      3.737008   449A      3.768194   450A      3.773525  
     451A      3.779206   452A      3.781671   453A      3.784900  
     454A      3.792844   455A      3.809041   456A      3.825766  
     457A      3.834538   458A      3.851436   459A      3.868294  
     460A      3.875390   461A      3.891030   462A      3.898145  
     463A      3.900410   464A      3.910550   465A      3.923498  
     466A      3.929490   467A      3.933456   468A      3.945772  
     469A      3.960502   470A      3.967229   471A      3.977253  
     472A      3.986497   473A      3.997286   474A      4.014574  
     475A      4.024613   476A      4.036988   477A      4.044565  
     478A      4.050274   479A      4.058989   480A      4.075128  
     481A      4.089746   482A      4.092912   483A      4.125741  
     484A      4.132808   485A      4.139372   486A      4.153044  
     487A      4.164497   488A      4.172669   489A      4.184586  
     490A      4.198539   491A      4.204317   492A      4.218878  
     493A      4.237354   494A      4.253987   495A      4.258467  
     496A      4.279375   497A      4.293479   498A      4.299270  
     499A      4.306404   500A      4.308470   501A      4.333755  
     502A      4.342459   503A      4.354368   504A      4.357798  
     505A      4.369621   506A      4.377558   507A      4.394912  
     508A      4.397634   509A      4.406868   510A      4.412191  
     511A      4.416192   512A      4.433413   513A      4.450612  
     514A      4.477313   515A      4.485961   516A      4.502066  
     517A      4.520352   518A      4.526376   519A      4.547399  
     520A      4.564031   521A      4.580541   522A      4.594031  
     523A      4.598537   524A      4.613020   525A      4.643886  
     526A      4.658474   527A      4.663699   528A      4.692319  
     529A      4.698935   530A      4.709459   531A      4.729474  
     532A      4.748048   533A      4.753311   534A      4.758643  
     535A      4.778695   536A      4.801563   537A      4.806946  
     538A      4.814127   539A      4.825237   540A      4.843281  
     541A      4.844811   542A      4.874122   543A      4.891985  
     544A      4.899346   545A      4.936014   546A      4.941052  
     547A      4.950199   548A      4.966742   549A      4.977381  
     550A      5.000968   551A      5.015031   552A      5.033999  
     553A      5.053427   554A      5.067527   555A      5.072797  
     556A      5.101279   557A      5.117260   558A      5.126439  
     559A      5.133791   560A      5.152323   561A      5.165677  
     562A      5.167678   563A      5.173119   564A      5.191281  
     565A      5.225624   566A      5.229324   567A      5.245919  
     568A      5.254026   569A      5.262447   570A      5.306673  
     571A      5.308066   572A      5.330654   573A      5.346063  
     574A      5.380919   575A      5.387678   576A      5.394021  
     577A      5.407935   578A      5.445448   579A      5.466248  
     580A      5.482941   581A      5.494965   582A      5.524886  
     583A      5.584108   584A      5.584583   585A      5.618005  
     586A      5.629725   587A      5.665758   588A      5.689285  
     589A      5.700881   590A      5.703901   591A      5.734165  
     592A      5.751389   593A      5.778772   594A      5.788192  
     595A      5.849843   596A      5.863066   597A      5.975937  
     598A      6.050793   599A      6.075434   600A      6.096690  
     601A      6.111604   602A      6.155046   603A      6.167016  
     604A      6.181381   605A      6.187437   606A      6.225377  
     607A      6.235523   608A      6.293637   609A      6.338862  
     610A      6.393644   611A      6.432597   612A      6.481653  
     613A      6.542235   614A      6.682843   615A      6.692444  
     616A      6.703308   617A      6.780684   618A      6.833582  
     619A      6.861591   620A      6.896972   621A      6.977259  
     622A      6.996259   623A      7.060122   624A      7.103055  
     625A      7.186141   626A      7.235921   627A      7.240833  
     628A      7.568678   629A      7.606811   630A      7.616961  
     631A      7.795276   632A      7.929536   633A      7.933769  
     634A      8.451217   635A      8.589292   636A     15.901192  
     637A     16.155061   638A     16.435965   639A     18.156875  
     640A     18.854734   641A     19.083334   642A     19.821350  
     643A     20.147549   644A     21.011369  

    Final Occupation by Irrep:
              A 
    DOCC [    33 ]

  @DF-RHF Final Energy:  -383.75245785220136

   => Energetics <=

    Nuclear Repulsion Energy =            429.9835431705968745
    One-Electron Energy =               -1372.9510268005581111
    Two-Electron Energy =                 559.2150257777598199
    Total Energy =                       -383.7524578522013599

Computation Completed

*** tstop() called on c404-052.stampede2.tacc.utexas.edu at Sun Feb 28 20:58:06 2021
Module time:
	user time   =     596.27 seconds =       9.94 minutes
	system time =      40.02 seconds =       0.67 minutes
	total time  =         34 seconds =       0.57 minutes
Total time:
	user time   =     596.27 seconds =       9.94 minutes
	system time =      40.02 seconds =       0.67 minutes
	total time  =         34 seconds =       0.57 minutes
   => Loading Basis Set <=

    Name: (AUG-CC-PVTZ AUX)
    Role: RIFIT
    Keyword: DF_BASIS_MP2
    atoms 1     entry O          line   264 file /home1/07844/xy3866/miniconda3/envs/p4env/share/psi4/basis/aug-cc-pvtz-ri.gbs 
    atoms 2-9   entry C          line   148 file /home1/07844/xy3866/miniconda3/envs/p4env/share/psi4/basis/aug-cc-pvtz-ri.gbs 
    atoms 10-19 entry H          line    30 file /home1/07844/xy3866/miniconda3/envs/p4env/share/psi4/basis/aug-cc-pvtz-ri.gbs 


*** tstart() called on c404-052.stampede2.tacc.utexas.edu
*** at Sun Feb 28 20:58:07 2021


  //>>>>>>>>>>>>>>>>>>>>>>>>>>>>>>>>>>>//
  //               DFMP2               //
  //<<<<<<<<<<<<<<<<<<<<<<<<<<<<<<<<<<<//

	 --------------------------------------------------------
	                          DF-MP2                         
	      2nd-Order Density-Fitted Moller-Plesset Theory     
	              RMP2 Wavefunction,  32 Threads             
	                                                         
	        Rob Parrish, Justin Turney, Andy Simmonett,      
	           Ed Hohenstein, and C. David Sherrill          
	 --------------------------------------------------------

   => Auxiliary Basis Set <=

  Basis Set: (AUG-CC-PVTZ AUX)
    Blend: AUG-CC-PVTZ-RI
    Number of shells: 392
    Number of basis functions: 1414
    Number of Cartesian functions: 1774
    Spherical Harmonics?: true
    Max angular momentum: 4

	 --------------------------------------------------------
	                 NBF =   644, NAUX =  1414
	 --------------------------------------------------------
	   CLASS    FOCC     OCC    AOCC    AVIR     VIR    FVIR
	   PAIRS       0      33      33     611     611       0
	 --------------------------------------------------------

  DFHelper Memory: AOs need 4.305 GiB; user supplied 22.352 GiB. Using in-core AOs.


         ------------------------------------------------------------
                                     CPHF                           
                                  Rob Parrish                       
         ------------------------------------------------------------

  ==> Geometry <==

    Molecular point group: c1
    Full point group: C1

    Geometry (in Angstrom), charge = 0, multiplicity = 1:

       Center              X                  Y                   Z               Mass       
    ------------   -----------------  -----------------  -----------------  -----------------
         O            1.777703655082     0.313644247924     0.000183493876    15.994914619570
         C           -0.464675344918     0.981572247924     0.000153493876    12.000000000000
         C            0.460979655082    -0.080246752076     0.000169493876    12.000000000000
         C           -1.823947344918     0.669145247924     0.000147493876    12.000000000000
         C            0.032837655082    -1.410648752076     0.000171493876    12.000000000000
         C            0.035555655082     2.398819247924     0.000157493876    12.000000000000
         C           -2.269621344918    -0.656552752076     0.000151493876    12.000000000000
         C           -1.338128344918    -1.690823752076     0.000163493876    12.000000000000
         C            2.758360655082    -0.718961752076     0.000183493876    12.000000000000
         H           -2.547369344918     1.482922247924     0.000135493876     1.007825032230
         H            0.743213655082    -2.230497752076     0.000181493876     1.007825032230
         H           -0.802991344918     3.100256247924     0.000062493876     1.007825032230
         H            0.656785655082     2.595415247924     0.879127493876     1.007825032230
         H            0.656944655082     2.595362247924    -0.878710506124     1.007825032230
         H           -3.334279344918    -0.875278752076     0.000144493876     1.007825032230
         H           -1.668358344918    -2.726978752076     0.000165493876     1.007825032230
         H            2.746700855082    -1.322063652076    -0.914291106124     1.007825032230
         H            2.676970655082    -1.346235752076     0.894630493876     1.007825032230
         H            3.719550655082    -0.205601752076     0.000187493876     1.007825032230

  Nuclear repulsion =  429.983543170596874
  Reference energy  = -383.752457852201360

  ==> Basis Set <==

  Basis Set: AUG-CC-PVTZ
    Blend: AUG-CC-PVTZ
    Number of shells: 216
    Number of basis functions: 644
    Number of Cartesian functions: 745
    Spherical Harmonics?: true
    Max angular momentum: 3

  ==> CGRSolver (by Rob Parrish) <==

   Number of roots    =         1
   Preconditioning    =    JACOBI
   Convergence cutoff =     1E-06
   Maximum iterations =       100

  ==> CPHFRHamiltonian (by Rob Parrish) <== 

  ==> MemDFJK: Density-Fitted J/K Matrices <==

    J tasked:                   Yes
    K tasked:                   Yes
    wK tasked:                   No
    OpenMP threads:              32
    Memory [MiB]:             22888
    Algorithm:                 Core
    Schwarz Cutoff:           1E-12
    Mask sparsity (%):       4.7645
    Fitting Condition:        1E-10

   => Auxiliary Basis Set <=

  Basis Set: (AUG-CC-PVTZ AUX)
    Blend: AUG-CC-PVTZ-JKFIT
    Number of shells: 410
    Number of basis functions: 1396
    Number of Cartesian functions: 1729
    Spherical Harmonics?: true
    Max angular momentum: 4

  ==> CPHF Iterations <==

  => Iterations <=

             Iter  Converged  Remaining    Residual
  CGR           1          0          1   8.935E-02
  CGR           2          0          1   2.350E-02
  CGR           3          0          1   1.060E-02
  CGR           4          0          1   4.510E-03
  CGR           5          0          1   2.015E-03
  CGR           6          0          1   9.762E-04
  CGR           7          0          1   3.459E-04
  CGR           8          0          1   1.179E-04
  CGR           9          0          1   3.621E-05
  CGR          10          0          1   1.149E-05
  CGR          11          0          1   5.199E-06
  CGR          12          0          1   2.562E-06
  CGR          13          0          1   1.057E-06
  CGR          14          1          0   3.747E-07

    CGRSolver converged.

	-----------------------------------------------------------
	 ==================> DF-MP2 Energies <==================== 
	-----------------------------------------------------------
	 Reference Energy          =    -383.7524578522013599 [Eh]
	 Singles Energy            =      -0.0000000000000000 [Eh]
	 Same-Spin Energy          =      -0.4108471202938851 [Eh]
	 Opposite-Spin Energy      =      -1.3181670995936734 [Eh]
	 Correlation Energy        =      -1.7290142198875587 [Eh]
	 Total Energy              =    -385.4814720720889341 [Eh]
	-----------------------------------------------------------
	 ================> DF-SCS-MP2 Energies <================== 
	-----------------------------------------------------------
	 SCS Same-Spin Scale       =       0.3333333333333333 [-]
	 SCS Opposite-Spin Scale   =       1.2000000000000000 [-]
	 SCS Same-Spin Energy      =      -0.1369490400979617 [Eh]
	 SCS Opposite-Spin Energy  =      -1.5818005195124081 [Eh]
	 SCS Correlation Energy    =      -1.7187495596103697 [Eh]
	 SCS Total Energy          =    -385.4712074118117471 [Eh]
	-----------------------------------------------------------



Properties will be evaluated at   0.000000,   0.000000,  -0.000000 [a0]

Properties computed using the MP2 density matrix

  Nuclear Dipole Moment: [e a0]
     X:     2.6777      Y:     1.0021      Z:    -0.0172

  Electronic Dipole Moment: [e a0]
     X:    -2.2856      Y:    -1.2922      Z:     0.0109

  Dipole Moment: [e a0]
     X:     0.3921      Y:    -0.2901      Z:    -0.0063     Total:     0.4878

  Dipole Moment: [D]
     X:     0.9967      Y:    -0.7373      Z:    -0.0160     Total:     1.2399


*** tstop() called on c404-052.stampede2.tacc.utexas.edu at Sun Feb 28 21:01:17 2021
Module time:
	user time   =    1710.47 seconds =      28.51 minutes
	system time =      60.44 seconds =       1.01 minutes
	total time  =        190 seconds =       3.17 minutes
Total time:
	user time   =    2307.69 seconds =      38.46 minutes
	system time =     100.47 seconds =       1.67 minutes
	total time  =        225 seconds =       3.75 minutes

    Psi4 stopped on: Sunday, 28 February 2021 09:01PM
    Psi4 wall time for execution: 0:03:46.40

*** Psi4 exiting successfully. Buy a developer a beer!
