140924                                                                  
Freq      RMP2-FC                                                     Gen                 
Number of atoms                            I               18
Info1-9                                    I   N=           9
         134         133        1002           0           0         100
           6           2           1
Charge                                     I                0
Multiplicity                               I                1
Number of electrons                        I               82
Number of alpha electrons                  I               41
Number of beta electrons                   I               41
Number of basis functions                  I              197
Number of independent functions            I              197
Number of point charges in /Mol/           I                0
Number of translation vectors              I                0
Atomic numbers                             I   N=          18
          53           6           6           6           6           6
           6           6           6           1           1           1
           1           1           1           1           1           1
Nuclear charges                            R   N=          18
  2.50000000E+01  6.00000000E+00  6.00000000E+00  6.00000000E+00  6.00000000E+00
  6.00000000E+00  6.00000000E+00  6.00000000E+00  6.00000000E+00  1.00000000E+00
  1.00000000E+00  1.00000000E+00  1.00000000E+00  1.00000000E+00  1.00000000E+00
  1.00000000E+00  1.00000000E+00  1.00000000E+00
Current cartesian coordinates              R   N=          54
 -3.89167649E+00 -9.39677236E-06  1.67626261E-03  4.03669577E+00 -2.31383586E+00
 -2.60782443E-02  4.03670772E+00  2.31381626E+00 -2.69721276E-02  5.32579119E+00
 -2.61922292E-06 -3.93280366E-02  1.38629826E+00 -2.30292271E+00 -8.61635940E-03
  1.38628825E+00  2.30290849E+00 -9.51262669E-03  9.27377794E-02  4.07034351E-06
  1.58937622E-03  5.46432697E+00 -4.78063952E+00  2.95652624E-02  5.46422958E+00
  4.78070488E+00  2.77228884E-02  7.38496058E+00 -1.54505673E-05 -6.51545257E-02
  3.48279957E-01 -4.07596773E+00 -1.09457344E-02  3.48279523E-01  4.07596095E+00
 -1.25324560E-02  7.28653954E+00 -4.60732746E+00 -9.26146296E-01  4.39411993E+00
 -6.28552545E+00 -8.93980704E-01  5.82901438E+00 -5.37263308E+00  1.97804284E+00
  4.39527850E+00  6.28446936E+00 -8.99110717E-01  5.82615594E+00  5.37504629E+00
  1.97600025E+00  7.28777243E+00  4.60629266E+00 -9.25235376E-01
Force Field                                I                0
Int Atom Types                             I   N=          18
           0           0           0           0           0           0
           0           0           0           0           0           0
           0           0           0           0           0           0
MM charges                                 R   N=          18
  0.00000000E+00  0.00000000E+00  0.00000000E+00  0.00000000E+00  0.00000000E+00
  0.00000000E+00  0.00000000E+00  0.00000000E+00  0.00000000E+00  0.00000000E+00
  0.00000000E+00  0.00000000E+00  0.00000000E+00  0.00000000E+00  0.00000000E+00
  0.00000000E+00  0.00000000E+00  0.00000000E+00
Integer atomic weights                     I   N=          18
         127          12          12          12          12          12
          12          12          12           1           1           1
           1           1           1           1           1           1
Real atomic weights                        R   N=          18
  1.26900400E+02  1.20000000E+01  1.20000000E+01  1.20000000E+01  1.20000000E+01
  1.20000000E+01  1.20000000E+01  1.20000000E+01  1.20000000E+01  1.00782504E+00
  1.00782504E+00  1.00782504E+00  1.00782504E+00  1.00782504E+00  1.00782504E+00
  1.00782504E+00  1.00782504E+00  1.00782504E+00
Atom fragment info                         I   N=          18
           0           0           0           0           0           0
           0           0           0           0           0           0
           0           0           0           0           0           0
Atom residue num                           I   N=          18
           0           0           0           0           0           0
           0           0           0           0           0           0
           0           0           0           0           0           0
Nuclear spins                              I   N=          18
           5           0           0           0           0           0
           0           0           0           1           1           1
           1           1           1           1           1           1
Nuclear ZEff                               R   N=          18
 -5.83000000E+03 -3.60000000E+00 -3.60000000E+00 -3.60000000E+00 -3.60000000E+00
 -3.60000000E+00 -3.60000000E+00 -3.60000000E+00 -3.60000000E+00 -1.00000000E+00
 -1.00000000E+00 -1.00000000E+00 -1.00000000E+00 -1.00000000E+00 -1.00000000E+00
 -1.00000000E+00 -1.00000000E+00 -1.00000000E+00
Nuclear QMom                               R   N=          18
 -7.10000000E+01  0.00000000E+00  0.00000000E+00  0.00000000E+00  0.00000000E+00
  0.00000000E+00  0.00000000E+00  0.00000000E+00  0.00000000E+00  0.00000000E+00
  0.00000000E+00  0.00000000E+00  0.00000000E+00  0.00000000E+00  0.00000000E+00
  0.00000000E+00  0.00000000E+00  0.00000000E+00
Nuclear GFac                               R   N=          18
  2.81328000E+00  0.00000000E+00  0.00000000E+00  0.00000000E+00  0.00000000E+00
  0.00000000E+00  0.00000000E+00  0.00000000E+00  0.00000000E+00  2.79284600E+00
  2.79284600E+00  2.79284600E+00  2.79284600E+00  2.79284600E+00  2.79284600E+00
  2.79284600E+00  2.79284600E+00  2.79284600E+00
MicOpt                                     I   N=          18
          -1          -1          -1          -1          -1          -1
          -1          -1          -1          -1          -1          -1
          -1          -1          -1          -1          -1          -1
Number of contracted shells                I               77
Number of primitive shells                 I              164
Pure/Cartesian d shells                    I                0
Pure/Cartesian f shells                    I                0
Highest angular momentum                   I                2
Largest degree of contraction              I                6
Shell types                                I   N=          77
           0           0           0           0           1           1
           1           1          -2          -2           0          -1
          -1          -1          -2           0          -1          -1
          -1          -2           0          -1          -1          -1
          -2           0          -1          -1          -1          -2
           0          -1          -1          -1          -2           0
          -1          -1          -1          -2           0          -1
          -1          -1          -2           0          -1          -1
          -1          -2           0           0           0           0
           0           0           0           0           0           0
           0           0           0           0           0           0
           0           0           0           0           0           0
           0           0           0           0           0
Number of primitives per shell             I   N=          77
           6           2           1           1           4           1
           1           1           5           1           6           3
           1           1           1           6           3           1
           1           1           6           3           1           1
           1           6           3           1           1           1
           6           3           1           1           1           6
           3           1           1           1           6           3
           1           1           1           6           3           1
           1           1           3           1           1           3
           1           1           3           1           1           3
           1           1           3           1           1           3
           1           1           3           1           1           3
           1           1           3           1           1
Shell to atom map                          I   N=          77
           1           1           1           1           1           1
           1           1           1           1           2           2
           2           2           2           3           3           3
           3           3           4           4           4           4
           4           5           5           5           5           5
           6           6           6           6           6           7
           7           7           7           7           8           8
           8           8           8           9           9           9
           9           9          10          10          10          11
          11          11          12          12          12          13
          13          13          14          14          14          15
          15          15          16          16          16          17
          17          17          18          18          18
Primitive exponents                        R   N=         164
  4.45904892E+02  2.33368424E+01  1.95834461E+01  8.51120892E+00  2.19961619E+00
  1.06689705E+00  1.17205476E+01  1.76259864E+00  2.86974763E-01  1.12276096E-01
  2.04990273E+01  1.05587546E+01  1.50158955E+00  6.45971731E-01  3.02886568E+00
  3.45065918E-01  1.11345138E-01  5.12353549E+01  1.56162395E+01  4.52660021E+00
  2.05298088E+00  8.76402816E-01  3.09000000E-01  4.56324000E+03  6.82024000E+02
  1.54973000E+02  4.44553000E+01  1.30290000E+01  1.82773000E+00  2.09642000E+01
  4.80331000E+00  1.45933000E+00  4.83456000E-01  1.45585000E-01  6.26000000E-01
  4.56324000E+03  6.82024000E+02  1.54973000E+02  4.44553000E+01  1.30290000E+01
  1.82773000E+00  2.09642000E+01  4.80331000E+00  1.45933000E+00  4.83456000E-01
  1.45585000E-01  6.26000000E-01  4.56324000E+03  6.82024000E+02  1.54973000E+02
  4.44553000E+01  1.30290000E+01  1.82773000E+00  2.09642000E+01  4.80331000E+00
  1.45933000E+00  4.83456000E-01  1.45585000E-01  6.26000000E-01  4.56324000E+03
  6.82024000E+02  1.54973000E+02  4.44553000E+01  1.30290000E+01  1.82773000E+00
  2.09642000E+01  4.80331000E+00  1.45933000E+00  4.83456000E-01  1.45585000E-01
  6.26000000E-01  4.56324000E+03  6.82024000E+02  1.54973000E+02  4.44553000E+01
  1.30290000E+01  1.82773000E+00  2.09642000E+01  4.80331000E+00  1.45933000E+00
  4.83456000E-01  1.45585000E-01  6.26000000E-01  4.56324000E+03  6.82024000E+02
  1.54973000E+02  4.44553000E+01  1.30290000E+01  1.82773000E+00  2.09642000E+01
  4.80331000E+00  1.45933000E+00  4.83456000E-01  1.45585000E-01  6.26000000E-01
  4.56324000E+03  6.82024000E+02  1.54973000E+02  4.44553000E+01  1.30290000E+01
  1.82773000E+00  2.09642000E+01  4.80331000E+00  1.45933000E+00  4.83456000E-01
  1.45585000E-01  6.26000000E-01  4.56324000E+03  6.82024000E+02  1.54973000E+02
  4.44553000E+01  1.30290000E+01  1.82773000E+00  2.09642000E+01  4.80331000E+00
  1.45933000E+00  4.83456000E-01  1.45585000E-01  6.26000000E-01  3.38650000E+01
  5.09479000E+00  1.15879000E+00  3.25840000E-01  1.02741000E-01  3.38650000E+01
  5.09479000E+00  1.15879000E+00  3.25840000E-01  1.02741000E-01  3.38650000E+01
  5.09479000E+00  1.15879000E+00  3.25840000E-01  1.02741000E-01  3.38650000E+01
  5.09479000E+00  1.15879000E+00  3.25840000E-01  1.02741000E-01  3.38650000E+01
  5.09479000E+00  1.15879000E+00  3.25840000E-01  1.02741000E-01  3.38650000E+01
  5.09479000E+00  1.15879000E+00  3.25840000E-01  1.02741000E-01  3.38650000E+01
  5.09479000E+00  1.15879000E+00  3.25840000E-01  1.02741000E-01  3.38650000E+01
  5.09479000E+00  1.15879000E+00  3.25840000E-01  1.02741000E-01  3.38650000E+01
  5.09479000E+00  1.15879000E+00  3.25840000E-01  1.02741000E-01
Contraction coefficients                   R   N=         164
  2.20257546E-03 -1.64769178E-01  4.00523643E-01 -8.30344053E-01  9.10349039E-01
  4.63450337E-01 -4.69729845E-02  1.02523810E+00  1.00000000E+00  1.00000000E+00
  8.45621086E-02 -4.20516792E-01  9.15704773E-01  1.83978523E-01  1.00000000E+00
  1.00000000E+00  1.00000000E+00  4.10151694E-03 -5.16112495E-03  2.96351970E-01
  5.19951965E-01  3.17507168E-01  1.00000000E+00  1.96665025E-03  1.52306019E-02
  7.61269097E-02  2.60801033E-01  6.16462078E-01  2.21006028E-01  1.14660081E-01
  9.19999648E-01 -3.03068213E-03  1.00000000E+00  1.00000000E+00  1.00000000E+00
  1.96665025E-03  1.52306019E-02  7.61269097E-02  2.60801033E-01  6.16462078E-01
  2.21006028E-01  1.14660081E-01  9.19999648E-01 -3.03068213E-03  1.00000000E+00
  1.00000000E+00  1.00000000E+00  1.96665025E-03  1.52306019E-02  7.61269097E-02
  2.60801033E-01  6.16462078E-01  2.21006028E-01  1.14660081E-01  9.19999648E-01
 -3.03068213E-03  1.00000000E+00  1.00000000E+00  1.00000000E+00  1.96665025E-03
  1.52306019E-02  7.61269097E-02  2.60801033E-01  6.16462078E-01  2.21006028E-01
  1.14660081E-01  9.19999648E-01 -3.03068213E-03  1.00000000E+00  1.00000000E+00
  1.00000000E+00  1.96665025E-03  1.52306019E-02  7.61269097E-02  2.60801033E-01
  6.16462078E-01  2.21006028E-01  1.14660081E-01  9.19999648E-01 -3.03068213E-03
  1.00000000E+00  1.00000000E+00  1.00000000E+00  1.96665025E-03  1.52306019E-02
  7.61269097E-02  2.60801033E-01  6.16462078E-01  2.21006028E-01  1.14660081E-01
  9.19999648E-01 -3.03068213E-03  1.00000000E+00  1.00000000E+00  1.00000000E+00
  1.96665025E-03  1.52306019E-02  7.61269097E-02  2.60801033E-01  6.16462078E-01
  2.21006028E-01  1.14660081E-01  9.19999648E-01 -3.03068213E-03  1.00000000E+00
  1.00000000E+00  1.00000000E+00  1.96665025E-03  1.52306019E-02  7.61269097E-02
  2.60801033E-01  6.16462078E-01  2.21006028E-01  1.14660081E-01  9.19999648E-01
 -3.03068213E-03  1.00000000E+00  1.00000000E+00  1.00000000E+00  2.54938145E-02
  1.90373109E-01  8.52161486E-01  1.00000000E+00  1.00000000E+00  2.54938145E-02
  1.90373109E-01  8.52161486E-01  1.00000000E+00  1.00000000E+00  2.54938145E-02
  1.90373109E-01  8.52161486E-01  1.00000000E+00  1.00000000E+00  2.54938145E-02
  1.90373109E-01  8.52161486E-01  1.00000000E+00  1.00000000E+00  2.54938145E-02
  1.90373109E-01  8.52161486E-01  1.00000000E+00  1.00000000E+00  2.54938145E-02
  1.90373109E-01  8.52161486E-01  1.00000000E+00  1.00000000E+00  2.54938145E-02
  1.90373109E-01  8.52161486E-01  1.00000000E+00  1.00000000E+00  2.54938145E-02
  1.90373109E-01  8.52161486E-01  1.00000000E+00  1.00000000E+00  2.54938145E-02
  1.90373109E-01  8.52161486E-01  1.00000000E+00  1.00000000E+00
P(S=P) Contraction coefficients            R   N=         164
  0.00000000E+00  0.00000000E+00  0.00000000E+00  0.00000000E+00  0.00000000E+00
  0.00000000E+00  0.00000000E+00  0.00000000E+00  0.00000000E+00  0.00000000E+00
  0.00000000E+00  0.00000000E+00  0.00000000E+00  0.00000000E+00  0.00000000E+00
  0.00000000E+00  0.00000000E+00  0.00000000E+00  0.00000000E+00  0.00000000E+00
  0.00000000E+00  0.00000000E+00  0.00000000E+00  0.00000000E+00  0.00000000E+00
  0.00000000E+00  0.00000000E+00  0.00000000E+00  0.00000000E+00  4.02486927E-02
  2.37593957E-01  8.15853851E-01  1.00000000E+00  1.00000000E+00  0.00000000E+00
  0.00000000E+00  0.00000000E+00  0.00000000E+00  0.00000000E+00  0.00000000E+00
  0.00000000E+00  4.02486927E-02  2.37593957E-01  8.15853851E-01  1.00000000E+00
  1.00000000E+00  0.00000000E+00  0.00000000E+00  0.00000000E+00  0.00000000E+00
  0.00000000E+00  0.00000000E+00  0.00000000E+00  4.02486927E-02  2.37593957E-01
  8.15853851E-01  1.00000000E+00  1.00000000E+00  0.00000000E+00  0.00000000E+00
  0.00000000E+00  0.00000000E+00  0.00000000E+00  0.00000000E+00  0.00000000E+00
  4.02486927E-02  2.37593957E-01  8.15853851E-01  1.00000000E+00  1.00000000E+00
  0.00000000E+00  0.00000000E+00  0.00000000E+00  0.00000000E+00  0.00000000E+00
  0.00000000E+00  0.00000000E+00  4.02486927E-02  2.37593957E-01  8.15853851E-01
  1.00000000E+00  1.00000000E+00  0.00000000E+00  0.00000000E+00  0.00000000E+00
  0.00000000E+00  0.00000000E+00  0.00000000E+00  0.00000000E+00  4.02486927E-02
  2.37593957E-01  8.15853851E-01  1.00000000E+00  1.00000000E+00  0.00000000E+00
  0.00000000E+00  0.00000000E+00  0.00000000E+00  0.00000000E+00  0.00000000E+00
  0.00000000E+00  4.02486927E-02  2.37593957E-01  8.15853851E-01  1.00000000E+00
  1.00000000E+00  0.00000000E+00  0.00000000E+00  0.00000000E+00  0.00000000E+00
  0.00000000E+00  0.00000000E+00  0.00000000E+00  4.02486927E-02  2.37593957E-01
  8.15853851E-01  1.00000000E+00  1.00000000E+00  0.00000000E+00  0.00000000E+00
  0.00000000E+00  0.00000000E+00  0.00000000E+00  0.00000000E+00  0.00000000E+00
  0.00000000E+00  0.00000000E+00  0.00000000E+00  0.00000000E+00  0.00000000E+00
  0.00000000E+00  0.00000000E+00  0.00000000E+00  0.00000000E+00  0.00000000E+00
  0.00000000E+00  0.00000000E+00  0.00000000E+00  0.00000000E+00  0.00000000E+00
  0.00000000E+00  0.00000000E+00  0.00000000E+00  0.00000000E+00  0.00000000E+00
  0.00000000E+00  0.00000000E+00  0.00000000E+00  0.00000000E+00  0.00000000E+00
  0.00000000E+00  0.00000000E+00  0.00000000E+00  0.00000000E+00  0.00000000E+00
  0.00000000E+00  0.00000000E+00  0.00000000E+00  0.00000000E+00  0.00000000E+00
  0.00000000E+00  0.00000000E+00  0.00000000E+00  0.00000000E+00
Coordinates of each shell                  R   N=         231
 -3.89167649E+00 -9.39677236E-06  1.67626261E-03 -3.89167649E+00 -9.39677236E-06
  1.67626261E-03 -3.89167649E+00 -9.39677236E-06  1.67626261E-03 -3.89167649E+00
 -9.39677236E-06  1.67626261E-03 -3.89167649E+00 -9.39677236E-06  1.67626261E-03
 -3.89167649E+00 -9.39677236E-06  1.67626261E-03 -3.89167649E+00 -9.39677236E-06
  1.67626261E-03 -3.89167649E+00 -9.39677236E-06  1.67626261E-03 -3.89167649E+00
 -9.39677236E-06  1.67626261E-03 -3.89167649E+00 -9.39677236E-06  1.67626261E-03
  4.03669577E+00 -2.31383586E+00 -2.60782443E-02  4.03669577E+00 -2.31383586E+00
 -2.60782443E-02  4.03669577E+00 -2.31383586E+00 -2.60782443E-02  4.03669577E+00
 -2.31383586E+00 -2.60782443E-02  4.03669577E+00 -2.31383586E+00 -2.60782443E-02
  4.03670772E+00  2.31381626E+00 -2.69721276E-02  4.03670772E+00  2.31381626E+00
 -2.69721276E-02  4.03670772E+00  2.31381626E+00 -2.69721276E-02  4.03670772E+00
  2.31381626E+00 -2.69721276E-02  4.03670772E+00  2.31381626E+00 -2.69721276E-02
  5.32579119E+00 -2.61922292E-06 -3.93280366E-02  5.32579119E+00 -2.61922292E-06
 -3.93280366E-02  5.32579119E+00 -2.61922292E-06 -3.93280366E-02  5.32579119E+00
 -2.61922292E-06 -3.93280366E-02  5.32579119E+00 -2.61922292E-06 -3.93280366E-02
  1.38629826E+00 -2.30292271E+00 -8.61635940E-03  1.38629826E+00 -2.30292271E+00
 -8.61635940E-03  1.38629826E+00 -2.30292271E+00 -8.61635940E-03  1.38629826E+00
 -2.30292271E+00 -8.61635940E-03  1.38629826E+00 -2.30292271E+00 -8.61635940E-03
  1.38628825E+00  2.30290849E+00 -9.51262669E-03  1.38628825E+00  2.30290849E+00
 -9.51262669E-03  1.38628825E+00  2.30290849E+00 -9.51262669E-03  1.38628825E+00
  2.30290849E+00 -9.51262669E-03  1.38628825E+00  2.30290849E+00 -9.51262669E-03
  9.27377794E-02  4.07034351E-06  1.58937622E-03  9.27377794E-02  4.07034351E-06
  1.58937622E-03  9.27377794E-02  4.07034351E-06  1.58937622E-03  9.27377794E-02
  4.07034351E-06  1.58937622E-03  9.27377794E-02  4.07034351E-06  1.58937622E-03
  5.46432697E+00 -4.78063952E+00  2.95652624E-02  5.46432697E+00 -4.78063952E+00
  2.95652624E-02  5.46432697E+00 -4.78063952E+00  2.95652624E-02  5.46432697E+00
 -4.78063952E+00  2.95652624E-02  5.46432697E+00 -4.78063952E+00  2.95652624E-02
  5.46422958E+00  4.78070488E+00  2.77228884E-02  5.46422958E+00  4.78070488E+00
  2.77228884E-02  5.46422958E+00  4.78070488E+00  2.77228884E-02  5.46422958E+00
  4.78070488E+00  2.77228884E-02  5.46422958E+00  4.78070488E+00  2.77228884E-02
  7.38496058E+00 -1.54505673E-05 -6.51545257E-02  7.38496058E+00 -1.54505673E-05
 -6.51545257E-02  7.38496058E+00 -1.54505673E-05 -6.51545257E-02  3.48279957E-01
 -4.07596773E+00 -1.09457344E-02  3.48279957E-01 -4.07596773E+00 -1.09457344E-02
  3.48279957E-01 -4.07596773E+00 -1.09457344E-02  3.48279523E-01  4.07596095E+00
 -1.25324560E-02  3.48279523E-01  4.07596095E+00 -1.25324560E-02  3.48279523E-01
  4.07596095E+00 -1.25324560E-02  7.28653954E+00 -4.60732746E+00 -9.26146296E-01
  7.28653954E+00 -4.60732746E+00 -9.26146296E-01  7.28653954E+00 -4.60732746E+00
 -9.26146296E-01  4.39411993E+00 -6.28552545E+00 -8.93980704E-01  4.39411993E+00
 -6.28552545E+00 -8.93980704E-01  4.39411993E+00 -6.28552545E+00 -8.93980704E-01
  5.82901438E+00 -5.37263308E+00  1.97804284E+00  5.82901438E+00 -5.37263308E+00
  1.97804284E+00  5.82901438E+00 -5.37263308E+00  1.97804284E+00  4.39527850E+00
  6.28446936E+00 -8.99110717E-01  4.39527850E+00  6.28446936E+00 -8.99110717E-01
  4.39527850E+00  6.28446936E+00 -8.99110717E-01  5.82615594E+00  5.37504629E+00
  1.97600025E+00  5.82615594E+00  5.37504629E+00  1.97600025E+00  5.82615594E+00
  5.37504629E+00  1.97600025E+00  7.28777243E+00  4.60629266E+00 -9.25235376E-01
  7.28777243E+00  4.60629266E+00 -9.25235376E-01  7.28777243E+00  4.60629266E+00
 -9.25235376E-01
Constraint Structure                       R   N=          54
 -3.89167649E+00 -9.39677236E-06  1.67626261E-03  4.03669577E+00 -2.31383586E+00
 -2.60782443E-02  4.03670772E+00  2.31381626E+00 -2.69721276E-02  5.32579119E+00
 -2.61922292E-06 -3.93280366E-02  1.38629826E+00 -2.30292271E+00 -8.61635940E-03
  1.38628825E+00  2.30290849E+00 -9.51262669E-03  9.27377794E-02  4.07034351E-06
  1.58937622E-03  5.46432697E+00 -4.78063952E+00  2.95652624E-02  5.46422958E+00
  4.78070488E+00  2.77228884E-02  7.38496058E+00 -1.54505673E-05 -6.51545257E-02
  3.48279957E-01 -4.07596773E+00 -1.09457344E-02  3.48279523E-01  4.07596095E+00
 -1.25324560E-02  7.28653954E+00 -4.60732746E+00 -9.26146296E-01  4.39411993E+00
 -6.28552545E+00 -8.93980704E-01  5.82901438E+00 -5.37263308E+00  1.97804284E+00
  4.39527850E+00  6.28446936E+00 -8.99110717E-01  5.82615594E+00  5.37504629E+00
  1.97600025E+00  7.28777243E+00  4.60629266E+00 -9.25235376E-01
Num ILSW                                   I              100
ILSW                                       I   N=         100
           0           0           0           1           2           0
           0           0           0           0           0          -1
           0           0           0           0           0           0
           0           0           0           0           1           0
           1           0           0           0           0           0
           0           0      100000           0          -1           0
           0           0           0           0           0           0
           0           0           0           1           1           0
           0           0           1           0           0           0
           0           0           4          40           0           0
           0           0           0           0           0           0
           0           0           0           0           0           0
           0           0           0           0           0           0
           0           0           0           0           0           0
           0           0           0           0           0           0
           0           0           0           0           0           0
           0           0           0           0
Num RLSW                                   I               40
RLSW                                       R   N=          40
  1.00000000E+00  1.00000000E+00  1.00000000E+00  1.00000000E+00  1.00000000E+00
  0.00000000E+00  0.00000000E+00  1.00000000E+00  0.00000000E+00  0.00000000E+00
  0.00000000E+00  0.00000000E+00  1.00000000E+00  0.00000000E+00  0.00000000E+00
  0.00000000E+00  0.00000000E+00  1.00000000E+00  0.00000000E+00  0.00000000E+00
  0.00000000E+00  0.00000000E+00  1.00000000E+00  0.00000000E+00  0.00000000E+00
  0.00000000E+00  0.00000000E+00  1.00000000E+00  0.00000000E+00  0.00000000E+00
  0.00000000E+00  0.00000000E+00  0.00000000E+00  0.00000000E+00  0.00000000E+00
  0.00000000E+00  0.00000000E+00  0.00000000E+00  1.00000000E+00  1.00000000E+00
ECP-MxAtEC                                 I           250000
ECP-MaxLECP                                I               10
ECP-MaxAtL                                 I          2250000
ECP-MxTECP                                 I         11250000
ECP-LenNCZ                                 I               29
ECP-KFirst                                 I   N=         180
           1           0           0           0           0           0
           0           0           0           0           0           0
           0           0           0           0           0           0
           5           0           0           0           0           0
           0           0           0           0           0           0
           0           0           0           0           0           0
          12           0           0           0           0           0
           0           0           0           0           0           0
           0           0           0           0           0           0
          20           0           0           0           0           0
           0           0           0           0           0           0
           0           0           0           0           0           0
           0           0           0           0           0           0
           0           0           0           0           0           0
           0           0           0           0           0           0
           0           0           0           0           0           0
           0           0           0           0           0           0
           0           0           0           0           0           0
           0           0           0           0           0           0
           0           0           0           0           0           0
           0           0           0           0           0           0
           0           0           0           0           0           0
           0           0           0           0           0           0
           0           0           0           0           0           0
           0           0           0           0           0           0
           0           0           0           0           0           0
           0           0           0           0           0           0
           0           0           0           0           0           0
           0           0           0           0           0           0
           0           0           0           0           0           0
ECP-KLast                                  I   N=         180
           4           0           0           0           0           0
           0           0           0           0           0           0
           0           0           0           0           0           0
          11           0           0           0           0           0
           0           0           0           0           0           0
           0           0           0           0           0           0
          19           0           0           0           0           0
           0           0           0           0           0           0
           0           0           0           0           0           0
          29           0           0           0           0           0
           0           0           0           0           0           0
           0           0           0           0           0           0
           0           0           0           0           0           0
           0           0           0           0           0           0
           0           0           0           0           0           0
           0           0           0           0           0           0
           0           0           0           0           0           0
           0           0           0           0           0           0
           0           0           0           0           0           0
           0           0           0           0           0           0
           0           0           0           0           0           0
           0           0           0           0           0           0
           0           0           0           0           0           0
           0           0           0           0           0           0
           0           0           0           0           0           0
           0           0           0           0           0           0
           0           0           0           0           0           0
           0           0           0           0           0           0
           0           0           0           0           0           0
           0           0           0           0           0           0
ECP-LMax                                   I   N=          18
           3           0           0           0           0           0
           0           0           0           0           0           0
           0           0           0           0           0           0
ECP-LPSkip                                 I   N=          18
           0           1           1           1           1           1
           1           1           1           1           1           1
           1           1           1           1           1           1
ECP-RNFroz                                 R   N=          18
  2.80000000E+01  0.00000000E+00  0.00000000E+00  0.00000000E+00  0.00000000E+00