
    -----------------------------------------------------------------------
          Psi4: An Open-Source Ab Initio Electronic Structure Package
                               Psi4 1.3.2 release

                         Git: Rev {HEAD} ecbda83 


    R. M. Parrish, L. A. Burns, D. G. A. Smith, A. C. Simmonett,
    A. E. DePrince III, E. G. Hohenstein, U. Bozkaya, A. Yu. Sokolov,
    R. Di Remigio, R. M. Richard, J. F. Gonthier, A. M. James,
    H. R. McAlexander, A. Kumar, M. Saitow, X. Wang, B. P. Pritchard,
    P. Verma, H. F. Schaefer III, K. Patkowski, R. A. King, E. F. Valeev,
    F. A. Evangelista, J. M. Turney, T. D. Crawford, and C. D. Sherrill,
    J. Chem. Theory Comput. 13(7) pp 3185--3197 (2017).
    (doi: 10.1021/acs.jctc.7b00174)


                         Additional Contributions by
    P. Kraus, H. Kruse, M. H. Lechner, M. C. Schieber, R. A. Shaw,
    A. Alenaizan, R. Galvelis, Z. L. Glick, S. Lehtola, and J. P. Misiewicz

    -----------------------------------------------------------------------


    Psi4 started on: Thursday, 04 February 2021 03:53AM

    Process ID: 79261
    Host:       node35.bme.utexas.edu
    PSIDATADIR: /home/xy3866/psi4conda/share/psi4
    Memory:     500.0 MiB
    Threads:    8
    
  ==> Input File <==

--------------------------------------------------------------------------
#psi4
#
memory 32 gb

molecule  {
0 1
  O        1.2124500     1.3700530     0.1515380
  N        0.1246727    -0.6542312     0.0954411
  C       -1.1170200    -0.1018270     0.5422150
  C       -1.8677030     0.7309230    -0.4520330
  C       -2.3504550    -0.6533510    -0.1177550
  C        1.2591160     0.1464980     0.0338830
  C        2.5505780    -0.6050550    -0.2234900
  H       -1.1925980     0.1934600     1.5874600
  H       -1.3884710     0.8830910    -1.4118110
  H       -2.4217970     1.5840980    -0.0766820
  H       -3.2439410    -0.7654290     0.4871790
  H       -2.2070070    -1.4283180    -0.8637610
  H        0.2699340    -1.6514040     0.2090110
  H        2.3939820    -1.5096060    -0.8170840
  H        3.2379790     0.0608480    -0.7453890
  H        3.0059730    -0.8892320     0.7302270
units angstrom
no_reorient  #important for SAPT in psi4, default
symmetry c1  #important for SAPT in psi4, default
}

set PROPERTIES_ORIGIN ["COM"]
properties('MP2/aug-cc-pvtz', properties = ['dipole'])
--------------------------------------------------------------------------

  Memory set to  29.802 GiB by Python driver.
    SCF Algorithm Type (re)set to DF.

*** tstart() called on node35.bme.utexas.edu
*** at Thu Feb  4 03:53:30 2021

   => Loading Basis Set <=

    Name: AUG-CC-PVTZ
    Role: ORBITAL
    Keyword: BASIS
    atoms 1    entry O          line   327 file /home/xy3866/psi4conda/share/psi4/basis/aug-cc-pvtz.gbs 
    atoms 2    entry N          line   281 file /home/xy3866/psi4conda/share/psi4/basis/aug-cc-pvtz.gbs 
    atoms 3-7  entry C          line   235 file /home/xy3866/psi4conda/share/psi4/basis/aug-cc-pvtz.gbs 
    atoms 8-16 entry H          line    36 file /home/xy3866/psi4conda/share/psi4/basis/aug-cc-pvtz.gbs 


         ---------------------------------------------------------
                                   SCF
               by Justin Turney, Rob Parrish, Andy Simmonett
                          and Daniel G. A. Smith
                              RHF Reference
                        8 Threads,  30517 MiB Core
         ---------------------------------------------------------

  ==> Geometry <==

    Molecular point group: c1
    Full point group: C1

    Geometry (in Angstrom), charge = 0, multiplicity = 1:

       Center              X                  Y                   Z               Mass       
    ------------   -----------------  -----------------  -----------------  -----------------
         O            1.199580265366     1.335644119293     0.149052374482    15.994914619570
         N            0.111802965366    -0.688640080707     0.092955474482    14.003074004430
         C           -1.129889734634    -0.136235880707     0.539729374482    12.000000000000
         C           -1.880572734634     0.696514119293    -0.454518625518    12.000000000000
         C           -2.363324734634    -0.687759880707    -0.120240625518    12.000000000000
         C            1.246246265366     0.112089119293     0.031397374482    12.000000000000
         C            2.537708265366    -0.639463880707    -0.225975625518    12.000000000000
         H           -1.205467734634     0.159051119293     1.584974374482     1.007825032230
         H           -1.401340734634     0.848682119293    -1.414296625518     1.007825032230
         H           -2.434666734634     1.549689119293    -0.079167625518     1.007825032230
         H           -3.256810734634    -0.799837880707     0.484693374482     1.007825032230
         H           -2.219876734634    -1.462726880707    -0.866246625518     1.007825032230
         H            0.257064265366    -1.685812880707     0.206525374482     1.007825032230
         H            2.381112265366    -1.544014880707    -0.819569625518     1.007825032230
         H            3.225109265366     0.026439119293    -0.747874625518     1.007825032230
         H            2.993103265366    -0.923640880707     0.727741374482     1.007825032230

  Running in c1 symmetry.

  Rotational constants: A =      0.21477  B =      0.05455  C =      0.04705 [cm^-1]
  Rotational constants: A =   6438.77016  B =   1635.33471  C =   1410.41335 [MHz]
  Nuclear repulsion =  301.815418716977888

  Charge       = 0
  Multiplicity = 1
  Electrons    = 54
  Nalpha       = 27
  Nbeta        = 27

  ==> Algorithm <==

  SCF Algorithm Type is DF.
  DIIS enabled.
  MOM disabled.
  Fractional occupation disabled.
  Guess Type is SAD.
  Energy threshold   = 1.00e-10
  Density threshold  = 1.00e-10
  Integral threshold = 0.00e+00

  ==> Primary Basis <==

  Basis Set: AUG-CC-PVTZ
    Blend: AUG-CC-PVTZ
    Number of shells: 179
    Number of basis function: 529
    Number of Cartesian functions: 610
    Spherical Harmonics?: true
    Max angular momentum: 3

   => Loading Basis Set <=

    Name: (AUG-CC-PVTZ AUX)
    Role: JKFIT
    Keyword: DF_BASIS_SCF
    atoms 1    entry O          line   286 file /home/xy3866/psi4conda/share/psi4/basis/aug-cc-pvtz-jkfit.gbs 
    atoms 2    entry N          line   224 file /home/xy3866/psi4conda/share/psi4/basis/aug-cc-pvtz-jkfit.gbs 
    atoms 3-7  entry C          line   162 file /home/xy3866/psi4conda/share/psi4/basis/aug-cc-pvtz-jkfit.gbs 
    atoms 8-16 entry H          line    70 file /home/xy3866/psi4conda/share/psi4/basis/aug-cc-pvtz-jkfit.gbs 

  ==> Pre-Iterations <==

   -------------------------------------------------------
    Irrep   Nso     Nmo     Nalpha   Nbeta   Ndocc  Nsocc
   -------------------------------------------------------
     A        529     529       0       0       0       0
   -------------------------------------------------------
    Total     529     529      27      27      27       0
   -------------------------------------------------------

  ==> Integral Setup <==

  DFHelper Memory: AOs need 2.373 GiB; user supplied 22.352 GiB. Using in-core AOs.

  ==> MemDFJK: Density-Fitted J/K Matrices <==

    J tasked:                   Yes
    K tasked:                   Yes
    wK tasked:                   No
    OpenMP threads:               8
    Memory [MiB]:             22888
    Algorithm:                 Disk
    Schwarz Cutoff:           1E-12
    Mask sparsity (%):       3.8007
    Fitting Condition:        1E-10

   => Auxiliary Basis Set <=

  Basis Set: (AUG-CC-PVTZ AUX)
    Blend: AUG-CC-PVTZ-JKFIT
    Number of shells: 336
    Number of basis function: 1142
    Number of Cartesian functions: 1412
    Spherical Harmonics?: true
    Max angular momentum: 4

  Minimum eigenvalue in the overlap matrix is 5.0054734989E-06.
  Using Symmetric Orthogonalization.

  SCF Guess: Superposition of Atomic Densities via on-the-fly atomic UHF.

  ==> Iterations <==

                           Total Energy        Delta E     RMS |[F,P]|

   @DF-RHF iter SAD:  -323.33521996317666   -3.23335e+02   0.00000e+00 
   @DF-RHF iter   1:  -323.72471046944111   -3.89491e-01   1.34504e-03 DIIS
   @DF-RHF iter   2:  -323.92644895090763   -2.01738e-01   7.64893e-04 DIIS
   @DF-RHF iter   3:  -323.98764522800934   -6.11963e-02   1.54910e-04 DIIS
   @DF-RHF iter   4:  -323.99142413302656   -3.77891e-03   6.58833e-05 DIIS
   @DF-RHF iter   5:  -323.99214990720765   -7.25774e-04   1.23721e-05 DIIS
   @DF-RHF iter   6:  -323.99219780730670   -4.79001e-05   6.10933e-06 DIIS
   @DF-RHF iter   7:  -323.99220756773559   -9.76043e-06   2.05149e-06 DIIS
   @DF-RHF iter   8:  -323.99220931560285   -1.74787e-06   8.41837e-07 DIIS
   @DF-RHF iter   9:  -323.99220959801846   -2.82416e-07   2.77087e-07 DIIS
   @DF-RHF iter  10:  -323.99220962988556   -3.18671e-08   8.07689e-08 DIIS
   @DF-RHF iter  11:  -323.99220963243300   -2.54744e-09   2.13543e-08 DIIS
   @DF-RHF iter  12:  -323.99220963256948   -1.36481e-10   6.88396e-09 DIIS
   @DF-RHF iter  13:  -323.99220963258591   -1.64277e-11   2.32681e-09 DIIS
   @DF-RHF iter  14:  -323.99220963258733   -1.42109e-12   1.01098e-09 DIIS
   @DF-RHF iter  15:  -323.99220963258745   -1.13687e-13   3.61936e-10 DIIS
   @DF-RHF iter  16:  -323.99220963258864   -1.19371e-12   1.46998e-10 DIIS
   @DF-RHF iter  17:  -323.99220963258836    2.84217e-13   5.72897e-11 DIIS
  Energy and wave function converged.


  ==> Post-Iterations <==

    Orbital Energies [Eh]
    ---------------------

    Doubly Occupied:                                                      

       1A    -20.519673     2A    -15.587143     3A    -11.352601  
       4A    -11.267651     5A    -11.239146     6A    -11.231446  
       7A    -11.225125     8A     -1.372080     9A     -1.238977  
      10A     -1.121888    11A     -1.002728    12A     -0.838390  
      13A     -0.830195    14A     -0.769354    15A     -0.703520  
      16A     -0.672943    17A     -0.649799    18A     -0.608216  
      19A     -0.594392    20A     -0.572933    21A     -0.547031  
      22A     -0.519718    23A     -0.514760    24A     -0.447993  
      25A     -0.433101    26A     -0.417139    27A     -0.385994  

    Virtual:                                                              

      28A      0.023965    29A      0.033325    30A      0.035282  
      31A      0.041220    32A      0.051252    33A      0.053328  
      34A      0.055251    35A      0.062712    36A      0.066323  
      37A      0.094292    38A      0.101094    39A      0.105271  
      40A      0.109228    41A      0.115185    42A      0.119571  
      43A      0.120553    44A      0.129041    45A      0.133732  
      46A      0.139234    47A      0.142842    48A      0.146699  
      49A      0.150115    50A      0.157272    51A      0.159923  
      52A      0.170169    53A      0.174109    54A      0.177201  
      55A      0.186257    56A      0.195945    57A      0.205163  
      58A      0.213510    59A      0.229816    60A      0.235116  
      61A      0.245156    62A      0.253294    63A      0.258904  
      64A      0.268281    65A      0.270451    66A      0.277794  
      67A      0.288787    68A      0.294502    69A      0.296773  
      70A      0.300925    71A      0.308641    72A      0.314037  
      73A      0.325073    74A      0.326803    75A      0.332533  
      76A      0.336409    77A      0.344066    78A      0.352514  
      79A      0.354277    80A      0.357953    81A      0.363319  
      82A      0.369548    83A      0.373033    84A      0.375416  
      85A      0.379930    86A      0.387972    87A      0.399927  
      88A      0.402043    89A      0.410775    90A      0.414319  
      91A      0.415563    92A      0.416451    93A      0.429727  
      94A      0.437598    95A      0.439912    96A      0.442382  
      97A      0.450689    98A      0.451865    99A      0.461092  
     100A      0.463172   101A      0.468476   102A      0.478088  
     103A      0.484611   104A      0.495319   105A      0.506004  
     106A      0.513619   107A      0.517142   108A      0.518871  
     109A      0.523575   110A      0.527833   111A      0.540096  
     112A      0.542864   113A      0.546456   114A      0.551233  
     115A      0.555000   116A      0.556852   117A      0.569914  
     118A      0.573980   119A      0.579146   120A      0.584133  
     121A      0.588425   122A      0.600158   123A      0.610310  
     124A      0.623220   125A      0.634015   126A      0.636204  
     127A      0.647156   128A      0.653293   129A      0.658263  
     130A      0.676284   131A      0.683092   132A      0.685931  
     133A      0.707908   134A      0.718509   135A      0.737471  
     136A      0.752653   137A      0.762461   138A      0.775321  
     139A      0.784095   140A      0.789749   141A      0.791789  
     142A      0.808896   143A      0.828542   144A      0.829813  
     145A      0.833757   146A      0.839251   147A      0.843913  
     148A      0.860657   149A      0.863829   150A      0.874891  
     151A      0.879911   152A      0.890349   153A      0.896974  
     154A      0.901430   155A      0.910481   156A      0.916203  
     157A      0.922397   158A      0.926294   159A      0.941373  
     160A      0.947936   161A      0.955410   162A      0.960531  
     163A      0.963662   164A      0.969633   165A      0.977125  
     166A      0.990676   167A      0.995121   168A      1.000054  
     169A      1.010013   170A      1.012556   171A      1.020989  
     172A      1.025325   173A      1.035410   174A      1.040545  
     175A      1.054346   176A      1.057534   177A      1.065491  
     178A      1.070500   179A      1.083964   180A      1.085926  
     181A      1.094539   182A      1.099604   183A      1.105533  
     184A      1.118556   185A      1.122391   186A      1.137552  
     187A      1.139998   188A      1.148340   189A      1.152833  
     190A      1.158088   191A      1.173142   192A      1.177234  
     193A      1.185797   194A      1.192069   195A      1.203449  
     196A      1.208522   197A      1.218844   198A      1.231090  
     199A      1.233232   200A      1.248302   201A      1.258344  
     202A      1.264311   203A      1.270508   204A      1.281793  
     205A      1.298341   206A      1.304986   207A      1.317263  
     208A      1.328918   209A      1.333194   210A      1.339575  
     211A      1.354131   212A      1.360521   213A      1.366273  
     214A      1.385788   215A      1.393197   216A      1.400552  
     217A      1.409159   218A      1.424714   219A      1.437893  
     220A      1.447582   221A      1.460354   222A      1.470480  
     223A      1.476189   224A      1.480829   225A      1.488783  
     226A      1.490830   227A      1.509354   228A      1.516388  
     229A      1.535839   230A      1.542179   231A      1.547673  
     232A      1.557769   233A      1.581649   234A      1.591605  
     235A      1.600672   236A      1.611376   237A      1.622983  
     238A      1.638778   239A      1.643965   240A      1.652610  
     241A      1.667492   242A      1.675524   243A      1.680967  
     244A      1.684937   245A      1.690081   246A      1.704194  
     247A      1.709117   248A      1.713963   249A      1.731972  
     250A      1.744717   251A      1.755357   252A      1.771702  
     253A      1.779450   254A      1.781242   255A      1.797211  
     256A      1.803799   257A      1.822425   258A      1.830189  
     259A      1.850068   260A      1.865262   261A      1.872567  
     262A      1.882281   263A      1.889292   264A      1.905136  
     265A      1.919127   266A      1.935134   267A      1.941110  
     268A      1.955527   269A      1.962505   270A      1.967155  
     271A      1.982343   272A      1.984518   273A      2.000835  
     274A      2.011125   275A      2.038635   276A      2.042024  
     277A      2.053809   278A      2.060214   279A      2.066567  
     280A      2.078651   281A      2.101273   282A      2.114590  
     283A      2.116298   284A      2.134589   285A      2.146551  
     286A      2.168880   287A      2.188966   288A      2.197901  
     289A      2.213483   290A      2.224141   291A      2.234725  
     292A      2.252000   293A      2.262449   294A      2.274863  
     295A      2.295325   296A      2.312463   297A      2.330736  
     298A      2.345376   299A      2.369079   300A      2.403430  
     301A      2.412101   302A      2.427915   303A      2.433722  
     304A      2.441989   305A      2.465577   306A      2.478817  
     307A      2.493491   308A      2.501086   309A      2.533161  
     310A      2.548987   311A      2.562320   312A      2.593316  
     313A      2.594973   314A      2.619050   315A      2.638918  
     316A      2.661717   317A      2.697845   318A      2.700834  
     319A      2.733595   320A      2.754327   321A      2.772169  
     322A      2.795953   323A      2.810852   324A      2.835882  
     325A      2.848334   326A      2.883531   327A      2.899718  
     328A      2.959738   329A      2.993419   330A      3.005541  
     331A      3.043866   332A      3.052090   333A      3.114240  
     334A      3.178122   335A      3.189036   336A      3.236038  
     337A      3.257973   338A      3.293635   339A      3.323814  
     340A      3.329164   341A      3.374835   342A      3.416694  
     343A      3.441826   344A      3.445100   345A      3.475874  
     346A      3.482801   347A      3.496892   348A      3.523137  
     349A      3.558626   350A      3.574168   351A      3.585939  
     352A      3.602910   353A      3.610909   354A      3.638911  
     355A      3.646074   356A      3.654564   357A      3.668819  
     358A      3.674119   359A      3.689973   360A      3.700203  
     361A      3.713039   362A      3.735890   363A      3.744085  
     364A      3.745089   365A      3.749275   366A      3.776565  
     367A      3.795324   368A      3.804432   369A      3.836222  
     370A      3.871395   371A      3.883555   372A      3.892623  
     373A      3.904375   374A      3.908598   375A      3.941441  
     376A      3.946803   377A      3.958643   378A      3.970231  
     379A      3.975939   380A      3.996878   381A      4.002874  
     382A      4.016768   383A      4.019819   384A      4.050832  
     385A      4.061995   386A      4.075652   387A      4.084367  
     388A      4.104174   389A      4.118038   390A      4.120358  
     391A      4.136572   392A      4.156112   393A      4.167619  
     394A      4.189724   395A      4.207056   396A      4.215334  
     397A      4.227828   398A      4.255188   399A      4.267754  
     400A      4.273787   401A      4.303145   402A      4.324464  
     403A      4.339020   404A      4.348785   405A      4.360645  
     406A      4.373707   407A      4.392399   408A      4.407234  
     409A      4.426894   410A      4.452609   411A      4.455005  
     412A      4.461318   413A      4.480230   414A      4.487637  
     415A      4.511150   416A      4.522007   417A      4.536616  
     418A      4.576341   419A      4.595247   420A      4.603439  
     421A      4.643563   422A      4.662583   423A      4.687674  
     424A      4.722667   425A      4.740224   426A      4.750200  
     427A      4.779758   428A      4.787368   429A      4.808965  
     430A      4.824274   431A      4.847047   432A      4.868697  
     433A      4.882648   434A      4.886791   435A      4.910358  
     436A      4.921681   437A      4.941761   438A      4.947141  
     439A      4.984461   440A      4.993031   441A      5.005309  
     442A      5.023182   443A      5.040883   444A      5.053467  
     445A      5.061372   446A      5.087990   447A      5.090074  
     448A      5.108704   449A      5.131289   450A      5.177847  
     451A      5.196923   452A      5.217615   453A      5.241091  
     454A      5.260229   455A      5.268474   456A      5.290591  
     457A      5.323830   458A      5.337540   459A      5.368716  
     460A      5.394372   461A      5.403950   462A      5.438042  
     463A      5.462485   464A      5.477840   465A      5.519638  
     466A      5.523641   467A      5.554458   468A      5.593971  
     469A      5.621739   470A      5.625162   471A      5.649256  
     472A      5.658120   473A      5.674928   474A      5.679811  
     475A      5.709749   476A      5.720178   477A      5.728660  
     478A      5.770577   479A      5.834978   480A      5.841196  
     481A      5.873955   482A      5.917031   483A      5.953238  
     484A      5.963470   485A      5.999727   486A      6.047927  
     487A      6.082128   488A      6.119281   489A      6.136949  
     490A      6.167829   491A      6.239385   492A      6.256219  
     493A      6.283743   494A      6.351778   495A      6.377635  
     496A      6.417321   497A      6.497773   498A      6.537973  
     499A      6.554849   500A      6.587033   501A      6.626982  
     502A      6.670799   503A      6.690656   504A      6.727618  
     505A      6.768238   506A      6.780970   507A      6.841888  
     508A      6.847870   509A      6.873146   510A      6.940140  
     511A      7.016216   512A      7.057582   513A      7.230122  
     514A      7.261826   515A      7.442013   516A      7.472293  
     517A      7.634969   518A      7.680730   519A      7.693117  
     520A      7.730508   521A      7.918424   522A      8.054446  
     523A     15.580396   524A     16.381780   525A     17.534422  
     526A     17.746182   527A     17.896632   528A     19.139742  
     529A     20.723205  

    Final Occupation by Irrep:
              A 
    DOCC [    27 ]

  @DF-RHF Final Energy:  -323.99220963258836

   => Energetics <=

    Nuclear Repulsion Energy =            301.8154187169778879
    One-Electron Energy =               -1038.2873849255734058
    Two-Electron Energy =                 412.4797565760071620
    Total Energy =                       -323.9922096325883558

Computation Completed

*** tstop() called on node35.bme.utexas.edu at Thu Feb  4 03:54:48 2021
Module time:
	user time   =     266.02 seconds =       4.43 minutes
	system time =      63.78 seconds =       1.06 minutes
	total time  =         78 seconds =       1.30 minutes
Total time:
	user time   =     266.02 seconds =       4.43 minutes
	system time =      63.78 seconds =       1.06 minutes
	total time  =         78 seconds =       1.30 minutes
   => Loading Basis Set <=

    Name: (AUG-CC-PVTZ AUX)
    Role: RIFIT
    Keyword: DF_BASIS_MP2
    atoms 1    entry O          line   264 file /home/xy3866/psi4conda/share/psi4/basis/aug-cc-pvtz-ri.gbs 
    atoms 2    entry N          line   206 file /home/xy3866/psi4conda/share/psi4/basis/aug-cc-pvtz-ri.gbs 
    atoms 3-7  entry C          line   148 file /home/xy3866/psi4conda/share/psi4/basis/aug-cc-pvtz-ri.gbs 
    atoms 8-16 entry H          line    30 file /home/xy3866/psi4conda/share/psi4/basis/aug-cc-pvtz-ri.gbs 


*** tstart() called on node35.bme.utexas.edu
*** at Thu Feb  4 03:54:48 2021


  //>>>>>>>>>>>>>>>>>>>>>>>>>>>>>>>>>>>//
  //               DFMP2               //
  //<<<<<<<<<<<<<<<<<<<<<<<<<<<<<<<<<<<//

	 --------------------------------------------------------
	                          DF-MP2                         
	      2nd-Order Density-Fitted Moller-Plesset Theory     
	              RMP2 Wavefunction,   8 Threads             
	                                                         
	        Rob Parrish, Justin Turney, Andy Simmonett,      
	           Ed Hohenstein, and C. David Sherrill          
	 --------------------------------------------------------

   => Auxiliary Basis Set <=

  Basis Set: (AUG-CC-PVTZ AUX)
    Blend: AUG-CC-PVTZ-RI
    Number of shells: 322
    Number of basis function: 1156
    Number of Cartesian functions: 1447
    Spherical Harmonics?: true
    Max angular momentum: 4

	 --------------------------------------------------------
	                 NBF =   529, NAUX =  1156
	 --------------------------------------------------------
	   CLASS    FOCC     OCC    AOCC    AVIR     VIR    FVIR
	   PAIRS       0      27      27     502     502       0
	 --------------------------------------------------------

  DFHelper Memory: AOs need 2.373 GiB; user supplied 22.352 GiB. Using in-core AOs.


         ------------------------------------------------------------
                                     CPHF                           
                                  Rob Parrish                       
         ------------------------------------------------------------

  ==> Geometry <==

    Molecular point group: c1
    Full point group: C1

    Geometry (in Angstrom), charge = 0, multiplicity = 1:

       Center              X                  Y                   Z               Mass       
    ------------   -----------------  -----------------  -----------------  -----------------
         O            1.199580265366     1.335644119293     0.149052374482    15.994914619570
         N            0.111802965366    -0.688640080707     0.092955474482    14.003074004430
         C           -1.129889734634    -0.136235880707     0.539729374482    12.000000000000
         C           -1.880572734634     0.696514119293    -0.454518625518    12.000000000000
         C           -2.363324734634    -0.687759880707    -0.120240625518    12.000000000000
         C            1.246246265366     0.112089119293     0.031397374482    12.000000000000
         C            2.537708265366    -0.639463880707    -0.225975625518    12.000000000000
         H           -1.205467734634     0.159051119293     1.584974374482     1.007825032230
         H           -1.401340734634     0.848682119293    -1.414296625518     1.007825032230
         H           -2.434666734634     1.549689119293    -0.079167625518     1.007825032230
         H           -3.256810734634    -0.799837880707     0.484693374482     1.007825032230
         H           -2.219876734634    -1.462726880707    -0.866246625518     1.007825032230
         H            0.257064265366    -1.685812880707     0.206525374482     1.007825032230
         H            2.381112265366    -1.544014880707    -0.819569625518     1.007825032230
         H            3.225109265366     0.026439119293    -0.747874625518     1.007825032230
         H            2.993103265366    -0.923640880707     0.727741374482     1.007825032230

  Nuclear repulsion =  301.815418716977888
  Reference energy  = -323.992209632588356

  ==> Basis Set <==

  Basis Set: AUG-CC-PVTZ
    Blend: AUG-CC-PVTZ
    Number of shells: 179
    Number of basis function: 529
    Number of Cartesian functions: 610
    Spherical Harmonics?: true
    Max angular momentum: 3

  ==> CGRSolver (by Rob Parrish) <==

   Number of roots    =         1
   Preconditioning    =    JACOBI
   Convergence cutoff =     1E-06
   Maximum iterations =       100

  ==> CPHFRHamiltonian (by Rob Parrish) <== 

  ==> MemDFJK: Density-Fitted J/K Matrices <==

    J tasked:                   Yes
    K tasked:                   Yes
    wK tasked:                   No
    OpenMP threads:               8
    Memory [MiB]:             22888
    Algorithm:                 Disk
    Schwarz Cutoff:           1E-12
    Mask sparsity (%):       3.8007
    Fitting Condition:        1E-10

   => Auxiliary Basis Set <=

  Basis Set: (AUG-CC-PVTZ AUX)
    Blend: AUG-CC-PVTZ-JKFIT
    Number of shells: 336
    Number of basis function: 1142
    Number of Cartesian functions: 1412
    Spherical Harmonics?: true
    Max angular momentum: 4

  ==> CPHF Iterations <==

  => Iterations <=

             Iter  Converged  Remaining    Residual
  CGR           1          0          1   1.163E-01
  CGR           2          0          1   3.487E-02
  CGR           3          0          1   1.291E-02
  CGR           4          0          1   3.282E-03
  CGR           5          0          1   1.211E-03
  CGR           6          0          1   4.113E-04
  CGR           7          0          1   1.408E-04
  CGR           8          0          1   6.957E-05
  CGR           9          0          1   2.497E-05
  CGR          10          0          1   8.321E-06
  CGR          11          0          1   2.472E-06
  CGR          12          1          0   9.657E-07

    CGRSolver converged.

	-----------------------------------------------------------
	 ==================> DF-MP2 Energies <==================== 
	-----------------------------------------------------------
	 Reference Energy          =    -323.9922096325883558 [Eh]
	 Singles Energy            =      -0.0000000000000000 [Eh]
	 Same-Spin Energy          =      -0.3337135538604298 [Eh]
	 Opposite-Spin Energy      =      -1.0894765302058467 [Eh]
	 Correlation Energy        =      -1.4231900840662766 [Eh]
	 Total Energy              =    -325.4153997166546333 [Eh]
	-----------------------------------------------------------
	 ================> DF-SCS-MP2 Energies <================== 
	-----------------------------------------------------------
	 SCS Same-Spin Scale       =       0.3333333333333333 [-]
	 SCS Opposite-Spin Scale   =       1.2000000000000000 [-]
	 SCS Same-Spin Energy      =      -0.1112378512868099 [Eh]
	 SCS Opposite-Spin Energy  =      -1.3073718362470159 [Eh]
	 SCS Correlation Energy    =      -1.4186096875338259 [Eh]
	 SCS Total Energy          =    -325.4108193201221866 [Eh]
	-----------------------------------------------------------



Properties will be evaluated at   0.000000,   0.000000,   0.000000 [a0]

Properties computed using the MP2 density matrix

  Nuclear Dipole Moment: [e a0]
     X:    -1.5524      Y:    -3.5841      Z:    -0.8650

  Electronic Dipole Moment: [e a0]
     X:     1.3227      Y:     2.2534      Z:     0.9274

  Dipole Moment: [e a0]
     X:    -0.2297      Y:    -1.3307      Z:     0.0624     Total:     1.3519

  Dipole Moment: [D]
     X:    -0.5838      Y:    -3.3824      Z:     0.1586     Total:     3.4361


*** tstop() called on node35.bme.utexas.edu at Thu Feb  4 03:57:22 2021
Module time:
	user time   =     661.94 seconds =      11.03 minutes
	system time =     163.10 seconds =       2.72 minutes
	total time  =        154 seconds =       2.57 minutes
Total time:
	user time   =     928.14 seconds =      15.47 minutes
	system time =     226.88 seconds =       3.78 minutes
	total time  =        232 seconds =       3.87 minutes

    Psi4 stopped on: Thursday, 04 February 2021 03:57AM
    Psi4 wall time for execution: 0:03:52.05

*** Psi4 exiting successfully. Buy a developer a beer!
