
    -----------------------------------------------------------------------
          Psi4: An Open-Source Ab Initio Electronic Structure Package
                               Psi4 1.3.2 release

                         Git: Rev {HEAD} ecbda83 


    R. M. Parrish, L. A. Burns, D. G. A. Smith, A. C. Simmonett,
    A. E. DePrince III, E. G. Hohenstein, U. Bozkaya, A. Yu. Sokolov,
    R. Di Remigio, R. M. Richard, J. F. Gonthier, A. M. James,
    H. R. McAlexander, A. Kumar, M. Saitow, X. Wang, B. P. Pritchard,
    P. Verma, H. F. Schaefer III, K. Patkowski, R. A. King, E. F. Valeev,
    F. A. Evangelista, J. M. Turney, T. D. Crawford, and C. D. Sherrill,
    J. Chem. Theory Comput. 13(7) pp 3185--3197 (2017).
    (doi: 10.1021/acs.jctc.7b00174)


                         Additional Contributions by
    P. Kraus, H. Kruse, M. H. Lechner, M. C. Schieber, R. A. Shaw,
    A. Alenaizan, R. Galvelis, Z. L. Glick, S. Lehtola, and J. P. Misiewicz

    -----------------------------------------------------------------------


    Psi4 started on: Thursday, 04 February 2021 05:04AM

    Process ID: 83682
    Host:       node35.bme.utexas.edu
    PSIDATADIR: /home/xy3866/psi4conda/share/psi4
    Memory:     500.0 MiB
    Threads:    8
    
  ==> Input File <==

--------------------------------------------------------------------------
#psi4
#
memory 32 gb

molecule  {
0 1
  O        1.2124500     1.3700530     0.1515380
  N        0.1427500    -0.6487220     0.1416610
  C       -1.1556202    -0.1935084     0.5335455
  C       -1.8677030     0.7309230    -0.4520330
  C       -2.3504550    -0.6533510    -0.1177550
  C        1.2591160     0.1464980     0.0338830
  C        2.5505780    -0.6050550    -0.2234900
  H       -1.1925980     0.1934600     1.5874600
  H       -1.3884710     0.8830910    -1.4118110
  H       -2.4217970     1.5840980    -0.0766820
  H       -3.2439410    -0.7654290     0.4871790
  H       -2.2070070    -1.4283180    -0.8637610
  H        0.2699340    -1.6514040     0.2090110
  H        2.3939820    -1.5096060    -0.8170840
  H        3.2379790     0.0608480    -0.7453890
  H        3.0059730    -0.8892320     0.7302270
units angstrom
no_reorient  #important for SAPT in psi4, default
symmetry c1  #important for SAPT in psi4, default
}

set PROPERTIES_ORIGIN ["COM"]
properties('MP2/aug-cc-pvtz', properties = ['dipole'])
--------------------------------------------------------------------------

  Memory set to  29.802 GiB by Python driver.
    SCF Algorithm Type (re)set to DF.

*** tstart() called on node35.bme.utexas.edu
*** at Thu Feb  4 05:04:07 2021

   => Loading Basis Set <=

    Name: AUG-CC-PVTZ
    Role: ORBITAL
    Keyword: BASIS
    atoms 1    entry O          line   327 file /home/xy3866/psi4conda/share/psi4/basis/aug-cc-pvtz.gbs 
    atoms 2    entry N          line   281 file /home/xy3866/psi4conda/share/psi4/basis/aug-cc-pvtz.gbs 
    atoms 3-7  entry C          line   235 file /home/xy3866/psi4conda/share/psi4/basis/aug-cc-pvtz.gbs 
    atoms 8-16 entry H          line    36 file /home/xy3866/psi4conda/share/psi4/basis/aug-cc-pvtz.gbs 


         ---------------------------------------------------------
                                   SCF
               by Justin Turney, Rob Parrish, Andy Simmonett
                          and Daniel G. A. Smith
                              RHF Reference
                        8 Threads,  30517 MiB Core
         ---------------------------------------------------------

  ==> Geometry <==

    Molecular point group: c1
    Full point group: C1

    Geometry (in Angstrom), charge = 0, multiplicity = 1:

       Center              X                  Y                   Z               Mass       
    ------------   -----------------  -----------------  -----------------  -----------------
         O            1.201700665017     1.345970630279     0.143569429326    15.994914619570
         N            0.132000665017    -0.672804369721     0.133692429326    14.003074004430
         C           -1.166369534983    -0.217590769721     0.525576929326    12.000000000000
         C           -1.878452334983     0.706840630279    -0.460001570674    12.000000000000
         C           -2.361204334983    -0.677433369721    -0.125723570674    12.000000000000
         C            1.248366665017     0.122415630279     0.025914429326    12.000000000000
         C            2.539828665017    -0.629137369721    -0.231458570674    12.000000000000
         H           -1.203347334983     0.169377630279     1.579491429326     1.007825032230
         H           -1.399220334983     0.859008630279    -1.419779570674     1.007825032230
         H           -2.432546334983     1.560015630279    -0.084650570674     1.007825032230
         H           -3.254690334983    -0.789511369721     0.479210429326     1.007825032230
         H           -2.217756334983    -1.452400369721    -0.871729570674     1.007825032230
         H            0.259184665017    -1.675486369721     0.201042429326     1.007825032230
         H            2.383232665017    -1.533688369721    -0.825052570674     1.007825032230
         H            3.227229665017     0.036765630279    -0.753357570674     1.007825032230
         H            2.995223665017    -0.913314369721     0.722258429326     1.007825032230

  Running in c1 symmetry.

  Rotational constants: A =      0.21409  B =      0.05433  C =      0.04686 [cm^-1]
  Rotational constants: A =   6418.21367  B =   1628.87738  C =   1404.86787 [MHz]
  Nuclear repulsion =  301.838231886891265

  Charge       = 0
  Multiplicity = 1
  Electrons    = 54
  Nalpha       = 27
  Nbeta        = 27

  ==> Algorithm <==

  SCF Algorithm Type is DF.
  DIIS enabled.
  MOM disabled.
  Fractional occupation disabled.
  Guess Type is SAD.
  Energy threshold   = 1.00e-10
  Density threshold  = 1.00e-10
  Integral threshold = 0.00e+00

  ==> Primary Basis <==

  Basis Set: AUG-CC-PVTZ
    Blend: AUG-CC-PVTZ
    Number of shells: 179
    Number of basis function: 529
    Number of Cartesian functions: 610
    Spherical Harmonics?: true
    Max angular momentum: 3

   => Loading Basis Set <=

    Name: (AUG-CC-PVTZ AUX)
    Role: JKFIT
    Keyword: DF_BASIS_SCF
    atoms 1    entry O          line   286 file /home/xy3866/psi4conda/share/psi4/basis/aug-cc-pvtz-jkfit.gbs 
    atoms 2    entry N          line   224 file /home/xy3866/psi4conda/share/psi4/basis/aug-cc-pvtz-jkfit.gbs 
    atoms 3-7  entry C          line   162 file /home/xy3866/psi4conda/share/psi4/basis/aug-cc-pvtz-jkfit.gbs 
    atoms 8-16 entry H          line    70 file /home/xy3866/psi4conda/share/psi4/basis/aug-cc-pvtz-jkfit.gbs 

  ==> Pre-Iterations <==

   -------------------------------------------------------
    Irrep   Nso     Nmo     Nalpha   Nbeta   Ndocc  Nsocc
   -------------------------------------------------------
     A        529     529       0       0       0       0
   -------------------------------------------------------
    Total     529     529      27      27      27       0
   -------------------------------------------------------

  ==> Integral Setup <==

  DFHelper Memory: AOs need 2.373 GiB; user supplied 22.352 GiB. Using in-core AOs.

  ==> MemDFJK: Density-Fitted J/K Matrices <==

    J tasked:                   Yes
    K tasked:                   Yes
    wK tasked:                   No
    OpenMP threads:               8
    Memory [MiB]:             22888
    Algorithm:                 Disk
    Schwarz Cutoff:           1E-12
    Mask sparsity (%):       3.8129
    Fitting Condition:        1E-10

   => Auxiliary Basis Set <=

  Basis Set: (AUG-CC-PVTZ AUX)
    Blend: AUG-CC-PVTZ-JKFIT
    Number of shells: 336
    Number of basis function: 1142
    Number of Cartesian functions: 1412
    Spherical Harmonics?: true
    Max angular momentum: 4

  Minimum eigenvalue in the overlap matrix is 4.5519941338E-06.
  Using Symmetric Orthogonalization.

  SCF Guess: Superposition of Atomic Densities via on-the-fly atomic UHF.

  ==> Iterations <==

                           Total Energy        Delta E     RMS |[F,P]|

   @DF-RHF iter SAD:  -323.38361492774385   -3.23384e+02   0.00000e+00 
   @DF-RHF iter   1:  -323.71561036931519   -3.31995e-01   1.35368e-03 DIIS
   @DF-RHF iter   2:  -323.91964412145819   -2.04034e-01   7.70098e-04 DIIS
   @DF-RHF iter   3:  -323.98168580387204   -6.20417e-02   1.55445e-04 DIIS
   @DF-RHF iter   4:  -323.98547353235597   -3.78773e-03   6.62089e-05 DIIS
   @DF-RHF iter   5:  -323.98620487443469   -7.31342e-04   1.22766e-05 DIIS
   @DF-RHF iter   6:  -323.98625157122166   -4.66968e-05   5.97498e-06 DIIS
   @DF-RHF iter   7:  -323.98626091325787   -9.34204e-06   2.00203e-06 DIIS
   @DF-RHF iter   8:  -323.98626257825214   -1.66499e-06   8.26566e-07 DIIS
   @DF-RHF iter   9:  -323.98626285079627   -2.72544e-07   2.75958e-07 DIIS
   @DF-RHF iter  10:  -323.98626288188234   -3.10861e-08   7.97322e-08 DIIS
   @DF-RHF iter  11:  -323.98626288443137   -2.54903e-09   2.12146e-08 DIIS
   @DF-RHF iter  12:  -323.98626288456188   -1.30512e-10   6.74847e-09 DIIS
   @DF-RHF iter  13:  -323.98626288457547   -1.35856e-11   2.10311e-09 DIIS
   @DF-RHF iter  14:  -323.98626288457842   -2.95586e-12   8.68973e-10 DIIS
   @DF-RHF iter  15:  -323.98626288457797    4.54747e-13   2.76370e-10 DIIS
   @DF-RHF iter  16:  -323.98626288457842   -4.54747e-13   1.16794e-10 DIIS
   @DF-RHF iter  17:  -323.98626288457842    0.00000e+00   5.29288e-11 DIIS
  Energy and wave function converged.


  ==> Post-Iterations <==

    Orbital Energies [Eh]
    ---------------------

    Doubly Occupied:                                                      

       1A    -20.516036     2A    -15.587696     3A    -11.352057  
       4A    -11.270664     5A    -11.238964     6A    -11.234675  
       7A    -11.223723     8A     -1.370511     9A     -1.242018  
      10A     -1.131756    11A     -1.003073    12A     -0.845544  
      13A     -0.830564    14A     -0.770039    15A     -0.698494  
      16A     -0.675163    17A     -0.655320    18A     -0.609281  
      19A     -0.592160    20A     -0.570546    21A     -0.543368  
      22A     -0.520921    23A     -0.514021    24A     -0.461175  
      25A     -0.430983    26A     -0.419987    27A     -0.375281  

    Virtual:                                                              

      28A      0.023774    29A      0.033098    30A      0.035298  
      31A      0.041155    32A      0.051210    33A      0.053340  
      34A      0.055605    35A      0.062452    36A      0.066178  
      37A      0.094289    38A      0.100372    39A      0.104554  
      40A      0.109420    41A      0.115353    42A      0.118765  
      43A      0.120702    44A      0.129354    45A      0.133167  
      46A      0.139352    47A      0.142600    48A      0.146466  
      49A      0.150036    50A      0.156486    51A      0.160525  
      52A      0.170285    53A      0.173861    54A      0.178302  
      55A      0.186848    56A      0.194066    57A      0.206428  
      58A      0.212482    59A      0.229808    60A      0.234465  
      61A      0.245678    62A      0.251926    63A      0.258757  
      64A      0.267519    65A      0.271976    66A      0.278711  
      67A      0.289740    68A      0.292122    69A      0.296526  
      70A      0.299335    71A      0.305460    72A      0.314742  
      73A      0.326023    74A      0.327148    75A      0.333297  
      76A      0.337360    77A      0.342769    78A      0.351842  
      79A      0.354487    80A      0.357127    81A      0.363442  
      82A      0.369355    83A      0.374112    84A      0.375566  
      85A      0.378835    86A      0.388803    87A      0.399885  
      88A      0.401583    89A      0.407794    90A      0.413766  
      91A      0.414168    92A      0.418169    93A      0.429035  
      94A      0.435802    95A      0.438001    96A      0.442353  
      97A      0.450113    98A      0.452189    99A      0.461097  
     100A      0.463617   101A      0.469081   102A      0.476368  
     103A      0.481652   104A      0.497036   105A      0.506329  
     106A      0.512144   107A      0.517843   108A      0.519416  
     109A      0.522804   110A      0.529121   111A      0.539192  
     112A      0.542192   113A      0.546353   114A      0.548344  
     115A      0.553944   116A      0.557576   117A      0.570936  
     118A      0.577099   119A      0.579603   120A      0.583615  
     121A      0.592260   122A      0.600791   123A      0.608666  
     124A      0.620135   125A      0.630518   126A      0.639356  
     127A      0.644100   128A      0.658617   129A      0.662959  
     130A      0.673864   131A      0.680049   132A      0.689242  
     133A      0.705397   134A      0.724450   135A      0.744565  
     136A      0.755002   137A      0.760973   138A      0.772655  
     139A      0.781813   140A      0.786343   141A      0.795608  
     142A      0.810760   143A      0.823579   144A      0.830054  
     145A      0.830931   146A      0.837948   147A      0.840135  
     148A      0.860529   149A      0.865211   150A      0.876111  
     151A      0.883173   152A      0.888306   153A      0.893055  
     154A      0.898524   155A      0.906945   156A      0.918779  
     157A      0.921245   158A      0.924116   159A      0.940141  
     160A      0.945797   161A      0.955191   162A      0.958528  
     163A      0.962044   164A      0.968765   165A      0.977266  
     166A      0.989881   167A      0.994169   168A      0.998631  
     169A      1.005025   170A      1.009920   171A      1.021169  
     172A      1.029213   173A      1.038389   174A      1.044888  
     175A      1.054436   176A      1.056376   177A      1.069624  
     178A      1.070729   179A      1.084063   180A      1.085824  
     181A      1.093128   182A      1.101835   183A      1.105446  
     184A      1.118552   185A      1.126034   186A      1.135775  
     187A      1.142275   188A      1.149279   189A      1.151761  
     190A      1.157964   191A      1.171029   192A      1.177196  
     193A      1.187150   194A      1.191370   195A      1.205760  
     196A      1.207924   197A      1.219831   198A      1.233432  
     199A      1.235449   200A      1.248324   201A      1.252664  
     202A      1.263177   203A      1.273021   204A      1.283902  
     205A      1.298330   206A      1.305224   207A      1.316034  
     208A      1.325137   209A      1.332476   210A      1.342332  
     211A      1.353436   212A      1.361471   213A      1.367209  
     214A      1.384973   215A      1.387527   216A      1.400369  
     217A      1.405201   218A      1.419279   219A      1.442479  
     220A      1.443830   221A      1.461621   222A      1.467198  
     223A      1.475589   224A      1.478803   225A      1.483868  
     226A      1.495790   227A      1.511474   228A      1.512793  
     229A      1.530448   230A      1.543647   231A      1.549560  
     232A      1.558429   233A      1.580085   234A      1.592958  
     235A      1.598341   236A      1.611736   237A      1.618986  
     238A      1.632820   239A      1.643759   240A      1.653758  
     241A      1.667333   242A      1.676223   243A      1.680197  
     244A      1.684197   245A      1.687974   246A      1.698275  
     247A      1.704050   248A      1.720681   249A      1.738442  
     250A      1.747342   251A      1.757443   252A      1.761813  
     253A      1.776984   254A      1.782232   255A      1.795683  
     256A      1.802257   257A      1.819863   258A      1.830597  
     259A      1.845977   260A      1.864466   261A      1.874490  
     262A      1.883776   263A      1.888834   264A      1.901523  
     265A      1.919641   266A      1.936650   267A      1.940736  
     268A      1.955667   269A      1.960925   270A      1.965375  
     271A      1.977243   272A      1.983326   273A      1.996756  
     274A      2.008882   275A      2.032722   276A      2.036348  
     277A      2.043781   278A      2.056856   279A      2.070929  
     280A      2.082199   281A      2.097272   282A      2.107283  
     283A      2.123861   284A      2.138606   285A      2.138655  
     286A      2.167265   287A      2.183263   288A      2.201752  
     289A      2.207286   290A      2.220217   291A      2.231666  
     292A      2.251611   293A      2.265175   294A      2.275745  
     295A      2.283788   296A      2.307875   297A      2.333144  
     298A      2.353871   299A      2.362156   300A      2.396630  
     301A      2.418339   302A      2.431616   303A      2.436404  
     304A      2.444420   305A      2.465042   306A      2.481196  
     307A      2.484974   308A      2.502511   309A      2.517689  
     310A      2.546260   311A      2.564169   312A      2.584304  
     313A      2.602633   314A      2.611651   315A      2.638429  
     316A      2.667644   317A      2.698503   318A      2.719398  
     319A      2.743496   320A      2.766444   321A      2.785483  
     322A      2.790218   323A      2.827975   324A      2.844742  
     325A      2.855946   326A      2.891275   327A      2.903896  
     328A      2.963016   329A      2.998081   330A      3.012770  
     331A      3.041353   332A      3.065077   333A      3.118482  
     334A      3.186156   335A      3.189463   336A      3.232644  
     337A      3.256274   338A      3.303750   339A      3.317527  
     340A      3.348169   341A      3.371375   342A      3.418379  
     343A      3.437220   344A      3.445667   345A      3.463339  
     346A      3.497618   347A      3.507244   348A      3.528671  
     349A      3.559983   350A      3.568190   351A      3.598846  
     352A      3.601339   353A      3.609592   354A      3.637644  
     355A      3.644552   356A      3.664684   357A      3.669082  
     358A      3.677961   359A      3.695463   360A      3.698293  
     361A      3.725222   362A      3.730876   363A      3.741303  
     364A      3.749684   365A      3.757277   366A      3.773509  
     367A      3.794714   368A      3.819018   369A      3.840356  
     370A      3.863580   371A      3.881716   372A      3.899595  
     373A      3.901570   374A      3.907488   375A      3.937269  
     376A      3.942221   377A      3.947793   378A      3.963628  
     379A      3.968468   380A      3.988582   381A      3.993967  
     382A      4.022822   383A      4.027718   384A      4.044898  
     385A      4.052745   386A      4.074423   387A      4.087997  
     388A      4.092614   389A      4.121096   390A      4.126653  
     391A      4.141142   392A      4.160561   393A      4.171024  
     394A      4.188656   395A      4.198211   396A      4.210721  
     397A      4.220855   398A      4.258550   399A      4.263261  
     400A      4.280934   401A      4.299090   402A      4.330775  
     403A      4.340502   404A      4.352712   405A      4.363349  
     406A      4.383838   407A      4.405160   408A      4.417717  
     409A      4.430276   410A      4.448625   411A      4.454602  
     412A      4.471783   413A      4.485824   414A      4.492976  
     415A      4.509859   416A      4.551724   417A      4.558616  
     418A      4.571357   419A      4.602082   420A      4.615450  
     421A      4.642617   422A      4.678245   423A      4.697714  
     424A      4.728139   425A      4.747632   426A      4.758678  
     427A      4.783108   428A      4.802533   429A      4.803690  
     430A      4.829121   431A      4.846616   432A      4.866551  
     433A      4.882541   434A      4.898099   435A      4.912962  
     436A      4.922767   437A      4.938024   438A      4.944053  
     439A      4.980684   440A      4.990804   441A      4.996947  
     442A      5.016602   443A      5.029078   444A      5.042744  
     445A      5.056319   446A      5.086867   447A      5.101304  
     448A      5.114174   449A      5.125298   450A      5.161301  
     451A      5.186392   452A      5.215568   453A      5.233328  
     454A      5.254649   455A      5.266183   456A      5.285813  
     457A      5.301921   458A      5.341936   459A      5.371651  
     460A      5.388933   461A      5.397462   462A      5.445295  
     463A      5.468224   464A      5.489073   465A      5.519705  
     466A      5.530489   467A      5.541342   468A      5.572887  
     469A      5.612207   470A      5.626870   471A      5.628441  
     472A      5.660991   473A      5.676791   474A      5.689197  
     475A      5.715089   476A      5.725363   477A      5.744602  
     478A      5.763204   479A      5.830772   480A      5.836996  
     481A      5.867800   482A      5.917910   483A      5.945225  
     484A      5.963874   485A      5.998463   486A      6.056023  
     487A      6.090593   488A      6.122551   489A      6.134623  
     490A      6.165134   491A      6.226281   492A      6.259233  
     493A      6.280270   494A      6.325619   495A      6.387808  
     496A      6.427615   497A      6.459431   498A      6.515834  
     499A      6.571603   500A      6.619457   501A      6.635714  
     502A      6.668326   503A      6.723992   504A      6.731460  
     505A      6.769098   506A      6.788836   507A      6.820509  
     508A      6.850376   509A      6.881680   510A      6.943029  
     511A      7.057999   512A      7.077580   513A      7.236103  
     514A      7.276943   515A      7.445207   516A      7.478375  
     517A      7.641799   518A      7.693204   519A      7.708104  
     520A      7.734205   521A      7.922836   522A      8.058003  
     523A     15.532157   524A     16.536652   525A     17.505319  
     526A     17.713296   527A     18.167160   528A     19.366728  
     529A     20.831389  

    Final Occupation by Irrep:
              A 
    DOCC [    27 ]

  @DF-RHF Final Energy:  -323.98626288457842

   => Energetics <=

    Nuclear Repulsion Energy =            301.8382318868912648
    One-Electron Energy =               -1038.2809548004954650
    Two-Electron Energy =                 412.4564600290258340
    Total Energy =                       -323.9862628845784229

Computation Completed

*** tstop() called on node35.bme.utexas.edu at Thu Feb  4 05:05:21 2021
Module time:
	user time   =     256.22 seconds =       4.27 minutes
	system time =      65.55 seconds =       1.09 minutes
	total time  =         74 seconds =       1.23 minutes
Total time:
	user time   =     256.22 seconds =       4.27 minutes
	system time =      65.55 seconds =       1.09 minutes
	total time  =         74 seconds =       1.23 minutes
   => Loading Basis Set <=

    Name: (AUG-CC-PVTZ AUX)
    Role: RIFIT
    Keyword: DF_BASIS_MP2
    atoms 1    entry O          line   264 file /home/xy3866/psi4conda/share/psi4/basis/aug-cc-pvtz-ri.gbs 
    atoms 2    entry N          line   206 file /home/xy3866/psi4conda/share/psi4/basis/aug-cc-pvtz-ri.gbs 
    atoms 3-7  entry C          line   148 file /home/xy3866/psi4conda/share/psi4/basis/aug-cc-pvtz-ri.gbs 
    atoms 8-16 entry H          line    30 file /home/xy3866/psi4conda/share/psi4/basis/aug-cc-pvtz-ri.gbs 


*** tstart() called on node35.bme.utexas.edu
*** at Thu Feb  4 05:05:22 2021


  //>>>>>>>>>>>>>>>>>>>>>>>>>>>>>>>>>>>//
  //               DFMP2               //
  //<<<<<<<<<<<<<<<<<<<<<<<<<<<<<<<<<<<//

	 --------------------------------------------------------
	                          DF-MP2                         
	      2nd-Order Density-Fitted Moller-Plesset Theory     
	              RMP2 Wavefunction,   8 Threads             
	                                                         
	        Rob Parrish, Justin Turney, Andy Simmonett,      
	           Ed Hohenstein, and C. David Sherrill          
	 --------------------------------------------------------

   => Auxiliary Basis Set <=

  Basis Set: (AUG-CC-PVTZ AUX)
    Blend: AUG-CC-PVTZ-RI
    Number of shells: 322
    Number of basis function: 1156
    Number of Cartesian functions: 1447
    Spherical Harmonics?: true
    Max angular momentum: 4

	 --------------------------------------------------------
	                 NBF =   529, NAUX =  1156
	 --------------------------------------------------------
	   CLASS    FOCC     OCC    AOCC    AVIR     VIR    FVIR
	   PAIRS       0      27      27     502     502       0
	 --------------------------------------------------------

  DFHelper Memory: AOs need 2.373 GiB; user supplied 22.352 GiB. Using in-core AOs.


         ------------------------------------------------------------
                                     CPHF                           
                                  Rob Parrish                       
         ------------------------------------------------------------

  ==> Geometry <==

    Molecular point group: c1
    Full point group: C1

    Geometry (in Angstrom), charge = 0, multiplicity = 1:

       Center              X                  Y                   Z               Mass       
    ------------   -----------------  -----------------  -----------------  -----------------
         O            1.201700665017     1.345970630279     0.143569429326    15.994914619570
         N            0.132000665017    -0.672804369721     0.133692429326    14.003074004430
         C           -1.166369534983    -0.217590769721     0.525576929326    12.000000000000
         C           -1.878452334983     0.706840630279    -0.460001570674    12.000000000000
         C           -2.361204334983    -0.677433369721    -0.125723570674    12.000000000000
         C            1.248366665017     0.122415630279     0.025914429326    12.000000000000
         C            2.539828665017    -0.629137369721    -0.231458570674    12.000000000000
         H           -1.203347334983     0.169377630279     1.579491429326     1.007825032230
         H           -1.399220334983     0.859008630279    -1.419779570674     1.007825032230
         H           -2.432546334983     1.560015630279    -0.084650570674     1.007825032230
         H           -3.254690334983    -0.789511369721     0.479210429326     1.007825032230
         H           -2.217756334983    -1.452400369721    -0.871729570674     1.007825032230
         H            0.259184665017    -1.675486369721     0.201042429326     1.007825032230
         H            2.383232665017    -1.533688369721    -0.825052570674     1.007825032230
         H            3.227229665017     0.036765630279    -0.753357570674     1.007825032230
         H            2.995223665017    -0.913314369721     0.722258429326     1.007825032230

  Nuclear repulsion =  301.838231886891265
  Reference energy  = -323.986262884578423

  ==> Basis Set <==

  Basis Set: AUG-CC-PVTZ
    Blend: AUG-CC-PVTZ
    Number of shells: 179
    Number of basis function: 529
    Number of Cartesian functions: 610
    Spherical Harmonics?: true
    Max angular momentum: 3

  ==> CGRSolver (by Rob Parrish) <==

   Number of roots    =         1
   Preconditioning    =    JACOBI
   Convergence cutoff =     1E-06
   Maximum iterations =       100

  ==> CPHFRHamiltonian (by Rob Parrish) <== 

  ==> MemDFJK: Density-Fitted J/K Matrices <==

    J tasked:                   Yes
    K tasked:                   Yes
    wK tasked:                   No
    OpenMP threads:               8
    Memory [MiB]:             22888
    Algorithm:                 Disk
    Schwarz Cutoff:           1E-12
    Mask sparsity (%):       3.8129
    Fitting Condition:        1E-10

   => Auxiliary Basis Set <=

  Basis Set: (AUG-CC-PVTZ AUX)
    Blend: AUG-CC-PVTZ-JKFIT
    Number of shells: 336
    Number of basis function: 1142
    Number of Cartesian functions: 1412
    Spherical Harmonics?: true
    Max angular momentum: 4

  ==> CPHF Iterations <==

  => Iterations <=

             Iter  Converged  Remaining    Residual
  CGR           1          0          1   1.160E-01
  CGR           2          0          1   3.471E-02
  CGR           3          0          1   1.283E-02
  CGR           4          0          1   3.275E-03
  CGR           5          0          1   1.196E-03
  CGR           6          0          1   4.026E-04
  CGR           7          0          1   1.374E-04
  CGR           8          0          1   6.608E-05
  CGR           9          0          1   2.418E-05
  CGR          10          0          1   7.961E-06
  CGR          11          0          1   2.500E-06
  CGR          12          1          0   9.794E-07

    CGRSolver converged.

	-----------------------------------------------------------
	 ==================> DF-MP2 Energies <==================== 
	-----------------------------------------------------------
	 Reference Energy          =    -323.9862628845784229 [Eh]
	 Singles Energy            =      -0.0000000000000000 [Eh]
	 Same-Spin Energy          =      -0.3339804481870374 [Eh]
	 Opposite-Spin Energy      =      -1.0895645825815694 [Eh]
	 Correlation Energy        =      -1.4235450307686068 [Eh]
	 Total Energy              =    -325.4098079153470167 [Eh]
	-----------------------------------------------------------
	 ================> DF-SCS-MP2 Energies <================== 
	-----------------------------------------------------------
	 SCS Same-Spin Scale       =       0.3333333333333333 [-]
	 SCS Opposite-Spin Scale   =       1.2000000000000000 [-]
	 SCS Same-Spin Energy      =      -0.1113268160623458 [Eh]
	 SCS Opposite-Spin Energy  =      -1.3074774990978832 [Eh]
	 SCS Correlation Energy    =      -1.4188043151602290 [Eh]
	 SCS Total Energy          =    -325.4050671997386530 [Eh]
	-----------------------------------------------------------



Properties will be evaluated at  -0.000000,   0.000000,  -0.000000 [a0]

Properties computed using the MP2 density matrix

  Nuclear Dipole Moment: [e a0]
     X:    -1.5346      Y:    -3.4970      Z:    -0.9115

  Electronic Dipole Moment: [e a0]
     X:     1.2466      Y:     2.1060      Z:     0.9369

  Dipole Moment: [e a0]
     X:    -0.2879      Y:    -1.3910      Z:     0.0254     Total:     1.4207

  Dipole Moment: [D]
     X:    -0.7319      Y:    -3.5356      Z:     0.0646     Total:     3.6111


*** tstop() called on node35.bme.utexas.edu at Thu Feb  4 05:07:37 2021
Module time:
	user time   =     619.98 seconds =      10.33 minutes
	system time =     131.12 seconds =       2.19 minutes
	total time  =        135 seconds =       2.25 minutes
Total time:
	user time   =     876.42 seconds =      14.61 minutes
	system time =     196.67 seconds =       3.28 minutes
	total time  =        210 seconds =       3.50 minutes

    Psi4 stopped on: Thursday, 04 February 2021 05:07AM
    Psi4 wall time for execution: 0:03:30.11

*** Psi4 exiting successfully. Buy a developer a beer!
