17904790                                                                
Freq      RMP2-FC                                                     6-31G(d)            
Number of atoms                            I               14
Info1-9                                    I   N=           9
          26          24        1002           0           0         100
           6           2           1
Charge                                     I                0
Multiplicity                               I                1
Number of electrons                        I               52
Number of alpha electrons                  I               26
Number of beta electrons                   I               26
Number of basis functions                  I              119
Number of independent functions            I              119
Number of point charges in /Mol/           I                0
Number of translation vectors              I                0
Atomic numbers                             I   N=          14
           8           7           6           6           6           6
           6           1           1           1           1           1
           1           1
Nuclear charges                            R   N=          14
  8.00000000E+00  7.00000000E+00  6.00000000E+00  6.00000000E+00  6.00000000E+00
  6.00000000E+00  6.00000000E+00  1.00000000E+00  1.00000000E+00  1.00000000E+00
  1.00000000E+00  1.00000000E+00  1.00000000E+00  1.00000000E+00
Current cartesian coordinates              R   N=          42
 -2.87469688E+00 -1.34041070E+00  1.15921486E-04  3.76077774E+00 -6.88606709E-01
 -9.76215869E-05 -4.19294691E-01 -5.04490941E-01  3.02851408E-05  1.61561791E+00
 -2.15526456E+00 -4.72766476E-05  5.29931502E-01  2.00419209E+00  2.25799499E-05
  3.14456849E+00  1.82216192E+00 -6.79317118E-05 -4.70278844E+00  6.28476870E-01
  4.97181322E-05  1.67251354E+00 -4.19456959E+00 -7.30622204E-05 -5.34004308E-01
  3.74753881E+00  6.92004387E-05  5.54179263E+00 -1.37748113E+00 -1.76142588E-04
  4.58161555E+00  3.27358149E+00 -9.14202036E-05 -6.53810975E+00 -3.06876276E-01
  8.23961619E-05 -4.52994149E+00  1.81538718E+00 -1.68892016E+00 -4.52994391E+00
  1.81549983E+00  1.68894092E+00
Force Field                                I                0
Int Atom Types                             I   N=          14
           0           0           0           0           0           0
           0           0           0           0           0           0
           0           0
MM charges                                 R   N=          14
  0.00000000E+00  0.00000000E+00  0.00000000E+00  0.00000000E+00  0.00000000E+00
  0.00000000E+00  0.00000000E+00  0.00000000E+00  0.00000000E+00  0.00000000E+00
  0.00000000E+00  0.00000000E+00  0.00000000E+00  0.00000000E+00
Integer atomic weights                     I   N=          14
          16          14          12          12          12          12
          12           1           1           1           1           1
           1           1
Real atomic weights                        R   N=          14
  1.59949146E+01  1.40030740E+01  1.20000000E+01  1.20000000E+01  1.20000000E+01
  1.20000000E+01  1.20000000E+01  1.00782504E+00  1.00782504E+00  1.00782504E+00
  1.00782504E+00  1.00782504E+00  1.00782504E+00  1.00782504E+00
Atom fragment info                         I   N=          14
           0           0           0           0           0           0
           0           0           0           0           0           0
           0           0
Atom residue num                           I   N=          14
           0           0           0           0           0           0
           0           0           0           0           0           0
           0           0
Nuclear spins                              I   N=          14
           0           2           0           0           0           0
           0           1           1           1           1           1
           1           1
Nuclear ZEff                               R   N=          14
 -5.60000000E+00 -4.55000000E+00 -3.60000000E+00 -3.60000000E+00 -3.60000000E+00
 -3.60000000E+00 -3.60000000E+00 -1.00000000E+00 -1.00000000E+00 -1.00000000E+00
 -1.00000000E+00 -1.00000000E+00 -1.00000000E+00 -1.00000000E+00
Nuclear QMom                               R   N=          14
  0.00000000E+00  2.04400000E+00  0.00000000E+00  0.00000000E+00  0.00000000E+00
  0.00000000E+00  0.00000000E+00  0.00000000E+00  0.00000000E+00  0.00000000E+00
  0.00000000E+00  0.00000000E+00  0.00000000E+00  0.00000000E+00
Nuclear GFac                               R   N=          14
  0.00000000E+00  4.03761000E-01  0.00000000E+00  0.00000000E+00  0.00000000E+00
  0.00000000E+00  0.00000000E+00  2.79284600E+00  2.79284600E+00  2.79284600E+00
  2.79284600E+00  2.79284600E+00  2.79284600E+00  2.79284600E+00
MicOpt                                     I   N=          14
          -1          -1          -1          -1          -1          -1
          -1          -1          -1          -1          -1          -1
          -1          -1
Number of contracted shells                I               42
Number of primitive shells                 I              105
Pure/Cartesian d shells                    I                1
Pure/Cartesian f shells                    I                0
Highest angular momentum                   I                2
Largest degree of contraction              I                6
Shell types                                I   N=          42
           0          -1          -1           2           0          -1
          -1           2           0          -1          -1           2
           0          -1          -1           2           0          -1
          -1           2           0          -1          -1           2
           0          -1          -1           2           0           0
           0           0           0           0           0           0
           0           0           0           0           0           0
Number of primitives per shell             I   N=          42
           6           3           1           1           6           3
           1           1           6           3           1           1
           6           3           1           1           6           3
           1           1           6           3           1           1
           6           3           1           1           3           1
           3           1           3           1           3           1
           3           1           3           1           3           1
Shell to atom map                          I   N=          42
           1           1           1           1           2           2
           2           2           3           3           3           3
           4           4           4           4           5           5
           5           5           6           6           6           6
           7           7           7           7           8           8
           9           9          10          10          11          11
          12          12          13          13          14          14
Primitive exponents                        R   N=         105
  5.48467166E+03  8.25234946E+02  1.88046958E+02  5.29645000E+01  1.68975704E+01
  5.79963534E+00  1.55396162E+01  3.59993359E+00  1.01376175E+00  2.70005823E-01
  8.00000000E-01  4.17351146E+03  6.27457911E+02  1.42902093E+02  4.02343293E+01
  1.28202129E+01  4.39043701E+00  1.16263619E+01  2.71627981E+00  7.72218397E-01
  2.12031498E-01  8.00000000E-01  3.04752488E+03  4.57369518E+02  1.03948685E+02
  2.92101553E+01  9.28666296E+00  3.16392696E+00  7.86827235E+00  1.88128854E+00
  5.44249258E-01  1.68714478E-01  8.00000000E-01  3.04752488E+03  4.57369518E+02
  1.03948685E+02  2.92101553E+01  9.28666296E+00  3.16392696E+00  7.86827235E+00
  1.88128854E+00  5.44249258E-01  1.68714478E-01  8.00000000E-01  3.04752488E+03
  4.57369518E+02  1.03948685E+02  2.92101553E+01  9.28666296E+00  3.16392696E+00
  7.86827235E+00  1.88128854E+00  5.44249258E-01  1.68714478E-01  8.00000000E-01
  3.04752488E+03  4.57369518E+02  1.03948685E+02  2.92101553E+01  9.28666296E+00
  3.16392696E+00  7.86827235E+00  1.88128854E+00  5.44249258E-01  1.68714478E-01
  8.00000000E-01  3.04752488E+03  4.57369518E+02  1.03948685E+02  2.92101553E+01
  9.28666296E+00  3.16392696E+00  7.86827235E+00  1.88128854E+00  5.44249258E-01
  1.68714478E-01  8.00000000E-01  1.87311370E+01  2.82539436E+00  6.40121692E-01
  1.61277759E-01  1.87311370E+01  2.82539436E+00  6.40121692E-01  1.61277759E-01
  1.87311370E+01  2.82539436E+00  6.40121692E-01  1.61277759E-01  1.87311370E+01
  2.82539436E+00  6.40121692E-01  1.61277759E-01  1.87311370E+01  2.82539436E+00
  6.40121692E-01  1.61277759E-01  1.87311370E+01  2.82539436E+00  6.40121692E-01
  1.61277759E-01  1.87311370E+01  2.82539436E+00  6.40121692E-01  1.61277759E-01
Contraction coefficients                   R   N=         105
  1.83107443E-03  1.39501722E-02  6.84450781E-02  2.32714336E-01  4.70192898E-01
  3.58520853E-01 -1.10777550E-01 -1.48026263E-01  1.13076702E+00  1.00000000E+00
  1.00000000E+00  1.83477216E-03  1.39946270E-02  6.85865518E-02  2.32240873E-01
  4.69069948E-01  3.60455199E-01 -1.14961182E-01 -1.69117479E-01  1.14585195E+00
  1.00000000E+00  1.00000000E+00  1.83473713E-03  1.40373228E-02  6.88426223E-02
  2.32184443E-01  4.67941348E-01  3.62311985E-01 -1.19332420E-01 -1.60854152E-01
  1.14345644E+00  1.00000000E+00  1.00000000E+00  1.83473713E-03  1.40373228E-02
  6.88426223E-02  2.32184443E-01  4.67941348E-01  3.62311985E-01 -1.19332420E-01
 -1.60854152E-01  1.14345644E+00  1.00000000E+00  1.00000000E+00  1.83473713E-03
  1.40373228E-02  6.88426223E-02  2.32184443E-01  4.67941348E-01  3.62311985E-01
 -1.19332420E-01 -1.60854152E-01  1.14345644E+00  1.00000000E+00  1.00000000E+00
  1.83473713E-03  1.40373228E-02  6.88426223E-02  2.32184443E-01  4.67941348E-01
  3.62311985E-01 -1.19332420E-01 -1.60854152E-01  1.14345644E+00  1.00000000E+00
  1.00000000E+00  1.83473713E-03  1.40373228E-02  6.88426223E-02  2.32184443E-01
  4.67941348E-01  3.62311985E-01 -1.19332420E-01 -1.60854152E-01  1.14345644E+00
  1.00000000E+00  1.00000000E+00  3.34946043E-02  2.34726953E-01  8.13757326E-01
  1.00000000E+00  3.34946043E-02  2.34726953E-01  8.13757326E-01  1.00000000E+00
  3.34946043E-02  2.34726953E-01  8.13757326E-01  1.00000000E+00  3.34946043E-02
  2.34726953E-01  8.13757326E-01  1.00000000E+00  3.34946043E-02  2.34726953E-01
  8.13757326E-01  1.00000000E+00  3.34946043E-02  2.34726953E-01  8.13757326E-01
  1.00000000E+00  3.34946043E-02  2.34726953E-01  8.13757326E-01  1.00000000E+00
P(S=P) Contraction coefficients            R   N=         105
  0.00000000E+00  0.00000000E+00  0.00000000E+00  0.00000000E+00  0.00000000E+00
  0.00000000E+00  7.08742682E-02  3.39752839E-01  7.27158577E-01  1.00000000E+00
  0.00000000E+00  0.00000000E+00  0.00000000E+00  0.00000000E+00  0.00000000E+00
  0.00000000E+00  0.00000000E+00  6.75797439E-02  3.23907296E-01  7.40895140E-01
  1.00000000E+00  0.00000000E+00  0.00000000E+00  0.00000000E+00  0.00000000E+00
  0.00000000E+00  0.00000000E+00  0.00000000E+00  6.89990666E-02  3.16423961E-01
  7.44308291E-01  1.00000000E+00  0.00000000E+00  0.00000000E+00  0.00000000E+00
  0.00000000E+00  0.00000000E+00  0.00000000E+00  0.00000000E+00  6.89990666E-02
  3.16423961E-01  7.44308291E-01  1.00000000E+00  0.00000000E+00  0.00000000E+00
  0.00000000E+00  0.00000000E+00  0.00000000E+00  0.00000000E+00  0.00000000E+00
  6.89990666E-02  3.16423961E-01  7.44308291E-01  1.00000000E+00  0.00000000E+00
  0.00000000E+00  0.00000000E+00  0.00000000E+00  0.00000000E+00  0.00000000E+00
  0.00000000E+00  6.89990666E-02  3.16423961E-01  7.44308291E-01  1.00000000E+00
  0.00000000E+00  0.00000000E+00  0.00000000E+00  0.00000000E+00  0.00000000E+00
  0.00000000E+00  0.00000000E+00  6.89990666E-02  3.16423961E-01  7.44308291E-01
  1.00000000E+00  0.00000000E+00  0.00000000E+00  0.00000000E+00  0.00000000E+00
  0.00000000E+00  0.00000000E+00  0.00000000E+00  0.00000000E+00  0.00000000E+00
  0.00000000E+00  0.00000000E+00  0.00000000E+00  0.00000000E+00  0.00000000E+00
  0.00000000E+00  0.00000000E+00  0.00000000E+00  0.00000000E+00  0.00000000E+00
  0.00000000E+00  0.00000000E+00  0.00000000E+00  0.00000000E+00  0.00000000E+00
  0.00000000E+00  0.00000000E+00  0.00000000E+00  0.00000000E+00  0.00000000E+00
Coordinates of each shell                  R   N=         126
 -2.87469688E+00 -1.34041070E+00  1.15921486E-04 -2.87469688E+00 -1.34041070E+00
  1.15921486E-04 -2.87469688E+00 -1.34041070E+00  1.15921486E-04 -2.87469688E+00
 -1.34041070E+00  1.15921486E-04  3.76077774E+00 -6.88606709E-01 -9.76215869E-05
  3.76077774E+00 -6.88606709E-01 -9.76215869E-05  3.76077774E+00 -6.88606709E-01
 -9.76215869E-05  3.76077774E+00 -6.88606709E-01 -9.76215869E-05 -4.19294691E-01
 -5.04490941E-01  3.02851408E-05 -4.19294691E-01 -5.04490941E-01  3.02851408E-05
 -4.19294691E-01 -5.04490941E-01  3.02851408E-05 -4.19294691E-01 -5.04490941E-01
  3.02851408E-05  1.61561791E+00 -2.15526456E+00 -4.72766476E-05  1.61561791E+00
 -2.15526456E+00 -4.72766476E-05  1.61561791E+00 -2.15526456E+00 -4.72766476E-05
  1.61561791E+00 -2.15526456E+00 -4.72766476E-05  5.29931502E-01  2.00419209E+00
  2.25799499E-05  5.29931502E-01  2.00419209E+00  2.25799499E-05  5.29931502E-01
  2.00419209E+00  2.25799499E-05  5.29931502E-01  2.00419209E+00  2.25799499E-05
  3.14456849E+00  1.82216192E+00 -6.79317118E-05  3.14456849E+00  1.82216192E+00
 -6.79317118E-05  3.14456849E+00  1.82216192E+00 -6.79317118E-05  3.14456849E+00
  1.82216192E+00 -6.79317118E-05 -4.70278844E+00  6.28476870E-01  4.97181322E-05
 -4.70278844E+00  6.28476870E-01  4.97181322E-05 -4.70278844E+00  6.28476870E-01
  4.97181322E-05 -4.70278844E+00  6.28476870E-01  4.97181322E-05  1.67251354E+00
 -4.19456959E+00 -7.30622204E-05  1.67251354E+00 -4.19456959E+00 -7.30622204E-05
 -5.34004308E-01  3.74753881E+00  6.92004387E-05 -5.34004308E-01  3.74753881E+00
  6.92004387E-05  5.54179263E+00 -1.37748113E+00 -1.76142588E-04  5.54179263E+00
 -1.37748113E+00 -1.76142588E-04  4.58161555E+00  3.27358149E+00 -9.14202036E-05
  4.58161555E+00  3.27358149E+00 -9.14202036E-05 -6.53810975E+00 -3.06876276E-01
  8.23961619E-05 -6.53810975E+00 -3.06876276E-01  8.23961619E-05 -4.52994149E+00
  1.81538718E+00 -1.68892016E+00 -4.52994149E+00  1.81538718E+00 -1.68892016E+00
 -4.52994391E+00  1.81549983E+00  1.68894092E+00 -4.52994391E+00  1.81549983E+00
  1.68894092E+00
Constraint Structure                       R   N=          42
 -2.87469688E+00 -1.34041070E+00  1.15921486E-04  3.76077774E+00 -6.88606709E-01
 -9.76215869E-05 -4.19294691E-01 -5.04490941E-01  3.02851408E-05  1.61561791E+00
 -2.15526456E+00 -4.72766476E-05  5.29931502E-01  2.00419209E+00  2.25799499E-05
  3.14456849E+00  1.82216192E+00 -6.79317118E-05 -4.70278844E+00  6.28476870E-01
  4.97181322E-05  1.67251354E+00 -4.19456959E+00 -7.30622204E-05 -5.34004308E-01
  3.74753881E+00  6.92004387E-05  5.54179263E+00 -1.37748113E+00 -1.76142588E-04
  4.58161555E+00  3.27358149E+00 -9.14202036E-05 -6.53810975E+00 -3.06876276E-01
  8.23961619E-05 -4.52994149E+00  1.81538718E+00 -1.68892016E+00 -4.52994391E+00
  1.81549983E+00  1.68894092E+00
Num ILSW                                   I              100
ILSW                                       I   N=         100
           0           1           0           1           2           0
           0           0           0           0           0          -1
           0           0           0           0           0           0
           0           0           0           0           1           0
           1           0           0           0           0           0
           0           0      100000           0          -1           0
           0           0           0           0           0           0
           0           0           0           1           1           0
           0           0           1           0           0           0
           0           0           4          40           0           0
           0           0           0           0           0           0
           0           0           0           0           0           0
           0           0           0           0           0           0
           0           0           0           0           0           0
           0           0           0           0           0           0
           0           0           0           0           0           0
           0           0           0           0
Num RLSW                                   I               40
RLSW                                       R   N=          40
  1.00000000E+00  1.00000000E+00  1.00000000E+00  1.00000000E+00  1.00000000E+00
  0.00000000E+00  0.00000000E+00  1.00000000E+00  0.00000000E+00  0.00000000E+00
  0.00000000E+00  0.00000000E+00  1.00000000E+00  0.00000000E+00  0.00000000E+00
  0.00000000E+00  0.00000000E+00  1.00000000E+00  0.00000000E+00  0.00000000E+00
  0.00000000E+00  0.00000000E+00  1.00000000E+00  0.00000000E+00  0.00000000E+00
  0.00000000E+00  0.00000000E+00  1.00000000E+00  0.00000000E+00  0.00000000E+00
  0.00000000E+00  0.00000000E+00  0.00000000E+00  0.00000000E+00  0.00000000E+00
  0.00000000E+00  0.00000000E+00  0.00000000E+00  1.00000000E+00  1.00000000E+00
MxBond                                     I                4
NBond                                      I   N=          14
           2           3           3           3           3           3
           4           1           1           1           1           1
           1           1
IBond                                      I   N=          56
           3           7           0           0           4           6
          10           0           1           4           5           0
           2           3           8           0           3           6
           9           0           2           5          11           0
           1          12          13          14           4           0
           0           0           5           0           0           0
           2           0           0           0           6           0
           0           0           7           0           0           0
           7           0           0           0           7           0
           0           0
RBond                                      R   N=          56
  1.50000000E+00  1.00000000E+00  0.00000000E+00  0.00000000E+00  1.00000000E+00
  1.00000000E+00  1.00000000E+00  0.00000000E+00  1.50000000E+00  1.50000000E+00
  1.50000000E+00  0.00000000E+00  1.00000000E+00  1.50000000E+00  1.00000000E+00
  0.00000000E+00  1.50000000E+00  1.50000000E+00  1.00000000E+00  0.00000000E+00
  1.00000000E+00  1.50000000E+00  1.00000000E+00  0.00000000E+00  1.00000000E+00
  1.00000000E+00  1.00000000E+00  1.00000000E+00  1.00000000E+00  0.00000000E+00
  0.00000000E+00  0.00000000E+00  1.00000000E+00  0.00000000E+00  0.00000000E+00
  0.00000000E+00  1.00000000E+00  0.00000000E+00  0.00000000E+00  0.00000000E+00
  1.00000000E+00  0.00000000E+00  0.00000000E+00  0.00000000E+00  1.00000000E+00
  0.00000000E+00  0.00000000E+00  0.00000000E+00  1.00000000E+00  0.00000000E+00
  0.00000000E+00  0.00000000E+00  1.00000000E+00  0.00000000E+00  0.00000000E+00
  0.00000000E+00
Virial Ratio                               R      2.002547903747005E+00
SCF Energy                                 R     -3.226777612899105E+02
MP2 Energy                                 R     -3.236603864773823E+02
Total Energy                               R     -3.236603864773823E+02
Post-SCF wavefunction norm                 R      1.628549275475772E+00
RMS Force                                  R      9.252785749486818E-07
RMS Density                                R      2.240532996870394E-09
External E-field                           R   N=          35
  0.00000000E+00  0.00000000E+00  0.00000000E+00  0.00000000E+00  0.00000000E+00
  0.00000000E+00  0.00000000E+00  0.00000000E+00  0.00000000E+00  0.00000000E+00
  0.00000000E+00  0.00000000E+00  0.00000000E+00  0.00000000E+00  0.00000000E+00
  0.00000000E+00  0.00000000E+00  0.00000000E+00  0.00000000E+00  0.00000000E+00
  0.00000000E+00  0.00000000E+00  0.00000000E+00  0.00000000E+00  0.00000000E+00
  0.00000000E+00  0.00000000E+00  0.00000000E+00  0.00000000E+00  0.00000000E+00
  0.00000000E+00  0.00000000E+00  0.00000000E+00  0.00000000E+00  0.00000000E+00
IOpCl                                      I                0
IROHF                                      I                0
Alpha Orbital Energies                     R   N=         119
 -2.05704138E+01 -1.56084792E+01 -1.12725794E+01 -1.12662115E+01 -1.12556945E+01
 -1.12363925E+01 -1.12081854E+01 -1.38212678E+00 -1.28164569E+00 -1.03307198E+00
 -9.79717110E-01 -9.19008493E-01 -7.94751422E-01 -7.48564973E-01 -7.30314195E-01
 -6.40525489E-01 -6.36173517E-01 -6.11191074E-01 -5.79414522E-01 -5.61945637E-01
 -5.59544873E-01 -5.31754055E-01 -4.78990836E-01 -4.75043736E-01 -3.26464061E-01
 -2.75485374E-01  1.95298526E-01  2.21437113E-01  2.56836279E-01  2.79314350E-01
  2.88558737E-01  3.09648953E-01  3.12810990E-01  3.22996334E-01  3.37154538E-01
  3.46807684E-01  4.12678979E-01  4.39725126E-01  5.00109204E-01  5.25978130E-01
  5.67959944E-01  6.83718729E-01  7.39228898E-01  7.61738069E-01  7.92137904E-01
  7.92630776E-01  8.15877998E-01  8.33798915E-01  8.39540681E-01  8.58428328E-01
  8.63813402E-01  8.88297267E-01  9.15938027E-01  9.60678728E-01  9.71397894E-01
  1.03761445E+00  1.07513702E+00  1.09475751E+00  1.12366647E+00  1.12999812E+00
  1.14001650E+00  1.16542576E+00  1.17718456E+00  1.18676278E+00  1.20882105E+00
  1.25166096E+00  1.27857355E+00  1.34952494E+00  1.35386263E+00  1.42743591E+00
  1.48354058E+00  1.50337709E+00  1.57494655E+00  1.60886309E+00  1.62872344E+00
  1.64573881E+00  1.67393840E+00  1.74784807E+00  1.75212961E+00  1.78845680E+00
  1.78960438E+00  1.84162765E+00  1.95040290E+00  2.09268035E+00  2.16702283E+00
  2.21774049E+00  2.27653552E+00  2.31829380E+00  2.33712109E+00  2.38572859E+00
  2.42487609E+00  2.45124760E+00  2.45271673E+00  2.52398863E+00  2.53932242E+00
  2.56159661E+00  2.59867987E+00  2.63920379E+00  2.66210300E+00  2.71091597E+00
  2.72385475E+00  2.88345903E+00  2.89520054E+00  2.94665714E+00  2.98243976E+00
  3.06611342E+00  3.12792832E+00  3.15620841E+00  3.19885543E+00  3.39282115E+00
  3.51932655E+00  3.56285789E+00  4.36298328E+00  4.51623858E+00  4.55794671E+00
  4.65949534E+00  4.78624447E+00  4.80328617E+00  5.09934187E+00
Alpha MO coefficients                      R   N=       14161
  9.94651407E-01  2.12263457E-02  3.71682673E-04  1.27209684E-03 -6.77219603E-08
  3.93268137E-03 -3.86127621E-05 -8.43677917E-04  3.22634961E-08 -4.17372122E-03
 -4.11182168E-03 -3.84359264E-03  5.45580429E-05  2.14325906E-09  1.46620011E-08
  1.14330599E-05  4.90232411E-05 -2.13915374E-06 -1.73117463E-06 -3.25964629E-10
 -4.82759141E-04  1.83858191E-04 -8.53425573E-05 -4.90598177E-09  9.18444042E-06
  2.29359865E-05  2.42335202E-05  9.30303467E-08  2.38519148E-10  4.43960966E-10
 -1.27314987E-05  3.43177174E-04 -3.28098277E-04 -1.43824508E-04  1.23552776E-08
  2.62475587E-04  1.97255804E-05  9.94035844E-04 -8.10646227E-09 -6.14966182E-05
 -1.22427124E-05 -7.12129979E-05  3.69256961E-06  5.45744625E-10  7.65455061E-10
  1.03816482E-07  9.85155941E-06 -5.88764347E-06  5.90174270E-06  7.88570000E-10
  5.65143945E-04 -6.74866602E-05  1.98432772E-04  7.27996649E-09 -3.35793805E-05
  2.50528350E-05 -9.52307820E-06  1.48373032E-05  6.32562194E-10  6.12241330E-10
  1.49655839E-05  1.00088700E-04  1.79457821E-05  1.18445548E-05 -1.20578485E-09
 -1.06461955E-03  1.44663655E-04  5.60977393E-04  7.48459202E-09 -3.52849832E-05
 -5.57756752E-06  2.35131023E-05 -5.30156003E-05  1.57859994E-09  1.98556776E-10
 -1.65181372E-06 -9.74368557E-06 -5.33869664E-06  5.10847383E-06  2.76319456E-10
  2.93356226E-04 -1.61632663E-04 -3.04551335E-04  1.18948870E-09  7.93272008E-06
  6.71443928E-06 -4.99058990E-06 -7.10624701E-06 -4.86596038E-10  3.38775408E-12
 -8.40351225E-06  2.65217304E-04  2.85861541E-04 -3.12694695E-04  1.08229616E-08
  5.89306383E-05 -2.80127528E-06  2.26349604E-04 -1.07401688E-08  3.77344348E-05
  1.88690782E-05 -1.99064060E-05 -9.57831941E-05  3.42156920E-09 -1.71381248E-09
  4.34055456E-06  2.05753858E-05  1.01694659E-05 -8.12883599E-05 -2.62366007E-06
 -3.21165635E-05  2.11551205E-05  1.06900102E-04  8.69323314E-06 -5.08944333E-05
 -4.19599477E-05 -9.59660346E-05 -4.19596386E-05 -9.59607676E-05 -4.40376193E-06
 -2.72537746E-06 -1.99822693E-05  1.47122242E-05  1.20645047E-09 -2.41697492E-05
  7.44757633E-05 -1.20299661E-04 -4.88458593E-09 -1.13758048E-05 -2.79539208E-05
 -1.27998010E-05 -1.23696196E-05 -9.48005838E-10  5.68259720E-10  9.94981912E-01
  2.52058129E-02 -7.91047826E-05  4.53332439E-05 -1.68308694E-08 -3.64145956E-03
  1.20733499E-03 -5.06705078E-04 -2.66693171E-08 -3.37688584E-03 -3.42372768E-03
 -3.38649878E-03 -3.27660999E-05 -2.05969989E-09  2.23280872E-09  1.07261134E-05
  2.19236328E-06 -8.66605858E-06  4.59759383E-05  1.06348101E-09 -8.51269650E-04
 -7.13428012E-04  4.98990294E-04  2.56612725E-08  3.03356307E-05  2.24080500E-05
  4.34267394E-06  3.08290620E-05 -3.78244624E-10 -9.82603943E-10  1.17668424E-05
  1.37821104E-04  2.27094215E-04  1.17916589E-04 -6.23753464E-09  2.42263274E-03
  1.33319956E-04  1.38431520E-03  8.43645950E-09 -6.92492360E-05 -7.10651608E-05
 -8.35763401E-05 -2.46882979E-05 -9.70303157E-10  8.84025045E-10  1.71289075E-05
  4.13539689E-05 -6.13610712E-05 -2.63271591E-05  2.19692879E-09 -1.19470443E-03
 -3.53936034E-04  5.45126880E-04  1.69371472E-08  2.81430410E-06  4.95758159E-05
  1.86001523E-05 -1.30007938E-05  8.72448939E-10  1.08705385E-10  1.82236042E-05
  1.56392283E-04  9.89335320E-05 -2.41690699E-04 -4.51593369E-09  2.17891439E-03
 -6.76015558E-04 -1.25389654E-03  1.27740608E-08 -5.49608917E-05 -9.61077827E-05
 -7.17900185E-05  1.00725407E-05 -1.28230465E-09 -4.38682462E-10  8.79508776E-06
  3.26745444E-05  2.62855247E-05 -1.01994565E-05  3.98487258E-10 -7.74205846E-05
 -1.40479473E-04 -6.06400942E-05  6.72983123E-09  6.99198445E-06  2.71537771E-05
  1.06620373E-05 -5.90590224E-06  6.89086899E-10 -1.19410465E-09  1.43841620E-07
  3.22280144E-04 -3.33670182E-05 -1.04496934E-04  1.22677803E-04  1.16246594E-04
  8.29110163E-06  3.34470524E-04 -8.86862417E-06 -7.13266752E-05  1.34695136E-05
  1.07095120E-05  1.34707862E-05  1.07009245E-05 -1.00430350E-04  4.09876451E-04
 -1.02852030E-04  2.30608495E-04 -5.01720708E-09 -6.15586367E-05 -1.80100866E-04
 -9.75138931E-04  2.65810381E-08 -3.27204809E-04 -3.74290446E-04  2.46549164E-04
  3.57783419E-04 -1.18018952E-08  2.75152994E-08  3.12155564E-05  1.23431447E-04
  7.97828124E-07  7.60064822E-06  2.33857581E-10 -1.69351134E-03  7.00072386E-04
 -1.88128691E-04 -2.62539685E-08  6.10650473E-05  4.56985998E-05  4.52084866E-05
 -2.62428721E-05 -1.36916332E-09  1.68703632E-09 -1.04158790E-03 -2.26411317E-04
  8.19855511E-05 -9.93351879E-05  9.76823226E-10 -1.94398052E-04 -2.86015601E-03
  2.12650140E-03  6.29964537E-08  2.54581533E-04  7.50812650E-05 -2.30458571E-05
  3.97249123E-05 -9.79194799E-10 -5.26555226E-09  2.43659997E-05 -1.29586804E-04
 -4.65644686E-05  1.90184708E-05 -2.57012695E-10  3.26326429E-03 -5.45884572E-04
  1.64833428E-03  5.16454699E-08  4.59175751E-05  2.20227157E-05 -3.66499346E-05
  2.46843122E-05 -3.40557537E-09  1.74695195E-09 -2.07527732E-05  1.67744796E-04
  9.05659999E-05  4.61463163E-06 -6.09840177E-10 -2.27401863E-03 -3.48411089E-04
  8.02819436E-04  2.31633800E-08 -8.84310558E-05  2.03217285E-05  2.54481962E-05
 -6.21437074E-05  5.99824329E-09 -1.69745140E-09 -7.60496474E-07 -1.44215723E-04
 -2.27130602E-06 -1.12039497E-05 -1.58582141E-09  1.62191491E-03 -1.03717848E-03
 -8.71747750E-04  3.30366665E-08  6.13242305E-05  1.36706786E-05 -5.51759190E-05
  9.07244594E-06 -4.77848480E-09 -1.30569576E-09  9.95828832E-01  2.76364252E-02
  8.58925518E-04 -6.14367762E-04  2.31332207E-08 -1.24889314E-02 -7.51998681E-04
 -5.80548191E-04  2.52432233E-08 -1.57905888E-03 -1.53995572E-03 -1.69316279E-03
 -7.84450587E-05  4.37159047E-09 -6.22734788E-09  2.24983714E-05  4.12019165E-04
 -1.48664495E-05 -1.34284741E-04 -3.93557240E-05 -5.16103213E-05  4.27860025E-05
  4.37928032E-04 -5.06071667E-06  1.89523721E-03  1.67402447E-04  2.52385311E-03
  1.67399649E-04  2.52385727E-03  7.35448747E-05  1.36034747E-03  2.43847139E-04
  8.45194582E-05 -1.32309092E-08 -6.16380395E-03 -3.11502830E-03 -9.93244232E-04
  1.32727763E-07 -4.40159140E-04  5.56239470E-04  9.20641604E-04 -4.24654121E-04
  5.56431705E-08  2.46651445E-08  4.55457730E-05  1.08592728E-04 -4.27424470E-05
  2.37904732E-05  9.56838526E-10 -2.26245481E-03  8.33445201E-04  5.74421899E-04
 -1.60929655E-08  1.83578648E-04  1.09917336E-04  7.87971303E-05 -2.33856112E-05
 -4.00221856E-09  1.49551324E-09  9.95568737E-01  2.73087067E-02 -9.77799787E-04
 -1.75455070E-04  3.79118324E-08 -1.41239356E-02 -8.43423340E-03 -3.52288122E-03
  2.51407918E-07 -6.60846678E-04 -1.42403468E-03 -2.09125609E-03  3.02809040E-04
 -5.62690806E-08 -7.28399358E-09  2.06714685E-02  3.77168652E-04  5.43634035E-05
 -1.23996538E-04 -2.09585344E-09  7.16113137E-03 -2.43725976E-04  4.59511376E-03
  4.36430688E-08 -4.22692149E-04 -2.84050985E-04 -1.58813803E-04  5.53013760E-05
  1.07579788E-08 -4.62270056E-09  8.55057489E-03 -1.36125610E-05 -1.81201362E-04
  8.94649773E-05  4.17809961E-09  8.58181492E-03  1.71766061E-03 -4.39797148E-03
 -8.92407653E-08 -3.07157699E-04 -4.62435031E-04 -1.73314592E-04 -9.98164768E-05
  3.42125785E-09  7.35870220E-10 -2.48138986E-04 -1.00670858E-04  1.26358007E-04
 -7.82722809E-05 -3.22796726E-09 -2.55913896E-03  7.52801761E-04  2.43001714E-04
 -3.39925758E-08  9.34712692E-05  7.55781837E-05 -7.08258496E-06  8.85635322E-05