
    -----------------------------------------------------------------------
          Psi4: An Open-Source Ab Initio Electronic Structure Package
                               Psi4 1.4a3.dev225 

                         Git: Rev {master} 7105e37 


    D. G. A. Smith, L. A. Burns, A. C. Simmonett, R. M. Parrish,
    M. C. Schieber, R. Galvelis, P. Kraus, H. Kruse, R. Di Remigio,
    A. Alenaizan, A. M. James, S. Lehtola, J. P. Misiewicz, M. Scheurer,
    R. A. Shaw, J. B. Schriber, Y. Xie, Z. L. Glick, D. A. Sirianni,
    J. S. O'Brien, J. M. Waldrop, A. Kumar, E. G. Hohenstein,
    B. P. Pritchard, B. R. Brooks, H. F. Schaefer III, A. Yu. Sokolov,
    K. Patkowski, A. E. DePrince III, U. Bozkaya, R. A. King,
    F. A. Evangelista, J. M. Turney, T. D. Crawford, C. D. Sherrill,
    J. Chem. Phys. 152(18) 184108 (2020). https://doi.org/10.1063/5.0006002

                            Additional Code Authors
    E. T. Seidl, C. L. Janssen, E. F. Valeev, M. L. Leininger,
    J. F. Gonthier, R. M. Richard, H. R. McAlexander, M. Saitow, X. Wang,
    P. Verma, and M. H. Lechner

             Previous Authors, Complete List of Code Contributors,
                       and Citations for Specific Modules
    https://github.com/psi4/psi4/blob/master/codemeta.json
    https://github.com/psi4/psi4/graphs/contributors
    http://psicode.org/psi4manual/master/introduction.html#citing-psifour

    -----------------------------------------------------------------------


    Psi4 started on: Sunday, 28 February 2021 05:38AM

    Process ID: 246278
    Host:       c402-023.stampede2.tacc.utexas.edu
    PSIDATADIR: /home1/07844/xy3866/miniconda3/envs/p4env/share/psi4
    Memory:     500.0 MiB
    Threads:    32
    
  ==> Input File <==

--------------------------------------------------------------------------
#psi4
#
memory 32 gb

molecule  {
0 1
  O        2.7382740    -0.7425350    -0.0126020
  N        0.6793120    -1.7266560     0.0061990
  C       -0.6027900     0.6893070    -0.0105920
  C        0.7782570     0.6611280     0.0035530
  C       -1.3671740    -0.5278470     0.0018860
  C        1.5049430    -0.6032750    -0.0044170
  C       -0.6863680    -1.7128580     0.0067460
  C       -1.3542970     1.9956390    -0.0048030
  C        1.6363160     1.8972900     0.0117510
  C       -2.8711540    -0.5219980    -0.0023590
  H       -1.1766380    -2.6823000     0.0159410
  H       -2.1333760     2.0016470    -0.7732430
  H       -0.6949600     2.8439520    -0.1887900
  H       -1.8505650     2.1568320     0.9594550
  H        1.1855660    -2.6081270     0.0055670
  H        1.5190430     2.4748580    -0.9113220
  H        2.6811620     1.5965790     0.0968200
  H        1.3890810     2.5538390     0.8512930
  H       -3.1861931    -1.3568311     0.0506111
  H       -3.2744260    -0.0723770    -0.9160080
  H       -3.2759870     0.0412750     0.8446610
units angstrom
no_reorient  #important for SAPT in psi4, default
symmetry c1  #important for SAPT in psi4, default
}

set PROPERTIES_ORIGIN ["COM"]
properties('MP2/aug-cc-pvtz', properties = ['dipole'])
--------------------------------------------------------------------------

  Memory set to  29.802 GiB by Python driver.
    SCF Algorithm Type (re)set to DF.

*** tstart() called on c402-023.stampede2.tacc.utexas.edu
*** at Sun Feb 28 05:38:05 2021

   => Loading Basis Set <=

    Name: AUG-CC-PVTZ
    Role: ORBITAL
    Keyword: BASIS
    atoms 1     entry O          line   331 file /home1/07844/xy3866/miniconda3/envs/p4env/share/psi4/basis/aug-cc-pvtz.gbs 
    atoms 2     entry N          line   285 file /home1/07844/xy3866/miniconda3/envs/p4env/share/psi4/basis/aug-cc-pvtz.gbs 
    atoms 3-10  entry C          line   239 file /home1/07844/xy3866/miniconda3/envs/p4env/share/psi4/basis/aug-cc-pvtz.gbs 
    atoms 11-21 entry H          line    40 file /home1/07844/xy3866/miniconda3/envs/p4env/share/psi4/basis/aug-cc-pvtz.gbs 


         ---------------------------------------------------------
                                   SCF
               by Justin Turney, Rob Parrish, Andy Simmonett
                          and Daniel G. A. Smith
                              RHF Reference
                       32 Threads,  30517 MiB Core
         ---------------------------------------------------------

  ==> Geometry <==

    Molecular point group: c1
    Full point group: C1

    Geometry (in Angstrom), charge = 0, multiplicity = 1:

       Center              X                  Y                   Z               Mass       
    ------------   -----------------  -----------------  -----------------  -----------------
         O            2.673515033255    -0.694951657907    -0.012176538447    15.994914619570
         N            0.614553033255    -1.679072657907     0.006624461553    14.003074004430
         C           -0.667548966745     0.736890342093    -0.010166538447    12.000000000000
         C            0.713498033255     0.708711342093     0.003978461553    12.000000000000
         C           -1.431932966745    -0.480263657907     0.002311461553    12.000000000000
         C            1.440184033255    -0.555691657907    -0.003991538447    12.000000000000
         C           -0.751126966745    -1.665274657907     0.007171461553    12.000000000000
         C           -1.419055966745     2.043222342093    -0.004377538447    12.000000000000
         C            1.571557033255     1.944873342093     0.012176461553    12.000000000000
         C           -2.935912966745    -0.474414657907    -0.001933538447    12.000000000000
         H           -1.241396966745    -2.634716657907     0.016366461553     1.007825032230
         H           -2.198134966745     2.049230342093    -0.772817538447     1.007825032230
         H           -0.759718966745     2.891535342093    -0.188364538447     1.007825032230
         H           -1.915323966745     2.204415342093     0.959880461553     1.007825032230
         H            1.120807033255    -2.560543657907     0.005992461553     1.007825032230
         H            1.454284033255     2.522441342093    -0.910896538447     1.007825032230
         H            2.616403033255     1.644162342093     0.097245461553     1.007825032230
         H            1.324322033255     2.601422342093     0.851718461553     1.007825032230
         H           -3.250952066745    -1.309247757907     0.051036561553     1.007825032230
         H           -3.339184966745    -0.024793657907    -0.915582538447     1.007825032230
         H           -3.340745966745     0.088858342093     0.845086461553     1.007825032230

  Running in c1 symmetry.

  Rotational constants: A =      0.06717  B =      0.04157  C =      0.02605 [cm^-1]
  Rotational constants: A =   2013.78205  B =   1246.33651  C =    781.09227 [MHz]
  Nuclear repulsion =  523.847023620457890

  Charge       = 0
  Multiplicity = 1
  Electrons    = 74
  Nalpha       = 37
  Nbeta        = 37

  ==> Algorithm <==

  SCF Algorithm Type is DF.
  DIIS enabled.
  MOM disabled.
  Fractional occupation disabled.
  Guess Type is SAD.
  Energy threshold   = 1.00e-10
  Density threshold  = 1.00e-10
  Integral threshold = 1.00e-12

  ==> Primary Basis <==

  Basis Set: AUG-CC-PVTZ
    Blend: AUG-CC-PVTZ
    Number of shells: 239
    Number of basis functions: 713
    Number of Cartesian functions: 825
    Spherical Harmonics?: true
    Max angular momentum: 3

   => Loading Basis Set <=

    Name: (AUG-CC-PVTZ AUX)
    Role: JKFIT
    Keyword: DF_BASIS_SCF
    atoms 1     entry O          line   286 file /home1/07844/xy3866/miniconda3/envs/p4env/share/psi4/basis/aug-cc-pvtz-jkfit.gbs 
    atoms 2     entry N          line   224 file /home1/07844/xy3866/miniconda3/envs/p4env/share/psi4/basis/aug-cc-pvtz-jkfit.gbs 
    atoms 3-10  entry C          line   162 file /home1/07844/xy3866/miniconda3/envs/p4env/share/psi4/basis/aug-cc-pvtz-jkfit.gbs 
    atoms 11-21 entry H          line    70 file /home1/07844/xy3866/miniconda3/envs/p4env/share/psi4/basis/aug-cc-pvtz-jkfit.gbs 

  ==> Integral Setup <==

  DFHelper Memory: AOs need 5.574 GiB; user supplied 22.352 GiB. Using in-core AOs.

  ==> MemDFJK: Density-Fitted J/K Matrices <==

    J tasked:                   Yes
    K tasked:                   Yes
    wK tasked:                   No
    OpenMP threads:              32
    Memory [MiB]:             22888
    Algorithm:                 Core
    Schwarz Cutoff:           1E-12
    Mask sparsity (%):       8.9368
    Fitting Condition:        1E-10

   => Auxiliary Basis Set <=

  Basis Set: (AUG-CC-PVTZ AUX)
    Blend: AUG-CC-PVTZ-JKFIT
    Number of shells: 454
    Number of basis functions: 1546
    Number of Cartesian functions: 1915
    Spherical Harmonics?: true
    Max angular momentum: 4

  Minimum eigenvalue in the overlap matrix is 8.1023694519E-07.
  Reciprocal condition number of the overlap matrix is 3.8602774665E-08.
    Using symmetric orthogonalization.

  ==> Pre-Iterations <==

  SCF Guess: Superposition of Atomic Densities via on-the-fly atomic UHF (no occupation information).

   -------------------------
    Irrep   Nso     Nmo    
   -------------------------
     A        713     713 
   -------------------------
    Total     713     713
   -------------------------

  ==> Iterations <==

                           Total Energy        Delta E     RMS |[F,P]|

   @DF-RHF iter SAD:  -438.38480535306115   -4.38385e+02   0.00000e+00 
   @DF-RHF iter   1:  -438.43927265289409   -5.44673e-02   1.10859e-03 DIIS
   @DF-RHF iter   2:  -438.71901529149233   -2.79743e-01   5.76404e-04 DIIS
   @DF-RHF iter   3:  -438.78691564145493   -6.79003e-02   1.39605e-04 DIIS
   @DF-RHF iter   4:  -438.79266228008782   -5.74664e-03   5.94879e-05 DIIS
   @DF-RHF iter   5:  -438.79383986295505   -1.17758e-03   1.15822e-05 DIIS
   @DF-RHF iter   6:  -438.79396238916644   -1.22526e-04   6.35209e-06 DIIS
   @DF-RHF iter   7:  -438.79399779118881   -3.54020e-05   2.85152e-06 DIIS
   @DF-RHF iter   8:  -438.79400808287835   -1.02917e-05   1.10257e-06 DIIS
   @DF-RHF iter   9:  -438.79400919887837   -1.11600e-06   3.90554e-07 DIIS
   @DF-RHF iter  10:  -438.79400932138378   -1.22505e-07   1.27200e-07 DIIS
   @DF-RHF iter  11:  -438.79400933289332   -1.15095e-08   5.71147e-08 DIIS
   @DF-RHF iter  12:  -438.79400933540620   -2.51288e-09   2.66661e-08 DIIS
   @DF-RHF iter  13:  -438.79400933610788   -7.01675e-10   9.72284e-09 DIIS
   @DF-RHF iter  14:  -438.79400933621542   -1.07548e-10   5.45171e-09 DIIS
   @DF-RHF iter  15:  -438.79400933623901   -2.35900e-11   1.65968e-09 DIIS
   @DF-RHF iter  16:  -438.79400933624351   -4.49063e-12   7.68461e-10 DIIS
   @DF-RHF iter  17:  -438.79400933624294    5.68434e-13   3.25653e-10 DIIS
   @DF-RHF iter  18:  -438.79400933624282    1.13687e-13   1.06770e-10 DIIS
   @DF-RHF iter  19:  -438.79400933624254    2.84217e-13   4.61562e-11 DIIS
  Energy and wave function converged.


  ==> Post-Iterations <==

    Orbital Energies [Eh]
    ---------------------

    Doubly Occupied:                                                      

       1A    -20.499866     2A    -15.615395     3A    -11.343756  
       4A    -11.296427     5A    -11.268181     6A    -11.242007  
       7A    -11.237927     8A    -11.236051     9A    -11.212629  
      10A    -11.212358    11A     -1.361398    12A     -1.262819  
      13A     -1.132032    14A     -1.067680    15A     -0.992194  
      16A     -0.965398    17A     -0.933751    18A     -0.831000  
      19A     -0.813581    20A     -0.725854    21A     -0.710189  
      22A     -0.645657    23A     -0.620017    24A     -0.605438  
      25A     -0.595451    26A     -0.584601    27A     -0.581310  
      28A     -0.570108    29A     -0.560711    30A     -0.549639  
      31A     -0.537132    32A     -0.505374    33A     -0.501030  
      34A     -0.468255    35A     -0.415295    36A     -0.387082  
      37A     -0.295282  

    Virtual:                                                              

      38A      0.021842    39A      0.026781    40A      0.033943  
      41A      0.038306    42A      0.044830    43A      0.050563  
      44A      0.053388    45A      0.064654    46A      0.067205  
      47A      0.071410    48A      0.075181    49A      0.081945  
      50A      0.089125    51A      0.093592    52A      0.101378  
      53A      0.104847    54A      0.106966    55A      0.112557  
      56A      0.115797    57A      0.119401    58A      0.126928  
      59A      0.130708    60A      0.135307    61A      0.135772  
      62A      0.142916    63A      0.148856    64A      0.153680  
      65A      0.155504    66A      0.158653    67A      0.160970  
      68A      0.164502    69A      0.165694    70A      0.174842  
      71A      0.176741    72A      0.178383    73A      0.186673  
      74A      0.190934    75A      0.201802    76A      0.208882  
      77A      0.213311    78A      0.216847    79A      0.221857  
      80A      0.234251    81A      0.237857    82A      0.241194  
      83A      0.245027    84A      0.249875    85A      0.256299  
      86A      0.265296    87A      0.273861    88A      0.277225  
      89A      0.283598    90A      0.290505    91A      0.295715  
      92A      0.300734    93A      0.305879    94A      0.306317  
      95A      0.313298    96A      0.317116    97A      0.317808  
      98A      0.333830    99A      0.336772   100A      0.338539  
     101A      0.346155   102A      0.350086   103A      0.354437  
     104A      0.356252   105A      0.361378   106A      0.366116  
     107A      0.369185   108A      0.375253   109A      0.379636  
     110A      0.386500   111A      0.389433   112A      0.393676  
     113A      0.396913   114A      0.402604   115A      0.409514  
     116A      0.411625   117A      0.414870   118A      0.421090  
     119A      0.424922   120A      0.426260   121A      0.429076  
     122A      0.433987   123A      0.437722   124A      0.441002  
     125A      0.447620   126A      0.447988   127A      0.453068  
     128A      0.457009   129A      0.467664   130A      0.471108  
     131A      0.472370   132A      0.482376   133A      0.485325  
     134A      0.489454   135A      0.492541   136A      0.493934  
     137A      0.495951   138A      0.499112   139A      0.503402  
     140A      0.505754   141A      0.517297   142A      0.522343  
     143A      0.525746   144A      0.529505   145A      0.531998  
     146A      0.535135   147A      0.540641   148A      0.550308  
     149A      0.551717   150A      0.556214   151A      0.558157  
     152A      0.565262   153A      0.571482   154A      0.579090  
     155A      0.581633   156A      0.585554   157A      0.589736  
     158A      0.601126   159A      0.605740   160A      0.610149  
     161A      0.614415   162A      0.619331   163A      0.623217  
     164A      0.635957   165A      0.642907   166A      0.646720  
     167A      0.654756   168A      0.664513   169A      0.671574  
     170A      0.678703   171A      0.686074   172A      0.695782  
     173A      0.698449   174A      0.705323   175A      0.707529  
     176A      0.718834   177A      0.732368   178A      0.733533  
     179A      0.742925   180A      0.748367   181A      0.750889  
     182A      0.766197   183A      0.774448   184A      0.779701  
     185A      0.797157   186A      0.807176   187A      0.814790  
     188A      0.820156   189A      0.821851   190A      0.835088  
     191A      0.843966   192A      0.848468   193A      0.851279  
     194A      0.855283   195A      0.864649   196A      0.868257  
     197A      0.869954   198A      0.873510   199A      0.879951  
     200A      0.887385   201A      0.889473   202A      0.896261  
     203A      0.901952   204A      0.911096   205A      0.911851  
     206A      0.916214   207A      0.920170   208A      0.930683  
     209A      0.935322   210A      0.940242   211A      0.943660  
     212A      0.949596   213A      0.953580   214A      0.957158  
     215A      0.964877   216A      0.969160   217A      0.972017  
     218A      0.978772   219A      0.981219   220A      0.984404  
     221A      0.991215   222A      0.996042   223A      1.005074  
     224A      1.007382   225A      1.009126   226A      1.013104  
     227A      1.016858   228A      1.019723   229A      1.025146  
     230A      1.031410   231A      1.035733   232A      1.046297  
     233A      1.052421   234A      1.056658   235A      1.064068  
     236A      1.074501   237A      1.081285   238A      1.085505  
     239A      1.088617   240A      1.092506   241A      1.098170  
     242A      1.105189   243A      1.112974   244A      1.117730  
     245A      1.129357   246A      1.134446   247A      1.147508  
     248A      1.157074   249A      1.159849   250A      1.165228  
     251A      1.172632   252A      1.175976   253A      1.181266  
     254A      1.186437   255A      1.189427   256A      1.192598  
     257A      1.196907   258A      1.199032   259A      1.204458  
     260A      1.212125   261A      1.219380   262A      1.224577  
     263A      1.225122   264A      1.237852   265A      1.246612  
     266A      1.248052   267A      1.257464   268A      1.267033  
     269A      1.276439   270A      1.282372   271A      1.299561  
     272A      1.303591   273A      1.306276   274A      1.319271  
     275A      1.324732   276A      1.331005   277A      1.346979  
     278A      1.349214   279A      1.354038   280A      1.360479  
     281A      1.373161   282A      1.376276   283A      1.381234  
     284A      1.385354   285A      1.395727   286A      1.402138  
     287A      1.410071   288A      1.414842   289A      1.429093  
     290A      1.435650   291A      1.444646   292A      1.452623  
     293A      1.458779   294A      1.463621   295A      1.472579  
     296A      1.475399   297A      1.489221   298A      1.490666  
     299A      1.493048   300A      1.513971   301A      1.516275  
     302A      1.524002   303A      1.525955   304A      1.532268  
     305A      1.538975   306A      1.552038   307A      1.564535  
     308A      1.566532   309A      1.576607   310A      1.594448  
     311A      1.595446   312A      1.598456   313A      1.604410  
     314A      1.622198   315A      1.625106   316A      1.637858  
     317A      1.644533   318A      1.651054   319A      1.656394  
     320A      1.665485   321A      1.674870   322A      1.676382  
     323A      1.685634   324A      1.690673   325A      1.700028  
     326A      1.703344   327A      1.709854   328A      1.723150  
     329A      1.739924   330A      1.746766   331A      1.750668  
     332A      1.759856   333A      1.765495   334A      1.769365  
     335A      1.777728   336A      1.786137   337A      1.788494  
     338A      1.791380   339A      1.793400   340A      1.805717  
     341A      1.807409   342A      1.818809   343A      1.825814  
     344A      1.833474   345A      1.845670   346A      1.860473  
     347A      1.871101   348A      1.879653   349A      1.893799  
     350A      1.912591   351A      1.914036   352A      1.921564  
     353A      1.935497   354A      1.940330   355A      1.943934  
     356A      1.954074   357A      1.959910   358A      1.964993  
     359A      1.972317   360A      1.978828   361A      1.984383  
     362A      1.992255   363A      2.000058   364A      2.005671  
     365A      2.016847   366A      2.033728   367A      2.036403  
     368A      2.050231   369A      2.061012   370A      2.067124  
     371A      2.097201   372A      2.102262   373A      2.108830  
     374A      2.122743   375A      2.127866   376A      2.134562  
     377A      2.152038   378A      2.160139   379A      2.161718  
     380A      2.180506   381A      2.184840   382A      2.193848  
     383A      2.197205   384A      2.204195   385A      2.227704  
     386A      2.237897   387A      2.248636   388A      2.252153  
     389A      2.268686   390A      2.274477   391A      2.284714  
     392A      2.292002   393A      2.303074   394A      2.317049  
     395A      2.318886   396A      2.333732   397A      2.339661  
     398A      2.344665   399A      2.359874   400A      2.365424  
     401A      2.369576   402A      2.370961   403A      2.398541  
     404A      2.401685   405A      2.402662   406A      2.409232  
     407A      2.425620   408A      2.437652   409A      2.457072  
     410A      2.475077   411A      2.480180   412A      2.491034  
     413A      2.504182   414A      2.521808   415A      2.543551  
     416A      2.563280   417A      2.574613   418A      2.585004  
     419A      2.595162   420A      2.604167   421A      2.632557  
     422A      2.649280   423A      2.657440   424A      2.665503  
     425A      2.694654   426A      2.713297   427A      2.728906  
     428A      2.734265   429A      2.741912   430A      2.752111  
     431A      2.764809   432A      2.771391   433A      2.804797  
     434A      2.831821   435A      2.842550   436A      2.851267  
     437A      2.867606   438A      2.902491   439A      2.924786  
     440A      2.964480   441A      2.998681   442A      3.012851  
     443A      3.031025   444A      3.064539   445A      3.083488  
     446A      3.159828   447A      3.190870   448A      3.203278  
     449A      3.225595   450A      3.295127   451A      3.309554  
     452A      3.316756   453A      3.335949   454A      3.359441  
     455A      3.371912   456A      3.381342   457A      3.386879  
     458A      3.405834   459A      3.407380   460A      3.420906  
     461A      3.432186   462A      3.434076   463A      3.460411  
     464A      3.486291   465A      3.500325   466A      3.518666  
     467A      3.529786   468A      3.541766   469A      3.544539  
     470A      3.555679   471A      3.579190   472A      3.590796  
     473A      3.610267   474A      3.617048   475A      3.627099  
     476A      3.633149   477A      3.640556   478A      3.653496  
     479A      3.673825   480A      3.681147   481A      3.687075  
     482A      3.695232   483A      3.701233   484A      3.710225  
     485A      3.719327   486A      3.727568   487A      3.742925  
     488A      3.746305   489A      3.758467   490A      3.760193  
     491A      3.773209   492A      3.782484   493A      3.788474  
     494A      3.795764   495A      3.799539   496A      3.815801  
     497A      3.827864   498A      3.842574   499A      3.853045  
     500A      3.866228   501A      3.870660   502A      3.877279  
     503A      3.897639   504A      3.899729   505A      3.911481  
     506A      3.918152   507A      3.932473   508A      3.940966  
     509A      3.962962   510A      3.964848   511A      3.982984  
     512A      3.984869   513A      3.992091   514A      4.006388  
     515A      4.011267   516A      4.016507   517A      4.025368  
     518A      4.036647   519A      4.045009   520A      4.053090  
     521A      4.064283   522A      4.076929   523A      4.093417  
     524A      4.095509   525A      4.114006   526A      4.134518  
     527A      4.146718   528A      4.168004   529A      4.170478  
     530A      4.187701   531A      4.189074   532A      4.192524  
     533A      4.202315   534A      4.215000   535A      4.224447  
     536A      4.228843   537A      4.245917   538A      4.263511  
     539A      4.267009   540A      4.272431   541A      4.280301  
     542A      4.290843   543A      4.308774   544A      4.322559  
     545A      4.332588   546A      4.343037   547A      4.351825  
     548A      4.353696   549A      4.369762   550A      4.385661  
     551A      4.391882   552A      4.405991   553A      4.413153  
     554A      4.416008   555A      4.426179   556A      4.439823  
     557A      4.461219   558A      4.465897   559A      4.471509  
     560A      4.495181   561A      4.506500   562A      4.515646  
     563A      4.525325   564A      4.528776   565A      4.557090  
     566A      4.567347   567A      4.578408   568A      4.588930  
     569A      4.609714   570A      4.615162   571A      4.620952  
     572A      4.632901   573A      4.651772   574A      4.662458  
     575A      4.673301   576A      4.687325   577A      4.698875  
     578A      4.713269   579A      4.717802   580A      4.727500  
     581A      4.744205   582A      4.757674   583A      4.775950  
     584A      4.796367   585A      4.822511   586A      4.833825  
     587A      4.848394   588A      4.855697   589A      4.878237  
     590A      4.890195   591A      4.903732   592A      4.907360  
     593A      4.916068   594A      4.929863   595A      4.933804  
     596A      4.950868   597A      4.962319   598A      4.983076  
     599A      4.990402   600A      5.003315   601A      5.023699  
     602A      5.032960   603A      5.044373   604A      5.060599  
     605A      5.104887   606A      5.109483   607A      5.121732  
     608A      5.126734   609A      5.140014   610A      5.144661  
     611A      5.162398   612A      5.179476   613A      5.202924  
     614A      5.206828   615A      5.221601   616A      5.241391  
     617A      5.263795   618A      5.265818   619A      5.287642  
     620A      5.304355   621A      5.319036   622A      5.335861  
     623A      5.366601   624A      5.383660   625A      5.402017  
     626A      5.423729   627A      5.434328   628A      5.465625  
     629A      5.477299   630A      5.483605   631A      5.504592  
     632A      5.542645   633A      5.558837   634A      5.572630  
     635A      5.584931   636A      5.599031   637A      5.614465  
     638A      5.620528   639A      5.645601   640A      5.655633  
     641A      5.671543   642A      5.701213   643A      5.706339  
     644A      5.721723   645A      5.725501   646A      5.740982  
     647A      5.766439   648A      5.788624   649A      5.796768  
     650A      5.841468   651A      5.876552   652A      5.898313  
     653A      5.929312   654A      5.944551   655A      6.022978  
     656A      6.044950   657A      6.049415   658A      6.096291  
     659A      6.120302   660A      6.142545   661A      6.154901  
     662A      6.172476   663A      6.191945   664A      6.201637  
     665A      6.225032   666A      6.235287   667A      6.251148  
     668A      6.271866   669A      6.292656   670A      6.347924  
     671A      6.371198   672A      6.423717   673A      6.474299  
     674A      6.520182   675A      6.544552   676A      6.583046  
     677A      6.631853   678A      6.740168   679A      6.762295  
     680A      6.786455   681A      6.797753   682A      6.809273  
     683A      6.843438   684A      6.862478   685A      6.886185  
     686A      6.912385   687A      6.942316   688A      6.977300  
     689A      6.992098   690A      7.018316   691A      7.046502  
     692A      7.202936   693A      7.234335   694A      7.251361  
     695A      7.331521   696A      7.454476   697A      7.491807  
     698A      7.654330   699A      7.769631   700A      7.808962  
     701A      7.878480   702A      8.004012   703A      8.079512  
     704A     16.163836   705A     16.322734   706A     17.015571  
     707A     18.127868   708A     18.779411   709A     19.904050  
     710A     20.281511   711A     20.797695   712A     21.204769  
     713A     21.515947  

    Final Occupation by Irrep:
              A 
    DOCC [    37 ]

  @DF-RHF Final Energy:  -438.79400933624254

   => Energetics <=

    Nuclear Repulsion Energy =            523.8470236204578896
    One-Electron Energy =               -1634.5163177981710305
    Two-Electron Energy =                 671.8752848414707159
    Total Energy =                       -438.7940093362425387

Computation Completed

*** tstop() called on c402-023.stampede2.tacc.utexas.edu at Sun Feb 28 05:38:48 2021
Module time:
	user time   =     824.64 seconds =      13.74 minutes
	system time =      54.35 seconds =       0.91 minutes
	total time  =         43 seconds =       0.72 minutes
Total time:
	user time   =     824.64 seconds =      13.74 minutes
	system time =      54.35 seconds =       0.91 minutes
	total time  =         43 seconds =       0.72 minutes
   => Loading Basis Set <=

    Name: (AUG-CC-PVTZ AUX)
    Role: RIFIT
    Keyword: DF_BASIS_MP2
    atoms 1     entry O          line   264 file /home1/07844/xy3866/miniconda3/envs/p4env/share/psi4/basis/aug-cc-pvtz-ri.gbs 
    atoms 2     entry N          line   206 file /home1/07844/xy3866/miniconda3/envs/p4env/share/psi4/basis/aug-cc-pvtz-ri.gbs 
    atoms 3-10  entry C          line   148 file /home1/07844/xy3866/miniconda3/envs/p4env/share/psi4/basis/aug-cc-pvtz-ri.gbs 
    atoms 11-21 entry H          line    30 file /home1/07844/xy3866/miniconda3/envs/p4env/share/psi4/basis/aug-cc-pvtz-ri.gbs 


*** tstart() called on c402-023.stampede2.tacc.utexas.edu
*** at Sun Feb 28 05:38:49 2021


  //>>>>>>>>>>>>>>>>>>>>>>>>>>>>>>>>>>>//
  //               DFMP2               //
  //<<<<<<<<<<<<<<<<<<<<<<<<<<<<<<<<<<<//

	 --------------------------------------------------------
	                          DF-MP2                         
	      2nd-Order Density-Fitted Moller-Plesset Theory     
	              RMP2 Wavefunction,  32 Threads             
	                                                         
	        Rob Parrish, Justin Turney, Andy Simmonett,      
	           Ed Hohenstein, and C. David Sherrill          
	 --------------------------------------------------------

   => Auxiliary Basis Set <=

  Basis Set: (AUG-CC-PVTZ AUX)
    Blend: AUG-CC-PVTZ-RI
    Number of shells: 434
    Number of basis functions: 1566
    Number of Cartesian functions: 1965
    Spherical Harmonics?: true
    Max angular momentum: 4

	 --------------------------------------------------------
	                 NBF =   713, NAUX =  1566
	 --------------------------------------------------------
	   CLASS    FOCC     OCC    AOCC    AVIR     VIR    FVIR
	   PAIRS       0      37      37     676     676       0
	 --------------------------------------------------------

  DFHelper Memory: AOs need 5.788 GiB; user supplied 22.352 GiB. Using in-core AOs.


         ------------------------------------------------------------
                                     CPHF                           
                                  Rob Parrish                       
         ------------------------------------------------------------

  ==> Geometry <==

    Molecular point group: c1
    Full point group: C1

    Geometry (in Angstrom), charge = 0, multiplicity = 1:

       Center              X                  Y                   Z               Mass       
    ------------   -----------------  -----------------  -----------------  -----------------
         O            2.673515033255    -0.694951657907    -0.012176538447    15.994914619570
         N            0.614553033255    -1.679072657907     0.006624461553    14.003074004430
         C           -0.667548966745     0.736890342093    -0.010166538447    12.000000000000
         C            0.713498033255     0.708711342093     0.003978461553    12.000000000000
         C           -1.431932966745    -0.480263657907     0.002311461553    12.000000000000
         C            1.440184033255    -0.555691657907    -0.003991538447    12.000000000000
         C           -0.751126966745    -1.665274657907     0.007171461553    12.000000000000
         C           -1.419055966745     2.043222342093    -0.004377538447    12.000000000000
         C            1.571557033255     1.944873342093     0.012176461553    12.000000000000
         C           -2.935912966745    -0.474414657907    -0.001933538447    12.000000000000
         H           -1.241396966745    -2.634716657907     0.016366461553     1.007825032230
         H           -2.198134966745     2.049230342093    -0.772817538447     1.007825032230
         H           -0.759718966745     2.891535342093    -0.188364538447     1.007825032230
         H           -1.915323966745     2.204415342093     0.959880461553     1.007825032230
         H            1.120807033255    -2.560543657907     0.005992461553     1.007825032230
         H            1.454284033255     2.522441342093    -0.910896538447     1.007825032230
         H            2.616403033255     1.644162342093     0.097245461553     1.007825032230
         H            1.324322033255     2.601422342093     0.851718461553     1.007825032230
         H           -3.250952066745    -1.309247757907     0.051036561553     1.007825032230
         H           -3.339184966745    -0.024793657907    -0.915582538447     1.007825032230
         H           -3.340745966745     0.088858342093     0.845086461553     1.007825032230

  Nuclear repulsion =  523.847023620457776
  Reference energy  = -438.794009336242539

  ==> Basis Set <==

  Basis Set: AUG-CC-PVTZ
    Blend: AUG-CC-PVTZ
    Number of shells: 239
    Number of basis functions: 713
    Number of Cartesian functions: 825
    Spherical Harmonics?: true
    Max angular momentum: 3

  ==> CGRSolver (by Rob Parrish) <==

   Number of roots    =         1
   Preconditioning    =    JACOBI
   Convergence cutoff =     1E-06
   Maximum iterations =       100

  ==> CPHFRHamiltonian (by Rob Parrish) <== 

  ==> MemDFJK: Density-Fitted J/K Matrices <==

    J tasked:                   Yes
    K tasked:                   Yes
    wK tasked:                   No
    OpenMP threads:              32
    Memory [MiB]:             22888
    Algorithm:                 Core
    Schwarz Cutoff:           1E-12
    Mask sparsity (%):       5.2784
    Fitting Condition:        1E-10

   => Auxiliary Basis Set <=

  Basis Set: (AUG-CC-PVTZ AUX)
    Blend: AUG-CC-PVTZ-JKFIT
    Number of shells: 454
    Number of basis functions: 1546
    Number of Cartesian functions: 1915
    Spherical Harmonics?: true
    Max angular momentum: 4

  ==> CPHF Iterations <==

  => Iterations <=

             Iter  Converged  Remaining    Residual
  CGR           1          0          1   1.387E-01
  CGR           2          0          1   4.867E-02
  CGR           3          0          1   2.459E-02
  CGR           4          0          1   6.720E-03
  CGR           5          0          1   2.892E-03
  CGR           6          0          1   1.295E-03
  CGR           7          0          1   4.388E-04
  CGR           8          0          1   1.793E-04
  CGR           9          0          1   6.288E-05
  CGR          10          0          1   2.648E-05
  CGR          11          0          1   1.193E-05
  CGR          12          0          1   4.751E-06
  CGR          13          0          1   1.683E-06
  CGR          14          1          0   5.446E-07

    CGRSolver converged.

	-----------------------------------------------------------
	 ==================> DF-MP2 Energies <==================== 
	-----------------------------------------------------------
	 Reference Energy          =    -438.7940093362425387 [Eh]
	 Singles Energy            =      -0.0000000000000000 [Eh]
	 Same-Spin Energy          =      -0.4701440164997411 [Eh]
	 Opposite-Spin Energy      =      -1.4983384480676278 [Eh]
	 Correlation Energy        =      -1.9684824645673689 [Eh]
	 Total Energy              =    -440.7624918008099257 [Eh]
	-----------------------------------------------------------
	 ================> DF-SCS-MP2 Energies <================== 
	-----------------------------------------------------------
	 SCS Same-Spin Scale       =       0.3333333333333333 [-]
	 SCS Opposite-Spin Scale   =       1.2000000000000000 [-]
	 SCS Same-Spin Energy      =      -0.1567146721665804 [Eh]
	 SCS Opposite-Spin Energy  =      -1.7980061376811534 [Eh]
	 SCS Correlation Energy    =      -1.9547208098477338 [Eh]
	 SCS Total Energy          =    -440.7487301460902813 [Eh]
	-----------------------------------------------------------



Properties will be evaluated at   0.000000,   0.000000,   0.000000 [a0]

Properties computed using the MP2 density matrix

  Nuclear Dipole Moment: [e a0]
     X:    -8.9227      Y:     7.0070      Z:     0.0371

  Electronic Dipole Moment: [e a0]
     X:     7.1394      Y:    -7.1499      Z:    -0.0196

  Dipole Moment: [e a0]
     X:    -1.7833      Y:    -0.1428      Z:     0.0175     Total:     1.7891

  Dipole Moment: [D]
     X:    -4.5327      Y:    -0.3631      Z:     0.0445     Total:     4.5475


*** tstop() called on c402-023.stampede2.tacc.utexas.edu at Sun Feb 28 05:42:52 2021
Module time:
	user time   =    2307.54 seconds =      38.46 minutes
	system time =      72.25 seconds =       1.20 minutes
	total time  =        243 seconds =       4.05 minutes
Total time:
	user time   =    3133.22 seconds =      52.22 minutes
	system time =     126.62 seconds =       2.11 minutes
	total time  =        287 seconds =       4.78 minutes

    Psi4 stopped on: Sunday, 28 February 2021 05:42AM
    Psi4 wall time for execution: 0:04:48.28

*** Psi4 exiting successfully. Buy a developer a beer!
