69519                                                                   
Freq      RMP2-FC                                                     6-31G(d)            
Number of atoms                            I               21
Info1-9                                    I   N=           9
          33          31        1002           0           0         100
           6           2           1
Charge                                     I                0
Multiplicity                               I                1
Number of electrons                        I               80
Number of alpha electrons                  I               40
Number of beta electrons                   I               40
Number of basis functions                  I              185
Number of independent functions            I              185
Number of point charges in /Mol/           I                0
Number of translation vectors              I                0
Atomic numbers                             I   N=          21
           8           8           6           6           6           6
           6           6           6           6           6           1
           1           1           1           1           1           1
           1           1           1
Nuclear charges                            R   N=          21
  8.00000000E+00  8.00000000E+00  6.00000000E+00  6.00000000E+00  6.00000000E+00
  6.00000000E+00  6.00000000E+00  6.00000000E+00  6.00000000E+00  6.00000000E+00
  6.00000000E+00  1.00000000E+00  1.00000000E+00  1.00000000E+00  1.00000000E+00
  1.00000000E+00  1.00000000E+00  1.00000000E+00  1.00000000E+00  1.00000000E+00
  1.00000000E+00
Current cartesian coordinates              R   N=          63
  6.43201665E+00 -1.00395397E+00 -2.64372866E-01  3.58122101E+00  4.64073936E-01
  2.57023256E+00 -5.23914705E-01 -6.33252853E-01 -8.21880962E-01 -1.67692141E+00
  1.72821150E+00 -3.98128460E-01  2.18955821E+00 -8.20162979E-01 -1.64699971E+00
 -1.91551412E+00 -2.85442967E+00 -4.72277578E-01 -4.20777008E+00  1.77802633E+00
  3.69595371E-01 -2.40631719E-01  4.16125407E+00 -7.48820940E-01 -4.43425276E+00
 -2.77471051E+00  3.00442303E-01 -5.58577102E+00 -4.42611009E-01  7.23277314E-01
  4.04977705E+00 -3.68177922E-01  4.76617726E-01  2.63786827E+00  5.40536381E-01
 -3.14698603E+00  2.58989186E+00 -2.68877603E+00 -2.44359666E+00 -1.00956443E+00
 -4.67155488E+00 -8.09236389E-01 -5.11372476E+00  3.59560187E+00  6.99051143E-01
  1.34549031E+00  4.27722722E+00  5.70624365E-01  5.12469298E-01  4.33717093E+00
 -2.67025393E+00 -1.47554433E+00  5.78298288E+00 -4.12754098E-01 -5.48694441E+00
 -4.51947094E+00  5.63951315E-01 -7.54946844E+00 -3.48180711E-01  1.32173538E+00
  7.51626877E+00 -6.31378119E-01  1.18963696E+00
Force Field                                I                0
Int Atom Types                             I   N=          21
           0           0           0           0           0           0
           0           0           0           0           0           0
           0           0           0           0           0           0
           0           0           0
MM charges                                 R   N=          21
  0.00000000E+00  0.00000000E+00  0.00000000E+00  0.00000000E+00  0.00000000E+00
  0.00000000E+00  0.00000000E+00  0.00000000E+00  0.00000000E+00  0.00000000E+00
  0.00000000E+00  0.00000000E+00  0.00000000E+00  0.00000000E+00  0.00000000E+00
  0.00000000E+00  0.00000000E+00  0.00000000E+00  0.00000000E+00  0.00000000E+00
  0.00000000E+00
Integer atomic weights                     I   N=          21
          16          16          12          12          12          12
          12          12          12          12          12           1
           1           1           1           1           1           1
           1           1           1
Real atomic weights                        R   N=          21
  1.59949146E+01  1.59949146E+01  1.20000000E+01  1.20000000E+01  1.20000000E+01
  1.20000000E+01  1.20000000E+01  1.20000000E+01  1.20000000E+01  1.20000000E+01
  1.20000000E+01  1.00782504E+00  1.00782504E+00  1.00782504E+00  1.00782504E+00
  1.00782504E+00  1.00782504E+00  1.00782504E+00  1.00782504E+00  1.00782504E+00
  1.00782504E+00
Atom fragment info                         I   N=          21
           0           0           0           0           0           0
           0           0           0           0           0           0
           0           0           0           0           0           0
           0           0           0
Atom residue num                           I   N=          21
           0           0           0           0           0           0
           0           0           0           0           0           0
           0           0           0           0           0           0
           0           0           0
Nuclear spins                              I   N=          21
           0           0           0           0           0           0
           0           0           0           0           0           1
           1           1           1           1           1           1
           1           1           1
Nuclear ZEff                               R   N=          21
 -5.60000000E+00 -5.60000000E+00 -3.60000000E+00 -3.60000000E+00 -3.60000000E+00
 -3.60000000E+00 -3.60000000E+00 -3.60000000E+00 -3.60000000E+00 -3.60000000E+00
 -3.60000000E+00 -1.00000000E+00 -1.00000000E+00 -1.00000000E+00 -1.00000000E+00
 -1.00000000E+00 -1.00000000E+00 -1.00000000E+00 -1.00000000E+00 -1.00000000E+00
 -1.00000000E+00
Nuclear QMom                               R   N=          21
  0.00000000E+00  0.00000000E+00  0.00000000E+00  0.00000000E+00  0.00000000E+00
  0.00000000E+00  0.00000000E+00  0.00000000E+00  0.00000000E+00  0.00000000E+00
  0.00000000E+00  0.00000000E+00  0.00000000E+00  0.00000000E+00  0.00000000E+00
  0.00000000E+00  0.00000000E+00  0.00000000E+00  0.00000000E+00  0.00000000E+00
  0.00000000E+00
Nuclear GFac                               R   N=          21
  0.00000000E+00  0.00000000E+00  0.00000000E+00  0.00000000E+00  0.00000000E+00
  0.00000000E+00  0.00000000E+00  0.00000000E+00  0.00000000E+00  0.00000000E+00
  0.00000000E+00  2.79284600E+00  2.79284600E+00  2.79284600E+00  2.79284600E+00
  2.79284600E+00  2.79284600E+00  2.79284600E+00  2.79284600E+00  2.79284600E+00
  2.79284600E+00
MicOpt                                     I   N=          21
          -1          -1          -1          -1          -1          -1
          -1          -1          -1          -1          -1          -1
          -1          -1          -1          -1          -1          -1
          -1          -1          -1
Number of contracted shells                I               64
Number of primitive shells                 I              161
Pure/Cartesian d shells                    I                1
Pure/Cartesian f shells                    I                0
Highest angular momentum                   I                2
Largest degree of contraction              I                6
Shell types                                I   N=          64
           0          -1          -1           2           0          -1
          -1           2           0          -1          -1           2
           0          -1          -1           2           0          -1
          -1           2           0          -1          -1           2
           0          -1          -1           2           0          -1
          -1           2           0          -1          -1           2
           0          -1          -1           2           0          -1
          -1           2           0           0           0           0
           0           0           0           0           0           0
           0           0           0           0           0           0
           0           0           0           0
Number of primitives per shell             I   N=          64
           6           3           1           1           6           3
           1           1           6           3           1           1
           6           3           1           1           6           3
           1           1           6           3           1           1
           6           3           1           1           6           3
           1           1           6           3           1           1
           6           3           1           1           6           3
           1           1           3           1           3           1
           3           1           3           1           3           1
           3           1           3           1           3           1
           3           1           3           1
Shell to atom map                          I   N=          64
           1           1           1           1           2           2
           2           2           3           3           3           3
           4           4           4           4           5           5
           5           5           6           6           6           6
           7           7           7           7           8           8
           8           8           9           9           9           9
          10          10          10          10          11          11
          11          11          12          12          13          13
          14          14          15          15          16          16
          17          17          18          18          19          19
          20          20          21          21
Primitive exponents                        R   N=         161
  5.48467166E+03  8.25234946E+02  1.88046958E+02  5.29645000E+01  1.68975704E+01
  5.79963534E+00  1.55396162E+01  3.59993359E+00  1.01376175E+00  2.70005823E-01
  8.00000000E-01  5.48467166E+03  8.25234946E+02  1.88046958E+02  5.29645000E+01
  1.68975704E+01  5.79963534E+00  1.55396162E+01  3.59993359E+00  1.01376175E+00
  2.70005823E-01  8.00000000E-01  3.04752488E+03  4.57369518E+02  1.03948685E+02
  2.92101553E+01  9.28666296E+00  3.16392696E+00  7.86827235E+00  1.88128854E+00
  5.44249258E-01  1.68714478E-01  8.00000000E-01  3.04752488E+03  4.57369518E+02
  1.03948685E+02  2.92101553E+01  9.28666296E+00  3.16392696E+00  7.86827235E+00
  1.88128854E+00  5.44249258E-01  1.68714478E-01  8.00000000E-01  3.04752488E+03
  4.57369518E+02  1.03948685E+02  2.92101553E+01  9.28666296E+00  3.16392696E+00
  7.86827235E+00  1.88128854E+00  5.44249258E-01  1.68714478E-01  8.00000000E-01
  3.04752488E+03  4.57369518E+02  1.03948685E+02  2.92101553E+01  9.28666296E+00
  3.16392696E+00  7.86827235E+00  1.88128854E+00  5.44249258E-01  1.68714478E-01
  8.00000000E-01  3.04752488E+03  4.57369518E+02  1.03948685E+02  2.92101553E+01
  9.28666296E+00  3.16392696E+00  7.86827235E+00  1.88128854E+00  5.44249258E-01
  1.68714478E-01  8.00000000E-01  3.04752488E+03  4.57369518E+02  1.03948685E+02
  2.92101553E+01  9.28666296E+00  3.16392696E+00  7.86827235E+00  1.88128854E+00
  5.44249258E-01  1.68714478E-01  8.00000000E-01  3.04752488E+03  4.57369518E+02
  1.03948685E+02  2.92101553E+01  9.28666296E+00  3.16392696E+00  7.86827235E+00
  1.88128854E+00  5.44249258E-01  1.68714478E-01  8.00000000E-01  3.04752488E+03
  4.57369518E+02  1.03948685E+02  2.92101553E+01  9.28666296E+00  3.16392696E+00
  7.86827235E+00  1.88128854E+00  5.44249258E-01  1.68714478E-01  8.00000000E-01
  3.04752488E+03  4.57369518E+02  1.03948685E+02  2.92101553E+01  9.28666296E+00
  3.16392696E+00  7.86827235E+00  1.88128854E+00  5.44249258E-01  1.68714478E-01
  8.00000000E-01  1.87311370E+01  2.82539436E+00  6.40121692E-01  1.61277759E-01
  1.87311370E+01  2.82539436E+00  6.40121692E-01  1.61277759E-01  1.87311370E+01
  2.82539436E+00  6.40121692E-01  1.61277759E-01  1.87311370E+01  2.82539436E+00
  6.40121692E-01  1.61277759E-01  1.87311370E+01  2.82539436E+00  6.40121692E-01
  1.61277759E-01  1.87311370E+01  2.82539436E+00  6.40121692E-01  1.61277759E-01
  1.87311370E+01  2.82539436E+00  6.40121692E-01  1.61277759E-01  1.87311370E+01
  2.82539436E+00  6.40121692E-01  1.61277759E-01  1.87311370E+01  2.82539436E+00
  6.40121692E-01  1.61277759E-01  1.87311370E+01  2.82539436E+00  6.40121692E-01
  1.61277759E-01
Contraction coefficients                   R   N=         161
  1.83107443E-03  1.39501722E-02  6.84450781E-02  2.32714336E-01  4.70192898E-01
  3.58520853E-01 -1.10777550E-01 -1.48026263E-01  1.13076702E+00  1.00000000E+00
  1.00000000E+00  1.83107443E-03  1.39501722E-02  6.84450781E-02  2.32714336E-01
  4.70192898E-01  3.58520853E-01 -1.10777550E-01 -1.48026263E-01  1.13076702E+00
  1.00000000E+00  1.00000000E+00  1.83473713E-03  1.40373228E-02  6.88426223E-02
  2.32184443E-01  4.67941348E-01  3.62311985E-01 -1.19332420E-01 -1.60854152E-01
  1.14345644E+00  1.00000000E+00  1.00000000E+00  1.83473713E-03  1.40373228E-02
  6.88426223E-02  2.32184443E-01  4.67941348E-01  3.62311985E-01 -1.19332420E-01
 -1.60854152E-01  1.14345644E+00  1.00000000E+00  1.00000000E+00  1.83473713E-03
  1.40373228E-02  6.88426223E-02  2.32184443E-01  4.67941348E-01  3.62311985E-01
 -1.19332420E-01 -1.60854152E-01  1.14345644E+00  1.00000000E+00  1.00000000E+00
  1.83473713E-03  1.40373228E-02  6.88426223E-02  2.32184443E-01  4.67941348E-01
  3.62311985E-01 -1.19332420E-01 -1.60854152E-01  1.14345644E+00  1.00000000E+00
  1.00000000E+00  1.83473713E-03  1.40373228E-02  6.88426223E-02  2.32184443E-01
  4.67941348E-01  3.62311985E-01 -1.19332420E-01 -1.60854152E-01  1.14345644E+00
  1.00000000E+00  1.00000000E+00  1.83473713E-03  1.40373228E-02  6.88426223E-02
  2.32184443E-01  4.67941348E-01  3.62311985E-01 -1.19332420E-01 -1.60854152E-01
  1.14345644E+00  1.00000000E+00  1.00000000E+00  1.83473713E-03  1.40373228E-02
  6.88426223E-02  2.32184443E-01  4.67941348E-01  3.62311985E-01 -1.19332420E-01
 -1.60854152E-01  1.14345644E+00  1.00000000E+00  1.00000000E+00  1.83473713E-03
  1.40373228E-02  6.88426223E-02  2.32184443E-01  4.67941348E-01  3.62311985E-01
 -1.19332420E-01 -1.60854152E-01  1.14345644E+00  1.00000000E+00  1.00000000E+00
  1.83473713E-03  1.40373228E-02  6.88426223E-02  2.32184443E-01  4.67941348E-01
  3.62311985E-01 -1.19332420E-01 -1.60854152E-01  1.14345644E+00  1.00000000E+00
  1.00000000E+00  3.34946043E-02  2.34726953E-01  8.13757326E-01  1.00000000E+00
  3.34946043E-02  2.34726953E-01  8.13757326E-01  1.00000000E+00  3.34946043E-02
  2.34726953E-01  8.13757326E-01  1.00000000E+00  3.34946043E-02  2.34726953E-01
  8.13757326E-01  1.00000000E+00  3.34946043E-02  2.34726953E-01  8.13757326E-01
  1.00000000E+00  3.34946043E-02  2.34726953E-01  8.13757326E-01  1.00000000E+00
  3.34946043E-02  2.34726953E-01  8.13757326E-01  1.00000000E+00  3.34946043E-02
  2.34726953E-01  8.13757326E-01  1.00000000E+00  3.34946043E-02  2.34726953E-01
  8.13757326E-01  1.00000000E+00  3.34946043E-02  2.34726953E-01  8.13757326E-01
  1.00000000E+00
P(S=P) Contraction coefficients            R   N=         161
  0.00000000E+00  0.00000000E+00  0.00000000E+00  0.00000000E+00  0.00000000E+00
  0.00000000E+00  7.08742682E-02  3.39752839E-01  7.27158577E-01  1.00000000E+00
  0.00000000E+00  0.00000000E+00  0.00000000E+00  0.00000000E+00  0.00000000E+00
  0.00000000E+00  0.00000000E+00  7.08742682E-02  3.39752839E-01  7.27158577E-01
  1.00000000E+00  0.00000000E+00  0.00000000E+00  0.00000000E+00  0.00000000E+00
  0.00000000E+00  0.00000000E+00  0.00000000E+00  6.89990666E-02  3.16423961E-01
  7.44308291E-01  1.00000000E+00  0.00000000E+00  0.00000000E+00  0.00000000E+00
  0.00000000E+00  0.00000000E+00  0.00000000E+00  0.00000000E+00  6.89990666E-02
  3.16423961E-01  7.44308291E-01  1.00000000E+00  0.00000000E+00  0.00000000E+00
  0.00000000E+00  0.00000000E+00  0.00000000E+00  0.00000000E+00  0.00000000E+00
  6.89990666E-02  3.16423961E-01  7.44308291E-01  1.00000000E+00  0.00000000E+00
  0.00000000E+00  0.00000000E+00  0.00000000E+00  0.00000000E+00  0.00000000E+00
  0.00000000E+00  6.89990666E-02  3.16423961E-01  7.44308291E-01  1.00000000E+00
  0.00000000E+00  0.00000000E+00  0.00000000E+00  0.00000000E+00  0.00000000E+00
  0.00000000E+00  0.00000000E+00  6.89990666E-02  3.16423961E-01  7.44308291E-01
  1.00000000E+00  0.00000000E+00  0.00000000E+00  0.00000000E+00  0.00000000E+00
  0.00000000E+00  0.00000000E+00  0.00000000E+00  6.89990666E-02  3.16423961E-01
  7.44308291E-01  1.00000000E+00  0.00000000E+00  0.00000000E+00  0.00000000E+00
  0.00000000E+00  0.00000000E+00  0.00000000E+00  0.00000000E+00  6.89990666E-02
  3.16423961E-01  7.44308291E-01  1.00000000E+00  0.00000000E+00  0.00000000E+00
  0.00000000E+00  0.00000000E+00  0.00000000E+00  0.00000000E+00  0.00000000E+00
  6.89990666E-02  3.16423961E-01  7.44308291E-01  1.00000000E+00  0.00000000E+00
  0.00000000E+00  0.00000000E+00  0.00000000E+00  0.00000000E+00  0.00000000E+00
  0.00000000E+00  6.89990666E-02  3.16423961E-01  7.44308291E-01  1.00000000E+00
  0.00000000E+00  0.00000000E+00  0.00000000E+00  0.00000000E+00  0.00000000E+00
  0.00000000E+00  0.00000000E+00  0.00000000E+00  0.00000000E+00  0.00000000E+00
  0.00000000E+00  0.00000000E+00  0.00000000E+00  0.00000000E+00  0.00000000E+00
  0.00000000E+00  0.00000000E+00  0.00000000E+00  0.00000000E+00  0.00000000E+00
  0.00000000E+00  0.00000000E+00  0.00000000E+00  0.00000000E+00  0.00000000E+00
  0.00000000E+00  0.00000000E+00  0.00000000E+00  0.00000000E+00  0.00000000E+00
  0.00000000E+00  0.00000000E+00  0.00000000E+00  0.00000000E+00  0.00000000E+00
  0.00000000E+00  0.00000000E+00  0.00000000E+00  0.00000000E+00  0.00000000E+00
  0.00000000E+00
Coordinates of each shell                  R   N=         192
  6.43201665E+00 -1.00395397E+00 -2.64372866E-01  6.43201665E+00 -1.00395397E+00
 -2.64372866E-01  6.43201665E+00 -1.00395397E+00 -2.64372866E-01  6.43201665E+00
 -1.00395397E+00 -2.64372866E-01  3.58122101E+00  4.64073936E-01  2.57023256E+00
  3.58122101E+00  4.64073936E-01  2.57023256E+00  3.58122101E+00  4.64073936E-01
  2.57023256E+00  3.58122101E+00  4.64073936E-01  2.57023256E+00 -5.23914705E-01
 -6.33252853E-01 -8.21880962E-01 -5.23914705E-01 -6.33252853E-01 -8.21880962E-01
 -5.23914705E-01 -6.33252853E-01 -8.21880962E-01 -5.23914705E-01 -6.33252853E-01
 -8.21880962E-01 -1.67692141E+00  1.72821150E+00 -3.98128460E-01 -1.67692141E+00
  1.72821150E+00 -3.98128460E-01 -1.67692141E+00  1.72821150E+00 -3.98128460E-01
 -1.67692141E+00  1.72821150E+00 -3.98128460E-01  2.18955821E+00 -8.20162979E-01
 -1.64699971E+00  2.18955821E+00 -8.20162979E-01 -1.64699971E+00  2.18955821E+00
 -8.20162979E-01 -1.64699971E+00  2.18955821E+00 -8.20162979E-01 -1.64699971E+00
 -1.91551412E+00 -2.85442967E+00 -4.72277578E-01 -1.91551412E+00 -2.85442967E+00
 -4.72277578E-01 -1.91551412E+00 -2.85442967E+00 -4.72277578E-01 -1.91551412E+00
 -2.85442967E+00 -4.72277578E-01 -4.20777008E+00  1.77802633E+00  3.69595371E-01
 -4.20777008E+00  1.77802633E+00  3.69595371E-01 -4.20777008E+00  1.77802633E+00
  3.69595371E-01 -4.20777008E+00  1.77802633E+00  3.69595371E-01 -2.40631719E-01
  4.16125407E+00 -7.48820940E-01 -2.40631719E-01  4.16125407E+00 -7.48820940E-01
 -2.40631719E-01  4.16125407E+00 -7.48820940E-01 -2.40631719E-01  4.16125407E+00
 -7.48820940E-01 -4.43425276E+00 -2.77471051E+00  3.00442303E-01 -4.43425276E+00
 -2.77471051E+00  3.00442303E-01 -4.43425276E+00 -2.77471051E+00  3.00442303E-01
 -4.43425276E+00 -2.77471051E+00  3.00442303E-01 -5.58577102E+00 -4.42611009E-01
  7.23277314E-01 -5.58577102E+00 -4.42611009E-01  7.23277314E-01 -5.58577102E+00
 -4.42611009E-01  7.23277314E-01 -5.58577102E+00 -4.42611009E-01  7.23277314E-01
  4.04977705E+00 -3.68177922E-01  4.76617726E-01  4.04977705E+00 -3.68177922E-01
  4.76617726E-01  4.04977705E+00 -3.68177922E-01  4.76617726E-01  4.04977705E+00
 -3.68177922E-01  4.76617726E-01  2.63786827E+00  5.40536381E-01 -3.14698603E+00
  2.63786827E+00  5.40536381E-01 -3.14698603E+00  2.58989186E+00 -2.68877603E+00
 -2.44359666E+00  2.58989186E+00 -2.68877603E+00 -2.44359666E+00 -1.00956443E+00
 -4.67155488E+00 -8.09236389E-01 -1.00956443E+00 -4.67155488E+00 -8.09236389E-01
 -5.11372476E+00  3.59560187E+00  6.99051143E-01 -5.11372476E+00  3.59560187E+00
  6.99051143E-01  1.34549031E+00  4.27722722E+00  5.70624365E-01  1.34549031E+00
  4.27722722E+00  5.70624365E-01  5.12469298E-01  4.33717093E+00 -2.67025393E+00
  5.12469298E-01  4.33717093E+00 -2.67025393E+00 -1.47554433E+00  5.78298288E+00
 -4.12754098E-01 -1.47554433E+00  5.78298288E+00 -4.12754098E-01 -5.48694441E+00
 -4.51947094E+00  5.63951315E-01 -5.48694441E+00 -4.51947094E+00  5.63951315E-01
 -7.54946844E+00 -3.48180711E-01  1.32173538E+00 -7.54946844E+00 -3.48180711E-01
  1.32173538E+00  7.51626877E+00 -6.31378119E-01  1.18963696E+00  7.51626877E+00
 -6.31378119E-01  1.18963696E+00
Constraint Structure                       R   N=          63
  6.43201665E+00 -1.00395397E+00 -2.64372866E-01  3.58122101E+00  4.64073936E-01
  2.57023256E+00 -5.23914705E-01 -6.33252853E-01 -8.21880962E-01 -1.67692141E+00
  1.72821150E+00 -3.98128460E-01  2.18955821E+00 -8.20162979E-01 -1.64699971E+00
 -1.91551412E+00 -2.85442967E+00 -4.72277578E-01 -4.20777008E+00  1.77802633E+00
  3.69595371E-01 -2.40631719E-01  4.16125407E+00 -7.48820940E-01 -4.43425276E+00
 -2.77471051E+00  3.00442303E-01 -5.58577102E+00 -4.42611009E-01  7.23277314E-01
  4.04977705E+00 -3.68177922E-01  4.76617726E-01  2.63786827E+00  5.40536381E-01
 -3.14698603E+00  2.58989186E+00 -2.68877603E+00 -2.44359666E+00 -1.00956443E+00
 -4.67155488E+00 -8.09236389E-01 -5.11372476E+00  3.59560187E+00  6.99051143E-01
  1.34549031E+00  4.27722722E+00  5.70624365E-01  5.12469298E-01  4.33717093E+00
 -2.67025393E+00 -1.47554433E+00  5.78298288E+00 -4.12754098E-01 -5.48694441E+00
 -4.51947094E+00  5.63951315E-01 -7.54946844E+00 -3.48180711E-01  1.32173538E+00
  7.51626877E+00 -6.31378119E-01  1.18963696E+00
Num ILSW                                   I              100
ILSW                                       I   N=         100
           0           1           0           1           2           0
           0           0           0           0           0          -1
           0           0           0           0           0           0
           0           0           0           0           1           0
           1           0           0           0           0           0
           0           0      100000           0          -1           0
           0           0           0           0           0           0
           0           0           0           1           1           0
           0           0           1           0           0           0
           0           0           4          40           0           0
           0           0           0           0           0           0
           0           0           0           0           0           0
           0           0           0           0           0           0
           0           0           0           0           0           0
           0           0           0           0           0           0
           0           0           0           0           0           0
           0           0           0           0
Num RLSW                                   I               40
RLSW                                       R   N=          40
  1.00000000E+00  1.00000000E+00  1.00000000E+00  1.00000000E+00  1.00000000E+00
  0.00000000E+00  0.00000000E+00  1.00000000E+00  0.00000000E+00  0.00000000E+00
  0.00000000E+00  0.00000000E+00  1.00000000E+00  0.00000000E+00  0.00000000E+00
  0.00000000E+00  0.00000000E+00  1.00000000E+00  0.00000000E+00  0.00000000E+00
  0.00000000E+00  0.00000000E+00  1.00000000E+00  0.00000000E+00  0.00000000E+00
  0.00000000E+00  0.00000000E+00  1.00000000E+00  0.00000000E+00  0.00000000E+00
  0.00000000E+00  0.00000000E+00  0.00000000E+00  0.00000000E+00  0.00000000E+00
  0.00000000E+00  0.00000000E+00  0.00000000E+00  1.00000000E+00  1.00000000E+00
MxBond                                     I                4
NBond                                      I   N=          21
           2           1           3           3           4           3
           3           4           3           3           3           1
           1           1           1           1           1           1
           1           1           1
IBond                                      I   N=          84
          11          21           0           0          11           0
           0           0           4           5           6           0
           3           7           8           0           3          11
          12          13           3           9          14           0
           4          10          15           0           4          16
          17          18           6          10          19           0
           7           9          20           0           1           2
           5           0           5           0           0           0
           5           0           0           0           6           0
           0           0           7           0           0           0
           8           0           0           0           8           0
           0           0           8           0           0           0
           9           0           0           0          10           0
           0           0           1           0           0           0
RBond                                      R   N=          84
  1.50000000E+00  1.00000000E+00  0.00000000E+00  0.00000000E+00  2.00000000E+00
  0.00000000E+00  0.00000000E+00  0.00000000E+00  1.50000000E+00  1.00000000E+00
  1.50000000E+00  0.00000000E+00  1.50000000E+00  1.50000000E+00  1.00000000E+00
  0.00000000E+00  1.00000000E+00  1.00000000E+00  1.00000000E+00  1.00000000E+00
  1.50000000E+00  1.50000000E+00  1.00000000E+00  0.00000000E+00  1.50000000E+00
  1.50000000E+00  1.00000000E+00  0.00000000E+00  1.00000000E+00  1.00000000E+00
  1.00000000E+00  1.00000000E+00  1.50000000E+00  1.50000000E+00  1.00000000E+00
  0.00000000E+00  1.50000000E+00  1.50000000E+00  1.00000000E+00  0.00000000E+00
  1.50000000E+00  2.00000000E+00  1.00000000E+00  0.00000000E+00  1.00000000E+00
  0.00000000E+00  0.00000000E+00  0.00000000E+00  1.00000000E+00  0.00000000E+00
  0.00000000E+00  0.00000000E+00  1.00000000E+00  0.00000000E+00  0.00000000E+00
  0.00000000E+00  1.00000000E+00  0.00000000E+00  0.00000000E+00  0.00000000E+00
  1.00000000E+00  0.00000000E+00  0.00000000E+00  0.00000000E+00  1.00000000E+00
  0.00000000E+00  0.00000000E+00  0.00000000E+00  1.00000000E+00  0.00000000E+00
  0.00000000E+00  0.00000000E+00  1.00000000E+00  0.00000000E+00  0.00000000E+00
  0.00000000E+00  1.00000000E+00  0.00000000E+00  0.00000000E+00  0.00000000E+00
  1.00000000E+00  0.00000000E+00  0.00000000E+00  0.00000000E+00
Virial Ratio                               R      2.002425178553483E+00
SCF Energy                                 R     -4.963845156452545E+02
MP2 Energy                                 R     -4.978893476799968E+02
Total Energy                               R     -4.978893476799968E+02
Post-SCF wavefunction norm                 R      1.738542179354961E+00
RMS Force                                  R      4.426302934468206E-07
RMS Density                                R      2.076711361503329E-09
External E-field                           R   N=          35
  0.00000000E+00  0.00000000E+00  0.00000000E+00  0.00000000E+00  0.00000000E+00
  0.00000000E+00  0.00000000E+00  0.00000000E+00  0.00000000E+00  0.00000000E+00
  0.00000000E+00  0.00000000E+00  0.00000000E+00  0.00000000E+00  0.00000000E+00
  0.00000000E+00  0.00000000E+00  0.00000000E+00  0.00000000E+00  0.00000000E+00
  0.00000000E+00  0.00000000E+00  0.00000000E+00  0.00000000E+00  0.00000000E+00
  0.00000000E+00  0.00000000E+00  0.00000000E+00  0.00000000E+00  0.00000000E+00
  0.00000000E+00  0.00000000E+00  0.00000000E+00  0.00000000E+00  0.00000000E+00
IOpCl                                      I                0
IROHF                                      I                0
Alpha Orbital Energies                     R   N=         185
 -2.06218804E+01 -2.05604546E+01 -1.13954209E+01 -1.12555137E+01 -1.12419819E+01
 -1.12408429E+01 -1.12348078E+01 -1.12329229E+01 -1.12306446E+01 -1.12292133E+01
 -1.12212386E+01 -1.45905711E+00 -1.35583893E+00 -1.15590675E+00 -1.06644466E+00
 -1.03757834E+00 -9.77643636E-01 -9.26782876E-01 -8.36345335E-01 -8.07717441E-01
 -7.73722248E-01 -7.02286662E-01 -6.84080642E-01 -6.73942321E-01 -6.62024145E-01
 -6.22613992E-01 -6.21882838E-01 -5.90531793E-01 -5.73705054E-01 -5.64520932E-01
 -5.60668498E-01 -5.44932742E-01 -5.37738129E-01 -4.85037273E-01 -4.82400630E-01
 -4.79490937E-01 -4.74554556E-01 -4.50855693E-01 -3.27416999E-01 -3.17616241E-01
  1.40305234E-01  1.46600436E-01  1.77774455E-01  2.24071282E-01  2.31583574E-01
  2.51825216E-01  2.67084007E-01  2.97948221E-01  3.12269460E-01  3.26546538E-01
  3.30948032E-01  3.44503939E-01  3.66282625E-01  3.72975950E-01  4.07457844E-01
  4.22680235E-01  4.57691437E-01  4.85851102E-01  4.88450093E-01  5.19074203E-01
  5.33191161E-01  5.47757347E-01  5.54265879E-01  6.72446947E-01  7.19238956E-01
  7.30713074E-01  7.39266700E-01  7.51782262E-01  7.64354125E-01  7.79801168E-01
  7.91293240E-01  8.00789249E-01  8.16427783E-01  8.39810745E-01  8.44189868E-01
  8.44621903E-01  8.63854388E-01  8.82614578E-01  9.08347356E-01  9.21674331E-01
  9.43084285E-01  9.52379636E-01  9.66374452E-01  9.93297908E-01  1.00931523E+00
  1.03445667E+00  1.08357416E+00  1.08567547E+00  1.10298896E+00  1.10877021E+00
  1.11189092E+00  1.11881236E+00  1.13254887E+00  1.14361027E+00  1.16757608E+00
  1.18306164E+00  1.19527836E+00  1.21038142E+00  1.21593019E+00  1.22246759E+00
  1.23516554E+00  1.24927626E+00  1.28045853E+00  1.30355451E+00  1.33155456E+00