opt=(Tight,CalcAll)                                                     
Freq      RMP2-FC                                                     6-31G(d)            
Number of atoms                            I               18
Info1-9                                    I   N=           9
          27          27        1002           0           0         100
           6           2           1
Charge                                     I                0
Multiplicity                               I                1
Number of electrons                        I               56
Number of alpha electrons                  I               28
Number of beta electrons                   I               28
Number of basis functions                  I              127
Number of independent functions            I              127
Number of point charges in /Mol/           I                0
Number of translation vectors              I                0
Atomic numbers                             I   N=          18
           6           6           6           7           6           7
           7           1           1           1           1           1
           1           1           1           1           1           1
Nuclear charges                            R   N=          18
  6.00000000E+00  6.00000000E+00  6.00000000E+00  7.00000000E+00  6.00000000E+00
  7.00000000E+00  7.00000000E+00  1.00000000E+00  1.00000000E+00  1.00000000E+00
  1.00000000E+00  1.00000000E+00  1.00000000E+00  1.00000000E+00  1.00000000E+00
  1.00000000E+00  1.00000000E+00  1.00000000E+00
Current cartesian coordinates              R   N=          54
  1.38821751E+00  3.57389111E-01  3.59227644E-01  3.82541432E+00 -8.40727205E-01
 -5.88868230E-01  6.16472862E+00  4.53973541E-01  4.91397026E-01 -7.92475855E-01
 -9.17877211E-01 -7.84148623E-01 -3.21918163E+00 -1.80037629E-01 -4.84714088E-02
 -4.83524149E+00 -1.88360599E+00  5.93688285E-01 -3.55220793E+00  2.44575007E+00
 -7.95304390E-02  1.32169042E+00  2.88304163E-01  2.43850764E+00  1.35529454E+00
  2.35408449E+00 -1.74028044E-01  3.84138751E+00 -2.84917054E+00 -7.24102265E-02
  3.84038658E+00 -7.56996545E-01 -2.65677643E+00  7.89577799E+00 -4.36447460E-01
 -2.00675767E-01  6.21973317E+00  2.44966197E+00 -4.75346239E-02  6.18168322E+00
  3.53667568E-01  2.55649051E+00 -6.92685826E-01 -2.82824716E+00 -5.64410786E-01
 -6.58510419E+00 -1.10050655E+00  8.50981763E-01 -2.68307480E+00  3.29783857E+00
 -1.56269152E+00 -5.39068460E+00  2.97435647E+00  4.27727467E-02
Force Field                                I                0
Int Atom Types                             I   N=          18
           0           0           0           0           0           0
           0           0           0           0           0           0
           0           0           0           0           0           0
MM charges                                 R   N=          18
  0.00000000E+00  0.00000000E+00  0.00000000E+00  0.00000000E+00  0.00000000E+00
  0.00000000E+00  0.00000000E+00  0.00000000E+00  0.00000000E+00  0.00000000E+00
  0.00000000E+00  0.00000000E+00  0.00000000E+00  0.00000000E+00  0.00000000E+00
  0.00000000E+00  0.00000000E+00  0.00000000E+00
Integer atomic weights                     I   N=          18
          12          12          12          14          12          14
          14           1           1           1           1           1
           1           1           1           1           1           1
Real atomic weights                        R   N=          18
  1.20000000E+01  1.20000000E+01  1.20000000E+01  1.40030740E+01  1.20000000E+01
  1.40030740E+01  1.40030740E+01  1.00782504E+00  1.00782504E+00  1.00782504E+00
  1.00782504E+00  1.00782504E+00  1.00782504E+00  1.00782504E+00  1.00782504E+00
  1.00782504E+00  1.00782504E+00  1.00782504E+00
Atom fragment info                         I   N=          18
           0           0           0           0           0           0
           0           0           0           0           0           0
           0           0           0           0           0           0
Atom residue num                           I   N=          18
           0           0           0           0           0           0
           0           0           0           0           0           0
           0           0           0           0           0           0
Nuclear spins                              I   N=          18
           0           0           0           2           0           2
           2           1           1           1           1           1
           1           1           1           1           1           1
Nuclear ZEff                               R   N=          18
 -3.60000000E+00 -3.60000000E+00 -3.60000000E+00 -4.55000000E+00 -3.60000000E+00
 -4.55000000E+00 -4.55000000E+00 -1.00000000E+00 -1.00000000E+00 -1.00000000E+00
 -1.00000000E+00 -1.00000000E+00 -1.00000000E+00 -1.00000000E+00 -1.00000000E+00
 -1.00000000E+00 -1.00000000E+00 -1.00000000E+00
Nuclear QMom                               R   N=          18
  0.00000000E+00  0.00000000E+00  0.00000000E+00  2.04400000E+00  0.00000000E+00
  2.04400000E+00  2.04400000E+00  0.00000000E+00  0.00000000E+00  0.00000000E+00
  0.00000000E+00  0.00000000E+00  0.00000000E+00  0.00000000E+00  0.00000000E+00
  0.00000000E+00  0.00000000E+00  0.00000000E+00
Nuclear GFac                               R   N=          18
  0.00000000E+00  0.00000000E+00  0.00000000E+00  4.03761000E-01  0.00000000E+00
  4.03761000E-01  4.03761000E-01  2.79284600E+00  2.79284600E+00  2.79284600E+00
  2.79284600E+00  2.79284600E+00  2.79284600E+00  2.79284600E+00  2.79284600E+00
  2.79284600E+00  2.79284600E+00  2.79284600E+00
MicOpt                                     I   N=          18
          -1          -1          -1          -1          -1          -1
          -1          -1          -1          -1          -1          -1
          -1          -1          -1          -1          -1          -1
Number of contracted shells                I               50
Number of primitive shells                 I              121
Pure/Cartesian d shells                    I                1
Pure/Cartesian f shells                    I                0
Highest angular momentum                   I                2
Largest degree of contraction              I                6
Shell types                                I   N=          50
           0          -1          -1           2           0          -1
          -1           2           0          -1          -1           2
           0          -1          -1           2           0          -1
          -1           2           0          -1          -1           2
           0          -1          -1           2           0           0
           0           0           0           0           0           0
           0           0           0           0           0           0
           0           0           0           0           0           0
           0           0
Number of primitives per shell             I   N=          50
           6           3           1           1           6           3
           1           1           6           3           1           1
           6           3           1           1           6           3
           1           1           6           3           1           1
           6           3           1           1           3           1
           3           1           3           1           3           1
           3           1           3           1           3           1
           3           1           3           1           3           1
           3           1
Shell to atom map                          I   N=          50
           1           1           1           1           2           2
           2           2           3           3           3           3
           4           4           4           4           5           5
           5           5           6           6           6           6
           7           7           7           7           8           8
           9           9          10          10          11          11
          12          12          13          13          14          14
          15          15          16          16          17          17
          18          18
Primitive exponents                        R   N=         121
  3.04752488E+03  4.57369518E+02  1.03948685E+02  2.92101553E+01  9.28666296E+00
  3.16392696E+00  7.86827235E+00  1.88128854E+00  5.44249258E-01  1.68714478E-01
  8.00000000E-01  3.04752488E+03  4.57369518E+02  1.03948685E+02  2.92101553E+01
  9.28666296E+00  3.16392696E+00  7.86827235E+00  1.88128854E+00  5.44249258E-01
  1.68714478E-01  8.00000000E-01  3.04752488E+03  4.57369518E+02  1.03948685E+02
  2.92101553E+01  9.28666296E+00  3.16392696E+00  7.86827235E+00  1.88128854E+00
  5.44249258E-01  1.68714478E-01  8.00000000E-01  4.17351146E+03  6.27457911E+02
  1.42902093E+02  4.02343293E+01  1.28202129E+01  4.39043701E+00  1.16263619E+01
  2.71627981E+00  7.72218397E-01  2.12031498E-01  8.00000000E-01  3.04752488E+03
  4.57369518E+02  1.03948685E+02  2.92101553E+01  9.28666296E+00  3.16392696E+00
  7.86827235E+00  1.88128854E+00  5.44249258E-01  1.68714478E-01  8.00000000E-01
  4.17351146E+03  6.27457911E+02  1.42902093E+02  4.02343293E+01  1.28202129E+01
  4.39043701E+00  1.16263619E+01  2.71627981E+00  7.72218397E-01  2.12031498E-01
  8.00000000E-01  4.17351146E+03  6.27457911E+02  1.42902093E+02  4.02343293E+01
  1.28202129E+01  4.39043701E+00  1.16263619E+01  2.71627981E+00  7.72218397E-01
  2.12031498E-01  8.00000000E-01  1.87311370E+01  2.82539436E+00  6.40121692E-01
  1.61277759E-01  1.87311370E+01  2.82539436E+00  6.40121692E-01  1.61277759E-01
  1.87311370E+01  2.82539436E+00  6.40121692E-01  1.61277759E-01  1.87311370E+01
  2.82539436E+00  6.40121692E-01  1.61277759E-01  1.87311370E+01  2.82539436E+00
  6.40121692E-01  1.61277759E-01  1.87311370E+01  2.82539436E+00  6.40121692E-01
  1.61277759E-01  1.87311370E+01  2.82539436E+00  6.40121692E-01  1.61277759E-01
  1.87311370E+01  2.82539436E+00  6.40121692E-01  1.61277759E-01  1.87311370E+01
  2.82539436E+00  6.40121692E-01  1.61277759E-01  1.87311370E+01  2.82539436E+00
  6.40121692E-01  1.61277759E-01  1.87311370E+01  2.82539436E+00  6.40121692E-01
  1.61277759E-01
Contraction coefficients                   R   N=         121
  1.83473713E-03  1.40373228E-02  6.88426223E-02  2.32184443E-01  4.67941348E-01
  3.62311985E-01 -1.19332420E-01 -1.60854152E-01  1.14345644E+00  1.00000000E+00
  1.00000000E+00  1.83473713E-03  1.40373228E-02  6.88426223E-02  2.32184443E-01
  4.67941348E-01  3.62311985E-01 -1.19332420E-01 -1.60854152E-01  1.14345644E+00
  1.00000000E+00  1.00000000E+00  1.83473713E-03  1.40373228E-02  6.88426223E-02
  2.32184443E-01  4.67941348E-01  3.62311985E-01 -1.19332420E-01 -1.60854152E-01
  1.14345644E+00  1.00000000E+00  1.00000000E+00  1.83477216E-03  1.39946270E-02
  6.85865518E-02  2.32240873E-01  4.69069948E-01  3.60455199E-01 -1.14961182E-01
 -1.69117479E-01  1.14585195E+00  1.00000000E+00  1.00000000E+00  1.83473713E-03
  1.40373228E-02  6.88426223E-02  2.32184443E-01  4.67941348E-01  3.62311985E-01
 -1.19332420E-01 -1.60854152E-01  1.14345644E+00  1.00000000E+00  1.00000000E+00
  1.83477216E-03  1.39946270E-02  6.85865518E-02  2.32240873E-01  4.69069948E-01
  3.60455199E-01 -1.14961182E-01 -1.69117479E-01  1.14585195E+00  1.00000000E+00
  1.00000000E+00  1.83477216E-03  1.39946270E-02  6.85865518E-02  2.32240873E-01
  4.69069948E-01  3.60455199E-01 -1.14961182E-01 -1.69117479E-01  1.14585195E+00
  1.00000000E+00  1.00000000E+00  3.34946043E-02  2.34726953E-01  8.13757326E-01
  1.00000000E+00  3.34946043E-02  2.34726953E-01  8.13757326E-01  1.00000000E+00
  3.34946043E-02  2.34726953E-01  8.13757326E-01  1.00000000E+00  3.34946043E-02
  2.34726953E-01  8.13757326E-01  1.00000000E+00  3.34946043E-02  2.34726953E-01
  8.13757326E-01  1.00000000E+00  3.34946043E-02  2.34726953E-01  8.13757326E-01
  1.00000000E+00  3.34946043E-02  2.34726953E-01  8.13757326E-01  1.00000000E+00
  3.34946043E-02  2.34726953E-01  8.13757326E-01  1.00000000E+00  3.34946043E-02
  2.34726953E-01  8.13757326E-01  1.00000000E+00  3.34946043E-02  2.34726953E-01
  8.13757326E-01  1.00000000E+00  3.34946043E-02  2.34726953E-01  8.13757326E-01
  1.00000000E+00
P(S=P) Contraction coefficients            R   N=         121
  0.00000000E+00  0.00000000E+00  0.00000000E+00  0.00000000E+00  0.00000000E+00
  0.00000000E+00  6.89990666E-02  3.16423961E-01  7.44308291E-01  1.00000000E+00
  0.00000000E+00  0.00000000E+00  0.00000000E+00  0.00000000E+00  0.00000000E+00
  0.00000000E+00  0.00000000E+00  6.89990666E-02  3.16423961E-01  7.44308291E-01
  1.00000000E+00  0.00000000E+00  0.00000000E+00  0.00000000E+00  0.00000000E+00
  0.00000000E+00  0.00000000E+00  0.00000000E+00  6.89990666E-02  3.16423961E-01
  7.44308291E-01  1.00000000E+00  0.00000000E+00  0.00000000E+00  0.00000000E+00
  0.00000000E+00  0.00000000E+00  0.00000000E+00  0.00000000E+00  6.75797439E-02
  3.23907296E-01  7.40895140E-01  1.00000000E+00  0.00000000E+00  0.00000000E+00
  0.00000000E+00  0.00000000E+00  0.00000000E+00  0.00000000E+00  0.00000000E+00
  6.89990666E-02  3.16423961E-01  7.44308291E-01  1.00000000E+00  0.00000000E+00
  0.00000000E+00  0.00000000E+00  0.00000000E+00  0.00000000E+00  0.00000000E+00
  0.00000000E+00  6.75797439E-02  3.23907296E-01  7.40895140E-01  1.00000000E+00
  0.00000000E+00  0.00000000E+00  0.00000000E+00  0.00000000E+00  0.00000000E+00
  0.00000000E+00  0.00000000E+00  6.75797439E-02  3.23907296E-01  7.40895140E-01
  1.00000000E+00  0.00000000E+00  0.00000000E+00  0.00000000E+00  0.00000000E+00
  0.00000000E+00  0.00000000E+00  0.00000000E+00  0.00000000E+00  0.00000000E+00
  0.00000000E+00  0.00000000E+00  0.00000000E+00  0.00000000E+00  0.00000000E+00
  0.00000000E+00  0.00000000E+00  0.00000000E+00  0.00000000E+00  0.00000000E+00
  0.00000000E+00  0.00000000E+00  0.00000000E+00  0.00000000E+00  0.00000000E+00
  0.00000000E+00  0.00000000E+00  0.00000000E+00  0.00000000E+00  0.00000000E+00
  0.00000000E+00  0.00000000E+00  0.00000000E+00  0.00000000E+00  0.00000000E+00
  0.00000000E+00  0.00000000E+00  0.00000000E+00  0.00000000E+00  0.00000000E+00
  0.00000000E+00  0.00000000E+00  0.00000000E+00  0.00000000E+00  0.00000000E+00
  0.00000000E+00
Coordinates of each shell                  R   N=         150
  1.38821751E+00  3.57389111E-01  3.59227644E-01  1.38821751E+00  3.57389111E-01
  3.59227644E-01  1.38821751E+00  3.57389111E-01  3.59227644E-01  1.38821751E+00
  3.57389111E-01  3.59227644E-01  3.82541432E+00 -8.40727205E-01 -5.88868230E-01
  3.82541432E+00 -8.40727205E-01 -5.88868230E-01  3.82541432E+00 -8.40727205E-01
 -5.88868230E-01  3.82541432E+00 -8.40727205E-01 -5.88868230E-01  6.16472862E+00
  4.53973541E-01  4.91397026E-01  6.16472862E+00  4.53973541E-01  4.91397026E-01
  6.16472862E+00  4.53973541E-01  4.91397026E-01  6.16472862E+00  4.53973541E-01
  4.91397026E-01 -7.92475855E-01 -9.17877211E-01 -7.84148623E-01 -7.92475855E-01
 -9.17877211E-01 -7.84148623E-01 -7.92475855E-01 -9.17877211E-01 -7.84148623E-01
 -7.92475855E-01 -9.17877211E-01 -7.84148623E-01 -3.21918163E+00 -1.80037629E-01
 -4.84714088E-02 -3.21918163E+00 -1.80037629E-01 -4.84714088E-02 -3.21918163E+00
 -1.80037629E-01 -4.84714088E-02 -3.21918163E+00 -1.80037629E-01 -4.84714088E-02
 -4.83524149E+00 -1.88360599E+00  5.93688285E-01 -4.83524149E+00 -1.88360599E+00
  5.93688285E-01 -4.83524149E+00 -1.88360599E+00  5.93688285E-01 -4.83524149E+00
 -1.88360599E+00  5.93688285E-01 -3.55220793E+00  2.44575007E+00 -7.95304390E-02
 -3.55220793E+00  2.44575007E+00 -7.95304390E-02 -3.55220793E+00  2.44575007E+00
 -7.95304390E-02 -3.55220793E+00  2.44575007E+00 -7.95304390E-02  1.32169042E+00
  2.88304163E-01  2.43850764E+00  1.32169042E+00  2.88304163E-01  2.43850764E+00
  1.35529454E+00  2.35408449E+00 -1.74028044E-01  1.35529454E+00  2.35408449E+00
 -1.74028044E-01  3.84138751E+00 -2.84917054E+00 -7.24102265E-02  3.84138751E+00
 -2.84917054E+00 -7.24102265E-02  3.84038658E+00 -7.56996545E-01 -2.65677643E+00
  3.84038658E+00 -7.56996545E-01 -2.65677643E+00  7.89577799E+00 -4.36447460E-01
 -2.00675767E-01  7.89577799E+00 -4.36447460E-01 -2.00675767E-01  6.21973317E+00
  2.44966197E+00 -4.75346239E-02  6.21973317E+00  2.44966197E+00 -4.75346239E-02
  6.18168322E+00  3.53667568E-01  2.55649051E+00  6.18168322E+00  3.53667568E-01
  2.55649051E+00 -6.92685826E-01 -2.82824716E+00 -5.64410786E-01 -6.92685826E-01
 -2.82824716E+00 -5.64410786E-01 -6.58510419E+00 -1.10050655E+00  8.50981763E-01
 -6.58510419E+00 -1.10050655E+00  8.50981763E-01 -2.68307480E+00  3.29783857E+00
 -1.56269152E+00 -2.68307480E+00  3.29783857E+00 -1.56269152E+00 -5.39068460E+00
  2.97435647E+00  4.27727467E-02 -5.39068460E+00  2.97435647E+00  4.27727467E-02
Constraint Structure                       R   N=          54
  1.38821751E+00  3.57389111E-01  3.59227644E-01  3.82541432E+00 -8.40727205E-01
 -5.88868230E-01  6.16472862E+00  4.53973541E-01  4.91397026E-01 -7.92475855E-01
 -9.17877211E-01 -7.84148623E-01 -3.21918163E+00 -1.80037629E-01 -4.84714088E-02
 -4.83524149E+00 -1.88360599E+00  5.93688285E-01 -3.55220793E+00  2.44575007E+00
 -7.95304390E-02  1.32169042E+00  2.88304163E-01  2.43850764E+00  1.35529454E+00
  2.35408449E+00 -1.74028044E-01  3.84138751E+00 -2.84917054E+00 -7.24102265E-02
  3.84038658E+00 -7.56996545E-01 -2.65677643E+00  7.89577799E+00 -4.36447460E-01
 -2.00675767E-01  6.21973317E+00  2.44966197E+00 -4.75346239E-02  6.18168322E+00
  3.53667568E-01  2.55649051E+00 -6.92685826E-01 -2.82824716E+00 -5.64410786E-01
 -6.58510419E+00 -1.10050655E+00  8.50981763E-01 -2.68307480E+00  3.29783857E+00
 -1.56269152E+00 -5.39068460E+00  2.97435647E+00  4.27727467E-02
Num ILSW                                   I              100
ILSW                                       I   N=         100
           0           1           0           0           2           0
           0           0           0           0           0          -1
           0           0           0           0           0           0
           0           0           0           0           1           0
           1           0           0           0           0           0
           0           0      100000           0          -1           0
           0           0           0           0           0           0
           0           0           0           1           1           0
           0           0           1           0           0           0
           0           0           4          40           0           0
           0           0           0           0           0           0
           0           0           0           0           0           0
           0           0           0           0           0           0
           0           0           0           0           0           0
           0           0           0           0           0           0
           0           0           0           0           0           0
           0           0           0           0
Num RLSW                                   I               40
RLSW                                       R   N=          40
  1.00000000E+00  1.00000000E+00  1.00000000E+00  1.00000000E+00  1.00000000E+00
  0.00000000E+00  0.00000000E+00  1.00000000E+00  0.00000000E+00  0.00000000E+00
  0.00000000E+00  0.00000000E+00  1.00000000E+00  0.00000000E+00  0.00000000E+00
  0.00000000E+00  0.00000000E+00  1.00000000E+00  0.00000000E+00  0.00000000E+00
  0.00000000E+00  0.00000000E+00  1.00000000E+00  0.00000000E+00  0.00000000E+00
  0.00000000E+00  0.00000000E+00  1.00000000E+00  0.00000000E+00  0.00000000E+00
  0.00000000E+00  0.00000000E+00  0.00000000E+00  0.00000000E+00  0.00000000E+00
  0.00000000E+00  0.00000000E+00  0.00000000E+00  1.00000000E+00  1.00000000E+00
MxBond                                     I                4
NBond                                      I   N=          18
           4           4           4           3           3           2
           3           1           1           1           1           1
           1           1           1           1           1           1
IBond                                      I   N=          72
           2           4           8           9           1           3
          10          11           2          12          13          14
           1           5          15           0           4           6
           7           0           5          16           0           0
           5          17          18           0           1           0
           0           0           1           0           0           0
           2           0           0           0           2           0
           0           0           3           0           0           0
           3           0           0           0           3           0
           0           0           4           0           0           0
           6           0           0           0           7           0
           0           0           7           0           0           0
RBond                                      R   N=          72
  1.00000000E+00  1.00000000E+00  1.00000000E+00  1.00000000E+00  1.00000000E+00
  1.00000000E+00  1.00000000E+00  1.00000000E+00  1.00000000E+00  1.00000000E+00
  1.00000000E+00  1.00000000E+00  1.00000000E+00  1.00000000E+00  1.00000000E+00
  0.00000000E+00  1.00000000E+00  2.00000000E+00  1.00000000E+00  0.00000000E+00
  2.00000000E+00  1.00000000E+00  0.00000000E+00  0.00000000E+00  1.00000000E+00
  1.00000000E+00  1.00000000E+00  0.00000000E+00  1.00000000E+00  0.00000000E+00
  0.00000000E+00  0.00000000E+00  1.00000000E+00  0.00000000E+00  0.00000000E+00
  0.00000000E+00  1.00000000E+00  0.00000000E+00  0.00000000E+00  0.00000000E+00
  1.00000000E+00  0.00000000E+00  0.00000000E+00  0.00000000E+00  1.00000000E+00
  0.00000000E+00  0.00000000E+00  0.00000000E+00  1.00000000E+00  0.00000000E+00
  0.00000000E+00  0.00000000E+00  1.00000000E+00  0.00000000E+00  0.00000000E+00
  0.00000000E+00  1.00000000E+00  0.00000000E+00  0.00000000E+00  0.00000000E+00
  1.00000000E+00  0.00000000E+00  0.00000000E+00  0.00000000E+00  1.00000000E+00
  0.00000000E+00  0.00000000E+00  0.00000000E+00  1.00000000E+00  0.00000000E+00
  0.00000000E+00  0.00000000E+00
Virial Ratio                               R      2.002313480873540E+00
SCF Energy                                 R     -3.212140298422103E+02
MP2 Energy                                 R     -3.222204685539203E+02
Total Energy                               R     -3.222204685539203E+02
Post-SCF wavefunction norm                 R      1.627047354916015E+00
RMS Force                                  R      1.000823717247205E-08
RMS Density                                R      1.323661078231529E-09
External E-field                           R   N=          35
  0.00000000E+00  0.00000000E+00  0.00000000E+00  0.00000000E+00  0.00000000E+00
  0.00000000E+00  0.00000000E+00  0.00000000E+00  0.00000000E+00  0.00000000E+00
  0.00000000E+00  0.00000000E+00  0.00000000E+00  0.00000000E+00  0.00000000E+00
  0.00000000E+00  0.00000000E+00  0.00000000E+00  0.00000000E+00  0.00000000E+00
  0.00000000E+00  0.00000000E+00  0.00000000E+00  0.00000000E+00  0.00000000E+00
  0.00000000E+00  0.00000000E+00  0.00000000E+00  0.00000000E+00  0.00000000E+00
  0.00000000E+00  0.00000000E+00  0.00000000E+00  0.00000000E+00  0.00000000E+00
IOpCl                                      I                0
IROHF                                      I                0
Alpha Orbital Energies                     R   N=         127
 -1.55817594E+01 -1.55642174E+01 -1.55144427E+01 -1.13385305E+01 -1.12592144E+01
 -1.12272540E+01 -1.12206971E+01 -1.29051433E+00 -1.17823437E+00 -1.13067561E+00
 -1.04957315E+00 -9.21357148E-01 -8.14054408E-01 -7.92397925E-01 -7.03251250E-01
 -6.89259873E-01 -6.47931890E-01 -6.11725678E-01 -6.00926792E-01 -5.78202205E-01
 -5.52423372E-01 -5.33151561E-01 -5.04347041E-01 -4.82709421E-01 -4.82103168E-01
 -4.15439105E-01 -4.07913613E-01 -3.50668227E-01  2.00277806E-01  2.28878254E-01
  2.33385530E-01  2.52125415E-01  2.69792952E-01  2.88499728E-01  3.01177132E-01
  3.19402471E-01  3.26973926E-01  3.31858171E-01  3.42844716E-01  3.66635066E-01
  3.99013009E-01  4.16105254E-01  4.47488719E-01  4.75003225E-01  5.44322318E-01
  6.52576403E-01  7.10123125E-01  7.31715576E-01  7.47000007E-01  7.78120189E-01
  8.03821916E-01  8.23997660E-01  8.31047262E-01  8.60035036E-01  8.73037804E-01
  9.28149790E-01  9.30776127E-01  9.77298414E-01  9.86196392E-01  1.00325012E+00
  1.03558926E+00  1.04881089E+00  1.08576809E+00  1.11738673E+00  1.13886312E+00
  1.15303458E+00  1.15939844E+00  1.16504525E+00  1.17115322E+00  1.18630506E+00
  1.19760972E+00  1.20141857E+00  1.21879419E+00  1.22406697E+00  1.24681251E+00
  1.25482318E+00  1.28345903E+00  1.35129624E+00  1.44727528E+00  1.47498782E+00
  1.55671127E+00  1.59701689E+00  1.64083807E+00  1.65521668E+00  1.69754959E+00
  1.72813747E+00  1.81183769E+00  1.92532383E+00  1.95405860E+00  2.03426629E+00
  2.06334825E+00  2.11282003E+00  2.11545569E+00  2.15702461E+00  2.15918693E+00
  2.23889154E+00  2.25302417E+00  2.28586117E+00  2.29595735E+00  2.36342147E+00
  2.39926467E+00  2.43429687E+00  2.47673917E+00  2.58096505E+00  2.62232869E+00
  2.62981644E+00  2.67400240E+00  2.70311864E+00  2.74225507E+00  2.77921638E+00
  2.82027606E+00  2.86796501E+00  2.90924940E+00  2.92312110E+00  2.95980602E+00
  3.03270781E+00  3.11721199E+00  3.15450486E+00  3.36400780E+00  3.39297586E+00
  4.23621859E+00  4.31790646E+00  4.40607321E+00  4.59420389E+00  4.68617333E+00
  4.75037202E+00  4.92522115E+00
Alpha MO coefficients                      R   N=       16129
 -2.85515015E-07  1.76248283E-05  3.94904027E-06 -1.82235772E-05  1.15330997E-05
  6.13895249E-05  8.76824899E-05  1.25734249E-04 -1.95924856E-04 -3.01143776E-05
 -4.79453846E-06 -1.89553806E-06  4.44533191E-06  9.27204364E-06  2.89490181E-06
 -1.53974196E-07 -3.52241741E-06  2.43428671E-06  1.40963067E-06 -3.54072222E-06
 -5.29131386E-05 -4.43805404E-06 -6.73302393E-05  5.36404948E-05  5.54139187E-06
 -3.98894127E-06  3.15701112E-06  2.22320868E-06 -6.26190589E-06  8.34588892E-07
  7.87656275E-07  2.85923728E-06 -1.77384317E-06  8.41253078E-07 -6.86985894E-07
 -1.89543901E-06  2.74515058E-06 -1.80665694E-06 -1.92943572E-05  6.51613520E-07
  4.94624413E-07  3.22359550E-06 -1.16005460E-06  2.72401660E-06  6.44710807E-07
 -6.30436186E-04 -1.30272544E-04  4.49685589E-05 -1.64787823E-05 -3.12625471E-05
  6.03624083E-04 -2.99865718E-04 -3.10947989E-04  2.64765818E-04 -2.67023021E-05
 -4.95040717E-05 -6.50593101E-05  4.56170479E-05 -3.61407763E-05 -1.64761146E-05
  5.92062392E-06  2.69187272E-04 -3.96149621E-05  1.92157320E-04 -2.09264700E-06
  9.93884270E-04 -3.41368676E-04  1.94961899E-03 -2.55025837E-04 -8.26298529E-05
 -2.31528074E-04 -8.70222293E-05  4.23886989E-06  4.14936635E-06  5.02261469E-06
 -2.32151289E-04 -5.67641282E-05 -5.82498147E-07 -1.82535133E-05  1.91560368E-06
  6.40584290E-04  4.89352469E-04 -1.05179927E-04 -7.42322699E-05  6.92694780E-05
 -9.93275807E-05 -4.07317283E-05  2.88757250E-05 -3.35145122E-05  6.67241810E-06
  9.94983286E-01  2.51519446E-02 -4.83926683E-04 -5.03203727E-04 -9.03792348E-04
 -3.21508461E-03  2.65315833E-04  1.06361317E-03  6.16652004E-04 -3.40814277E-03
 -3.44922990E-03 -3.32493379E-03  2.79506370E-05  8.29487428E-05  4.15047249E-05
  2.36343329E-05  8.81259849E-05 -9.39217717E-06 -1.65349315E-04 -9.84943976E-07
 -3.93547541E-05  7.87906030E-07  4.34827857E-05 -5.83938701E-07 -4.86843319E-06
 -2.20599566E-06  9.73295070E-06  2.16520410E-06  6.67590867E-06 -7.49537414E-05
 -1.30691127E-05  1.59556673E-05  7.09497384E-05  2.93899722E-04  4.45822660E-04
  3.18480342E-04  4.24598127E-04 -2.52019746E-05  9.83901203E-05 -2.18218130E-04
 -7.98128851E-05 -1.10862813E-04  1.99597154E-03 -4.43411206E-04 -7.07703007E-04
  2.74255514E-05 -7.76553831E-05 -1.15094448E-04 -1.12023428E-04 -1.75766929E-05
 -4.53356386E-05 -2.37736695E-05  1.03938101E-05  7.47738558E-05  2.97330136E-05
 -1.46992428E-05  3.57776946E-06 -5.70636022E-04  3.72682550E-04  1.86813363E-05
 -2.26210770E-04 -4.16488199E-05  1.02316751E-05 -3.83784116E-06  6.28832780E-06
  2.16058930E-05  9.79237442E-06 -7.43828528E-06 -2.90490096E-05  1.37281725E-05
 -6.52976528E-06 -7.37505216E-06  9.08893881E-05 -1.60931526E-04  3.93795730E-05
  1.03853968E-04  1.34424607E-06 -1.37313556E-05 -1.48956402E-05  1.11503793E-05
  2.33314561E-07 -1.34934362E-05  9.95047359E-01  2.52750411E-02 -2.42205585E-04
 -1.13247324E-04  1.17226223E-03 -4.29018258E-03  4.79683304E-04 -1.35271469E-04
 -1.42846461E-03 -3.32446082E-03 -3.30222196E-03 -3.14603571E-03 -1.81845962E-05
 -3.82534812E-05 -9.19363383E-05  1.93435670E-05  2.97951576E-04  2.29500183E-04
 -4.59176618E-05 -5.06419724E-05  1.19112576E-03  1.47236151E-03 -8.03495563E-04
 -9.74731642E-05 -1.55722010E-04 -6.61020682E-05 -8.82043808E-05  5.85928433E-05
  6.53610464E-05 -4.47905524E-05 -2.56633406E-04 -9.44277687E-05 -5.51962115E-05
 -2.25331261E-05  8.63205919E-06  2.14891809E-04 -1.66977253E-04  3.29342203E-04
 -3.54785102E-05 -6.10705291E-05  4.68063792E-05 -8.45534792E-05 -1.93656787E-05
 -6.41396762E-06 -2.68354834E-05  5.85594233E-04 -1.13030789E-04 -1.28678921E-05
  5.14872316E-05  1.88034900E-05  6.98630097E-04 -2.20417903E-04 -3.05252743E-04
 -4.52850875E-05 -3.48149866E-05 -2.87068417E-05 -1.03831996E-04  4.27013470E-05
 -2.39753015E-05 -7.26911308E-06 -1.40659123E-04 -3.16122452E-04 -6.44081224E-05
  8.55878272E-05  4.94276089E-05  4.05483509E-06  2.15172615E-05 -1.12614175E-04
  1.44485523E-05  5.82351885E-05 -1.79045986E-05  4.78991449E-06 -2.58812605E-05