182_Dipropyldisulfide Gaussian SP Calculation on node73.bme.utexas.edu  
Freq      RMP2-FC                                                     6-31G(d)            
Number of atoms                            I               22
Info1-9                                    I   N=           9
          33          32        1002           0           0         100
           6           2           1
Charge                                     I                0
Multiplicity                               I                1
Number of electrons                        I               82
Number of alpha electrons                  I               41
Number of beta electrons                   I               41
Number of basis functions                  I              156
Number of independent functions            I              156
Number of point charges in /Mol/           I                0
Number of translation vectors              I                0
Atomic numbers                             I   N=          22
          16          16           6           6           6           6
           6           6           1           1           1           1
           1           1           1           1           1           1
           1           1           1           1
Nuclear charges                            R   N=          22
  1.60000000E+01  1.60000000E+01  6.00000000E+00  6.00000000E+00  6.00000000E+00
  6.00000000E+00  6.00000000E+00  6.00000000E+00  1.00000000E+00  1.00000000E+00
  1.00000000E+00  1.00000000E+00  1.00000000E+00  1.00000000E+00  1.00000000E+00
  1.00000000E+00  1.00000000E+00  1.00000000E+00  1.00000000E+00  1.00000000E+00
  1.00000000E+00  1.00000000E+00
Current cartesian coordinates              R   N=          66
  1.65962609E+00 -2.08847335E+00 -1.01008353E+00 -1.65962585E+00 -2.08847394E+00
  1.01008469E+00  6.06601490E+00  6.03229934E-01 -6.58285047E-01 -6.06601225E+00
  6.03234716E-01  6.58289656E-01  3.46273014E+00  3.92333838E-01  5.59555850E-01
 -3.46273344E+00  3.92327132E-01 -5.59561203E-01  7.65365320E+00  2.66135985E+00
  5.95541142E-01 -7.65365293E+00  2.66135946E+00 -5.95542127E-01  7.03961557E+00
 -1.21854985E+00 -5.16169465E-01  5.85389345E+00  1.01383312E+00 -2.67682186E+00
 -7.03961632E+00 -1.21854444E+00  5.16189552E-01 -5.85388172E+00  1.01385016E+00
  2.67682303E+00  3.63286004E+00 -7.48273001E-02  2.56575846E+00  2.44971384E+00
  2.18835171E+00  3.93446196E-01 -3.63287215E+00 -7.48462042E-02 -2.56576022E+00
 -2.44971333E+00  2.18834425E+00 -3.93466644E-01  7.92920902E+00  2.26142193E+00
  2.60498037E+00  9.51692541E+00  2.79672049E+00 -2.87855295E-01  6.73643058E+00
  4.50709819E+00  4.31904373E-01 -7.92921900E+00  2.26140879E+00 -2.60497738E+00
 -9.51692064E+00  2.79672904E+00  2.87862471E-01 -6.73642625E+00  4.50709724E+00
 -4.31921819E-01
Force Field                                I                0
Int Atom Types                             I   N=          22
           0           0           0           0           0           0
           0           0           0           0           0           0
           0           0           0           0           0           0
           0           0           0           0
MM charges                                 R   N=          22
  0.00000000E+00  0.00000000E+00  0.00000000E+00  0.00000000E+00  0.00000000E+00
  0.00000000E+00  0.00000000E+00  0.00000000E+00  0.00000000E+00  0.00000000E+00
  0.00000000E+00  0.00000000E+00  0.00000000E+00  0.00000000E+00  0.00000000E+00
  0.00000000E+00  0.00000000E+00  0.00000000E+00  0.00000000E+00  0.00000000E+00
  0.00000000E+00  0.00000000E+00
Integer atomic weights                     I   N=          22
          32          32          12          12          12          12
          12          12           1           1           1           1
           1           1           1           1           1           1
           1           1           1           1
Real atomic weights                        R   N=          22
  3.19720718E+01  3.19720718E+01  1.20000000E+01  1.20000000E+01  1.20000000E+01
  1.20000000E+01  1.20000000E+01  1.20000000E+01  1.00782504E+00  1.00782504E+00
  1.00782504E+00  1.00782504E+00  1.00782504E+00  1.00782504E+00  1.00782504E+00
  1.00782504E+00  1.00782504E+00  1.00782504E+00  1.00782504E+00  1.00782504E+00
  1.00782504E+00  1.00782504E+00
Atom fragment info                         I   N=          22
           0           0           0           0           0           0
           0           0           0           0           0           0
           0           0           0           0           0           0
           0           0           0           0
Atom residue num                           I   N=          22
           0           0           0           0           0           0
           0           0           0           0           0           0
           0           0           0           0           0           0
           0           0           0           0
Nuclear spins                              I   N=          22
           0           0           0           0           0           0
           0           0           1           1           1           1
           1           1           1           1           1           1
           1           1           1           1
Nuclear ZEff                               R   N=          22
 -1.36000000E+01 -1.36000000E+01 -3.60000000E+00 -3.60000000E+00 -3.60000000E+00
 -3.60000000E+00 -3.60000000E+00 -3.60000000E+00 -1.00000000E+00 -1.00000000E+00
 -1.00000000E+00 -1.00000000E+00 -1.00000000E+00 -1.00000000E+00 -1.00000000E+00
 -1.00000000E+00 -1.00000000E+00 -1.00000000E+00 -1.00000000E+00 -1.00000000E+00
 -1.00000000E+00 -1.00000000E+00
Nuclear QMom                               R   N=          22
  0.00000000E+00  0.00000000E+00  0.00000000E+00  0.00000000E+00  0.00000000E+00
  0.00000000E+00  0.00000000E+00  0.00000000E+00  0.00000000E+00  0.00000000E+00
  0.00000000E+00  0.00000000E+00  0.00000000E+00  0.00000000E+00  0.00000000E+00
  0.00000000E+00  0.00000000E+00  0.00000000E+00  0.00000000E+00  0.00000000E+00
  0.00000000E+00  0.00000000E+00
Nuclear GFac                               R   N=          22
  0.00000000E+00  0.00000000E+00  0.00000000E+00  0.00000000E+00  0.00000000E+00
  0.00000000E+00  0.00000000E+00  0.00000000E+00  2.79284600E+00  2.79284600E+00
  2.79284600E+00  2.79284600E+00  2.79284600E+00  2.79284600E+00  2.79284600E+00
  2.79284600E+00  2.79284600E+00  2.79284600E+00  2.79284600E+00  2.79284600E+00
  2.79284600E+00  2.79284600E+00
MicOpt                                     I   N=          22
          -1          -1          -1          -1          -1          -1
          -1          -1          -1          -1          -1          -1
          -1          -1          -1          -1          -1          -1
          -1          -1          -1          -1
Number of contracted shells                I               62
Number of primitive shells                 I              156
Pure/Cartesian d shells                    I                1
Pure/Cartesian f shells                    I                0
Highest angular momentum                   I                2
Largest degree of contraction              I                6
Shell types                                I   N=          62
           0          -1          -1          -1           2           0
          -1          -1          -1           2           0          -1
          -1           2           0          -1          -1           2
           0          -1          -1           2           0          -1
          -1           2           0          -1          -1           2
           0          -1          -1           2           0           0
           0           0           0           0           0           0
           0           0           0           0           0           0
           0           0           0           0           0           0
           0           0           0           0           0           0
           0           0
Number of primitives per shell             I   N=          62
           6           6           3           1           1           6
           6           3           1           1           6           3
           1           1           6           3           1           1
           6           3           1           1           6           3
           1           1           6           3           1           1
           6           3           1           1           3           1
           3           1           3           1           3           1
           3           1           3           1           3           1
           3           1           3           1           3           1
           3           1           3           1           3           1
           3           1
Shell to atom map                          I   N=          62
           1           1           1           1           1           2
           2           2           2           2           3           3
           3           3           4           4           4           4
           5           5           5           5           6           6
           6           6           7           7           7           7
           8           8           8           8           9           9
          10          10          11          11          12          12
          13          13          14          14          15          15
          16          16          17          17          18          18
          19          19          20          20          21          21
          22          22
Primitive exponents                        R   N=         156
  2.19171000E+04  3.30149000E+03  7.54146000E+02  2.12711000E+02  6.79896000E+01
  2.30515000E+01  4.23735000E+02  1.00710000E+02  3.21599000E+01  1.18079000E+01
  4.63110000E+00  1.87025000E+00  2.61584000E+00  9.22167000E-01  3.41287000E-01
  1.17167000E-01  6.50000000E-01  2.19171000E+04  3.30149000E+03  7.54146000E+02
  2.12711000E+02  6.79896000E+01  2.30515000E+01  4.23735000E+02  1.00710000E+02
  3.21599000E+01  1.18079000E+01  4.63110000E+00  1.87025000E+00  2.61584000E+00
  9.22167000E-01  3.41287000E-01  1.17167000E-01  6.50000000E-01  3.04752488E+03
  4.57369518E+02  1.03948685E+02  2.92101553E+01  9.28666296E+00  3.16392696E+00
  7.86827235E+00  1.88128854E+00  5.44249258E-01  1.68714478E-01  8.00000000E-01
  3.04752488E+03  4.57369518E+02  1.03948685E+02  2.92101553E+01  9.28666296E+00
  3.16392696E+00  7.86827235E+00  1.88128854E+00  5.44249258E-01  1.68714478E-01
  8.00000000E-01  3.04752488E+03  4.57369518E+02  1.03948685E+02  2.92101553E+01
  9.28666296E+00  3.16392696E+00  7.86827235E+00  1.88128854E+00  5.44249258E-01
  1.68714478E-01  8.00000000E-01  3.04752488E+03  4.57369518E+02  1.03948685E+02
  2.92101553E+01  9.28666296E+00  3.16392696E+00  7.86827235E+00  1.88128854E+00
  5.44249258E-01  1.68714478E-01  8.00000000E-01  3.04752488E+03  4.57369518E+02
  1.03948685E+02  2.92101553E+01  9.28666296E+00  3.16392696E+00  7.86827235E+00
  1.88128854E+00  5.44249258E-01  1.68714478E-01  8.00000000E-01  3.04752488E+03
  4.57369518E+02  1.03948685E+02  2.92101553E+01  9.28666296E+00  3.16392696E+00
  7.86827235E+00  1.88128854E+00  5.44249258E-01  1.68714478E-01  8.00000000E-01
  1.87311370E+01  2.82539436E+00  6.40121692E-01  1.61277759E-01  1.87311370E+01
  2.82539436E+00  6.40121692E-01  1.61277759E-01  1.87311370E+01  2.82539436E+00
  6.40121692E-01  1.61277759E-01  1.87311370E+01  2.82539436E+00  6.40121692E-01
  1.61277759E-01  1.87311370E+01  2.82539436E+00  6.40121692E-01  1.61277759E-01
  1.87311370E+01  2.82539436E+00  6.40121692E-01  1.61277759E-01  1.87311370E+01
  2.82539436E+00  6.40121692E-01  1.61277759E-01  1.87311370E+01  2.82539436E+00
  6.40121692E-01  1.61277759E-01  1.87311370E+01  2.82539436E+00  6.40121692E-01
  1.61277759E-01  1.87311370E+01  2.82539436E+00  6.40121692E-01  1.61277759E-01
  1.87311370E+01  2.82539436E+00  6.40121692E-01  1.61277759E-01  1.87311370E+01
  2.82539436E+00  6.40121692E-01  1.61277759E-01  1.87311370E+01  2.82539436E+00
  6.40121692E-01  1.61277759E-01  1.87311370E+01  2.82539436E+00  6.40121692E-01
  1.61277759E-01
Contraction coefficients                   R   N=         156
  1.86924085E-03  1.42303065E-02  6.96962317E-02  2.38487108E-01  4.83307220E-01
  3.38074154E-01 -2.37677050E-03 -3.16930067E-02 -1.13317024E-01  5.60900118E-02
  5.92255124E-01  4.55006095E-01 -2.50373114E-01  6.69567631E-02  1.05450627E+00
  1.00000000E+00  1.00000000E+00  1.86924085E-03  1.42303065E-02  6.96962317E-02
  2.38487108E-01  4.83307220E-01  3.38074154E-01 -2.37677050E-03 -3.16930067E-02
 -1.13317024E-01  5.60900118E-02  5.92255124E-01  4.55006095E-01 -2.50373114E-01
  6.69567631E-02  1.05450627E+00  1.00000000E+00  1.00000000E+00  1.83473713E-03
  1.40373228E-02  6.88426223E-02  2.32184443E-01  4.67941348E-01  3.62311985E-01
 -1.19332420E-01 -1.60854152E-01  1.14345644E+00  1.00000000E+00  1.00000000E+00
  1.83473713E-03  1.40373228E-02  6.88426223E-02  2.32184443E-01  4.67941348E-01
  3.62311985E-01 -1.19332420E-01 -1.60854152E-01  1.14345644E+00  1.00000000E+00
  1.00000000E+00  1.83473713E-03  1.40373228E-02  6.88426223E-02  2.32184443E-01
  4.67941348E-01  3.62311985E-01 -1.19332420E-01 -1.60854152E-01  1.14345644E+00
  1.00000000E+00  1.00000000E+00  1.83473713E-03  1.40373228E-02  6.88426223E-02
  2.32184443E-01  4.67941348E-01  3.62311985E-01 -1.19332420E-01 -1.60854152E-01
  1.14345644E+00  1.00000000E+00  1.00000000E+00  1.83473713E-03  1.40373228E-02
  6.88426223E-02  2.32184443E-01  4.67941348E-01  3.62311985E-01 -1.19332420E-01
 -1.60854152E-01  1.14345644E+00  1.00000000E+00  1.00000000E+00  1.83473713E-03
  1.40373228E-02  6.88426223E-02  2.32184443E-01  4.67941348E-01  3.62311985E-01
 -1.19332420E-01 -1.60854152E-01  1.14345644E+00  1.00000000E+00  1.00000000E+00
  3.34946043E-02  2.34726953E-01  8.13757326E-01  1.00000000E+00  3.34946043E-02
  2.34726953E-01  8.13757326E-01  1.00000000E+00  3.34946043E-02  2.34726953E-01
  8.13757326E-01  1.00000000E+00  3.34946043E-02  2.34726953E-01  8.13757326E-01
  1.00000000E+00  3.34946043E-02  2.34726953E-01  8.13757326E-01  1.00000000E+00
  3.34946043E-02  2.34726953E-01  8.13757326E-01  1.00000000E+00  3.34946043E-02
  2.34726953E-01  8.13757326E-01  1.00000000E+00  3.34946043E-02  2.34726953E-01
  8.13757326E-01  1.00000000E+00  3.34946043E-02  2.34726953E-01  8.13757326E-01
  1.00000000E+00  3.34946043E-02  2.34726953E-01  8.13757326E-01  1.00000000E+00
  3.34946043E-02  2.34726953E-01  8.13757326E-01  1.00000000E+00  3.34946043E-02
  2.34726953E-01  8.13757326E-01  1.00000000E+00  3.34946043E-02  2.34726953E-01
  8.13757326E-01  1.00000000E+00  3.34946043E-02  2.34726953E-01  8.13757326E-01
  1.00000000E+00
P(S=P) Contraction coefficients            R   N=         156
  0.00000000E+00  0.00000000E+00  0.00000000E+00  0.00000000E+00  0.00000000E+00
  0.00000000E+00  4.06100998E-03  3.06812999E-02  1.30451999E-01  3.27204999E-01
  4.52850998E-01  2.56041999E-01 -1.45104895E-02  3.10262776E-01  7.54482456E-01
  1.00000000E+00  0.00000000E+00  0.00000000E+00  0.00000000E+00  0.00000000E+00
  0.00000000E+00  0.00000000E+00  0.00000000E+00  4.06100998E-03  3.06812999E-02
  1.30451999E-01  3.27204999E-01  4.52850998E-01  2.56041999E-01 -1.45104895E-02
  3.10262776E-01  7.54482456E-01  1.00000000E+00  0.00000000E+00  0.00000000E+00
  0.00000000E+00  0.00000000E+00  0.00000000E+00  0.00000000E+00  0.00000000E+00
  6.89990666E-02  3.16423961E-01  7.44308291E-01  1.00000000E+00  0.00000000E+00
  0.00000000E+00  0.00000000E+00  0.00000000E+00  0.00000000E+00  0.00000000E+00
  0.00000000E+00  6.89990666E-02  3.16423961E-01  7.44308291E-01  1.00000000E+00
  0.00000000E+00  0.00000000E+00  0.00000000E+00  0.00000000E+00  0.00000000E+00
  0.00000000E+00  0.00000000E+00  6.89990666E-02  3.16423961E-01  7.44308291E-01
  1.00000000E+00  0.00000000E+00  0.00000000E+00  0.00000000E+00  0.00000000E+00
  0.00000000E+00  0.00000000E+00  0.00000000E+00  6.89990666E-02  3.16423961E-01
  7.44308291E-01  1.00000000E+00  0.00000000E+00  0.00000000E+00  0.00000000E+00
  0.00000000E+00  0.00000000E+00  0.00000000E+00  0.00000000E+00  6.89990666E-02
  3.16423961E-01  7.44308291E-01  1.00000000E+00  0.00000000E+00  0.00000000E+00
  0.00000000E+00  0.00000000E+00  0.00000000E+00  0.00000000E+00  0.00000000E+00
  6.89990666E-02  3.16423961E-01  7.44308291E-01  1.00000000E+00  0.00000000E+00
  0.00000000E+00  0.00000000E+00  0.00000000E+00  0.00000000E+00  0.00000000E+00
  0.00000000E+00  0.00000000E+00  0.00000000E+00  0.00000000E+00  0.00000000E+00
  0.00000000E+00  0.00000000E+00  0.00000000E+00  0.00000000E+00  0.00000000E+00
  0.00000000E+00  0.00000000E+00  0.00000000E+00  0.00000000E+00  0.00000000E+00
  0.00000000E+00  0.00000000E+00  0.00000000E+00  0.00000000E+00  0.00000000E+00
  0.00000000E+00  0.00000000E+00  0.00000000E+00  0.00000000E+00  0.00000000E+00
  0.00000000E+00  0.00000000E+00  0.00000000E+00  0.00000000E+00  0.00000000E+00
  0.00000000E+00  0.00000000E+00  0.00000000E+00  0.00000000E+00  0.00000000E+00
  0.00000000E+00  0.00000000E+00  0.00000000E+00  0.00000000E+00  0.00000000E+00
  0.00000000E+00  0.00000000E+00  0.00000000E+00  0.00000000E+00  0.00000000E+00
  0.00000000E+00  0.00000000E+00  0.00000000E+00  0.00000000E+00  0.00000000E+00
  0.00000000E+00
Coordinates of each shell                  R   N=         186
  1.65962609E+00 -2.08847335E+00 -1.01008353E+00  1.65962609E+00 -2.08847335E+00
 -1.01008353E+00  1.65962609E+00 -2.08847335E+00 -1.01008353E+00  1.65962609E+00
 -2.08847335E+00 -1.01008353E+00  1.65962609E+00 -2.08847335E+00 -1.01008353E+00
 -1.65962585E+00 -2.08847394E+00  1.01008469E+00 -1.65962585E+00 -2.08847394E+00
  1.01008469E+00 -1.65962585E+00 -2.08847394E+00  1.01008469E+00 -1.65962585E+00
 -2.08847394E+00  1.01008469E+00 -1.65962585E+00 -2.08847394E+00  1.01008469E+00
  6.06601490E+00  6.03229934E-01 -6.58285047E-01  6.06601490E+00  6.03229934E-01
 -6.58285047E-01  6.06601490E+00  6.03229934E-01 -6.58285047E-01  6.06601490E+00
  6.03229934E-01 -6.58285047E-01 -6.06601225E+00  6.03234716E-01  6.58289656E-01
 -6.06601225E+00  6.03234716E-01  6.58289656E-01 -6.06601225E+00  6.03234716E-01
  6.58289656E-01 -6.06601225E+00  6.03234716E-01  6.58289656E-01  3.46273014E+00
  3.92333838E-01  5.59555850E-01  3.46273014E+00  3.92333838E-01  5.59555850E-01
  3.46273014E+00  3.92333838E-01  5.59555850E-01  3.46273014E+00  3.92333838E-01
  5.59555850E-01 -3.46273344E+00  3.92327132E-01 -5.59561203E-01 -3.46273344E+00
  3.92327132E-01 -5.59561203E-01 -3.46273344E+00  3.92327132E-01 -5.59561203E-01
 -3.46273344E+00  3.92327132E-01 -5.59561203E-01  7.65365320E+00  2.66135985E+00
  5.95541142E-01  7.65365320E+00  2.66135985E+00  5.95541142E-01  7.65365320E+00
  2.66135985E+00  5.95541142E-01  7.65365320E+00  2.66135985E+00  5.95541142E-01
 -7.65365293E+00  2.66135946E+00 -5.95542127E-01 -7.65365293E+00  2.66135946E+00
 -5.95542127E-01 -7.65365293E+00  2.66135946E+00 -5.95542127E-01 -7.65365293E+00
  2.66135946E+00 -5.95542127E-01  7.03961557E+00 -1.21854985E+00 -5.16169465E-01
  7.03961557E+00 -1.21854985E+00 -5.16169465E-01  5.85389345E+00  1.01383312E+00
 -2.67682186E+00  5.85389345E+00  1.01383312E+00 -2.67682186E+00 -7.03961632E+00
 -1.21854444E+00  5.16189552E-01 -7.03961632E+00 -1.21854444E+00  5.16189552E-01
 -5.85388172E+00  1.01385016E+00  2.67682303E+00 -5.85388172E+00  1.01385016E+00
  2.67682303E+00  3.63286004E+00 -7.48273001E-02  2.56575846E+00  3.63286004E+00
 -7.48273001E-02  2.56575846E+00  2.44971384E+00  2.18835171E+00  3.93446196E-01
  2.44971384E+00  2.18835171E+00  3.93446196E-01 -3.63287215E+00 -7.48462042E-02
 -2.56576022E+00 -3.63287215E+00 -7.48462042E-02 -2.56576022E+00 -2.44971333E+00
  2.18834425E+00 -3.93466644E-01 -2.44971333E+00  2.18834425E+00 -3.93466644E-01
  7.92920902E+00  2.26142193E+00  2.60498037E+00  7.92920902E+00  2.26142193E+00
  2.60498037E+00  9.51692541E+00  2.79672049E+00 -2.87855295E-01  9.51692541E+00
  2.79672049E+00 -2.87855295E-01  6.73643058E+00  4.50709819E+00  4.31904373E-01
  6.73643058E+00  4.50709819E+00  4.31904373E-01 -7.92921900E+00  2.26140879E+00
 -2.60497738E+00 -7.92921900E+00  2.26140879E+00 -2.60497738E+00 -9.51692064E+00
  2.79672904E+00  2.87862471E-01 -9.51692064E+00  2.79672904E+00  2.87862471E-01
 -6.73642625E+00  4.50709724E+00 -4.31921819E-01 -6.73642625E+00  4.50709724E+00
 -4.31921819E-01
Constraint Structure                       R   N=          66
  1.65962609E+00 -2.08847335E+00 -1.01008353E+00 -1.65962585E+00 -2.08847394E+00
  1.01008469E+00  6.06601490E+00  6.03229934E-01 -6.58285047E-01 -6.06601225E+00
  6.03234716E-01  6.58289656E-01  3.46273014E+00  3.92333838E-01  5.59555850E-01
 -3.46273344E+00  3.92327132E-01 -5.59561203E-01  7.65365320E+00  2.66135985E+00
  5.95541142E-01 -7.65365293E+00  2.66135946E+00 -5.95542127E-01  7.03961557E+00
 -1.21854985E+00 -5.16169465E-01  5.85389345E+00  1.01383312E+00 -2.67682186E+00
 -7.03961632E+00 -1.21854444E+00  5.16189552E-01 -5.85388172E+00  1.01385016E+00
  2.67682303E+00  3.63286004E+00 -7.48273001E-02  2.56575846E+00  2.44971384E+00
  2.18835171E+00  3.93446196E-01 -3.63287215E+00 -7.48462042E-02 -2.56576022E+00
 -2.44971333E+00  2.18834425E+00 -3.93466644E-01  7.92920902E+00  2.26142193E+00
  2.60498037E+00  9.51692541E+00  2.79672049E+00 -2.87855295E-01  6.73643058E+00
  4.50709819E+00  4.31904373E-01 -7.92921900E+00  2.26140879E+00 -2.60497738E+00
 -9.51692064E+00  2.79672904E+00  2.87862471E-01 -6.73642625E+00  4.50709724E+00
 -4.31921819E-01
Num ILSW                                   I              100
ILSW                                       I   N=         100
           0           1           0           0           2           0
           0           0           0           0           0          -1
           0           0           0           0           0           0
           0           0           0           0           1           0
           1           0           0           0           0           0
           0           0      100000           0          -1           0
           0           0           0           0           0           0
           0           0           0           1           1           0
           0           0           1           0           0           0
           0           0           4          40           0           0
           0           0           0           0           0           0
           0           0           0           0           0           0
           0           0           0           0           0           0
           0           0           0           0           0           0
           0           0           0           0           0           0
           0           0           0           0           0           0
           0           0           0           0
Num RLSW                                   I               40
RLSW                                       R   N=          40
  1.00000000E+00  1.00000000E+00  1.00000000E+00  1.00000000E+00  1.00000000E+00
  0.00000000E+00  0.00000000E+00  1.00000000E+00  0.00000000E+00  0.00000000E+00
  0.00000000E+00  0.00000000E+00  1.00000000E+00  0.00000000E+00  0.00000000E+00
  0.00000000E+00  0.00000000E+00  1.00000000E+00  0.00000000E+00  0.00000000E+00
  0.00000000E+00  0.00000000E+00  1.00000000E+00  0.00000000E+00  0.00000000E+00
  0.00000000E+00  0.00000000E+00  1.00000000E+00  0.00000000E+00  0.00000000E+00
  0.00000000E+00  0.00000000E+00  0.00000000E+00  0.00000000E+00  0.00000000E+00
  0.00000000E+00  0.00000000E+00  0.00000000E+00  1.00000000E+00  1.00000000E+00
MxBond                                     I                4
NBond                                      I   N=          22
           2           2           4           4           4           4
           4           4           1           1           1           1
           1           1           1           1           1           1
           1           1           1           1
IBond                                      I   N=          88
           2           5           0           0           1           6
           0           0           5           7           9          10
           6           8          11          12           1           3
          13          14           2           4          15          16
           3          17          18          19           4          20
          21          22           3           0           0           0
           3           0           0           0           4           0
           0           0           4           0           0           0
           5           0           0           0           5           0
           0           0           6           0           0           0
           6           0           0           0           7           0
           0           0           7           0           0           0
           7           0           0           0           8           0
           0           0           8           0           0           0
           8           0           0           0
RBond                                      R   N=          88
  1.00000000E+00  1.00000000E+00  0.00000000E+00  0.00000000E+00  1.00000000E+00
  1.00000000E+00  0.00000000E+00  0.00000000E+00  1.00000000E+00  1.00000000E+00
  1.00000000E+00  1.00000000E+00  1.00000000E+00  1.00000000E+00  1.00000000E+00
  1.00000000E+00  1.00000000E+00  1.00000000E+00  1.00000000E+00  1.00000000E+00
  1.00000000E+00  1.00000000E+00  1.00000000E+00  1.00000000E+00  1.00000000E+00
  1.00000000E+00  1.00000000E+00  1.00000000E+00  1.00000000E+00  1.00000000E+00
  1.00000000E+00  1.00000000E+00  1.00000000E+00  0.00000000E+00  0.00000000E+00
  0.00000000E+00  1.00000000E+00  0.00000000E+00  0.00000000E+00  0.00000000E+00
  1.00000000E+00  0.00000000E+00  0.00000000E+00  0.00000000E+00  1.00000000E+00
  0.00000000E+00  0.00000000E+00  0.00000000E+00  1.00000000E+00  0.00000000E+00
  0.00000000E+00  0.00000000E+00  1.00000000E+00  0.00000000E+00  0.00000000E+00
  0.00000000E+00  1.00000000E+00  0.00000000E+00  0.00000000E+00  0.00000000E+00
  1.00000000E+00  0.00000000E+00  0.00000000E+00  0.00000000E+00  1.00000000E+00
  0.00000000E+00  0.00000000E+00  0.00000000E+00  1.00000000E+00  0.00000000E+00
  0.00000000E+00  0.00000000E+00  1.00000000E+00  0.00000000E+00  0.00000000E+00
  0.00000000E+00  1.00000000E+00  0.00000000E+00  0.00000000E+00  0.00000000E+00
  1.00000000E+00  0.00000000E+00  0.00000000E+00  0.00000000E+00  1.00000000E+00
  0.00000000E+00  0.00000000E+00  0.00000000E+00
Virial Ratio                               R      2.000464711073805E+00
SCF Energy                                 R     -1.030387456665716E+03
MP2 Energy                                 R     -1.031421131256232E+03
Total Energy                               R     -1.031421131256232E+03
Post-SCF wavefunction norm                 R      1.658152258007757E+00
RMS Force                                  R      6.876308091897650E-08
RMS Density                                R      4.192734597170162E-10
External E-field                           R   N=          35
  0.00000000E+00  0.00000000E+00  0.00000000E+00  0.00000000E+00  0.00000000E+00
  0.00000000E+00  0.00000000E+00  0.00000000E+00  0.00000000E+00  0.00000000E+00
  0.00000000E+00  0.00000000E+00  0.00000000E+00  0.00000000E+00  0.00000000E+00
  0.00000000E+00  0.00000000E+00  0.00000000E+00  0.00000000E+00  0.00000000E+00
  0.00000000E+00  0.00000000E+00  0.00000000E+00  0.00000000E+00  0.00000000E+00
  0.00000000E+00  0.00000000E+00  0.00000000E+00  0.00000000E+00  0.00000000E+00
  0.00000000E+00  0.00000000E+00  0.00000000E+00  0.00000000E+00  0.00000000E+00
IOpCl                                      I                0
IROHF                                      I                0
Alpha Orbital Energies                     R   N=         156
 -9.19507589E+01 -9.19507546E+01 -1.12595036E+01 -1.12595024E+01 -1.12350938E+01
 -1.12350937E+01 -1.12241154E+01 -1.12241154E+01 -8.96154997E+00 -8.96137380E+00
 -6.64448620E+00 -6.64416447E+00 -6.64236484E+00 -6.64231799E+00 -6.64034310E+00
 -6.64034166E+00 -1.10703126E+00 -1.08307961E+00 -1.02912280E+00 -9.66598917E-01
 -9.04093863E-01 -8.30412532E-01 -8.08291650E-01 -7.78093136E-01 -6.52084561E-01
 -6.49833927E-01 -5.95159364E-01 -5.90806704E-01 -5.86410562E-01 -5.62549124E-01
 -5.59542622E-01 -5.38067101E-01 -5.02772160E-01 -4.98051315E-01 -4.88955557E-01
 -4.86725922E-01 -4.78761583E-01 -4.64762055E-01 -4.30271432E-01 -3.51209208E-01
 -3.43219993E-01  1.37833618E-01  1.94031492E-01  1.97312868E-01  2.35463481E-01
  2.53327541E-01  2.55216589E-01  2.76946880E-01  2.82280546E-01  2.97434817E-01
  2.98835383E-01  3.08991880E-01  3.21775105E-01  3.33070968E-01  3.33781436E-01
  3.35372821E-01  3.36937097E-01  3.58027761E-01  3.74662080E-01  3.98810095E-01
  4.01382408E-01  4.28073013E-01  5.30129174E-01  5.45073808E-01  5.58947206E-01
  5.64634993E-01  5.81466052E-01  5.90777686E-01  6.20821146E-01  6.69407057E-01
  7.21545460E-01  7.25279447E-01  7.28405873E-01  7.40254866E-01  7.53264176E-01
  7.62208868E-01  7.72147947E-01  8.14674601E-01  8.17806931E-01  8.47035484E-01
  8.97098277E-01  8.99960376E-01  9.24229294E-01  9.50167403E-01  9.60112182E-01
  1.00434100E+00  1.01403117E+00  1.04054085E+00  1.06621483E+00  1.11358452E+00
  1.12818331E+00  1.13119640E+00  1.13293106E+00  1.14519895E+00  1.15169417E+00
  1.15789653E+00  1.15874929E+00  1.16469877E+00  1.17991108E+00  1.18307612E+00
  1.19867905E+00  1.20503705E+00  1.21834634E+00  1.22591411E+00  1.23185500E+00