78510                                                                   
Freq      RMP2-FC                                                     6-31G(d)            
Number of atoms                            I               22
Info1-9                                    I   N=           9
          34          32        1002           0           0         100
           6           2           1
Charge                                     I                0
Multiplicity                               I                1
Number of electrons                        I               90
Number of alpha electrons                  I               45
Number of beta electrons                   I               45
Number of basis functions                  I              213
Number of independent functions            I              213
Number of point charges in /Mol/           I                0
Number of translation vectors              I                0
Atomic numbers                             I   N=          22
           8           7           6           6           6           6
           6           6           6           6           6           6
           6           1           1           1           1           1
           1           1           1           1
Nuclear charges                            R   N=          22
  8.00000000E+00  7.00000000E+00  6.00000000E+00  6.00000000E+00  6.00000000E+00
  6.00000000E+00  6.00000000E+00  6.00000000E+00  6.00000000E+00  6.00000000E+00
  6.00000000E+00  6.00000000E+00  6.00000000E+00  1.00000000E+00  1.00000000E+00
  1.00000000E+00  1.00000000E+00  1.00000000E+00  1.00000000E+00  1.00000000E+00
  1.00000000E+00  1.00000000E+00
Current cartesian coordinates              R   N=          66
  1.69081677E-01 -2.40117890E+00  3.07559487E-03  2.07142116E+00  1.57234349E+00
 -2.34937170E-03 -2.14560565E+00 -1.11985053E+00  1.49699138E-03 -3.30791419E+00
 -5.82082167E-01 -2.29665312E+00 -3.30657910E+00 -5.73675676E-01  2.29834921E+00
  2.30456534E+00 -9.27104337E-01  1.12812769E-03 -5.69643672E+00  5.36206323E-01
 -2.28643366E+00 -5.69509122E+00  5.44587525E-01  2.28542166E+00 -6.89078651E+00
  1.10455618E+00 -1.19249119E-03  4.61253790E+00 -2.22799017E+00  2.99227346E-03
  6.80880461E+00 -7.95767009E-01  1.05546729E-03  6.62704624E+00  1.84407071E+00
 -2.61171226E-03  4.23372178E+00  2.92587636E+00 -4.17142037E-03 -2.34517197E+00
 -1.04922661E+00 -4.04893296E+00 -2.34282913E+00 -1.03438997E+00  4.05177739E+00
 -6.62477364E+00  9.64493076E-01 -4.06865856E+00 -6.62238541E+00  9.79411599E-01
  4.06660627E+00  4.62981349E+00 -4.27876532E+00  5.84317512E-03 -8.75230101E+00
  1.97284626E+00 -2.23698806E-03  8.64312100E+00 -1.72107419E+00  2.38647191E-03
  8.30238107E+00  3.02821981E+00 -4.21486278E-03  3.99396911E+00  4.96854886E+00
 -7.01704548E-03
Force Field                                I                0
Int Atom Types                             I   N=          22
           0           0           0           0           0           0
           0           0           0           0           0           0
           0           0           0           0           0           0
           0           0           0           0
MM charges                                 R   N=          22
  0.00000000E+00  0.00000000E+00  0.00000000E+00  0.00000000E+00  0.00000000E+00
  0.00000000E+00  0.00000000E+00  0.00000000E+00  0.00000000E+00  0.00000000E+00
  0.00000000E+00  0.00000000E+00  0.00000000E+00  0.00000000E+00  0.00000000E+00
  0.00000000E+00  0.00000000E+00  0.00000000E+00  0.00000000E+00  0.00000000E+00
  0.00000000E+00  0.00000000E+00
Integer atomic weights                     I   N=          22
          16          14          12          12          12          12
          12          12          12          12          12          12
          12           1           1           1           1           1
           1           1           1           1
Real atomic weights                        R   N=          22
  1.59949146E+01  1.40030740E+01  1.20000000E+01  1.20000000E+01  1.20000000E+01
  1.20000000E+01  1.20000000E+01  1.20000000E+01  1.20000000E+01  1.20000000E+01
  1.20000000E+01  1.20000000E+01  1.20000000E+01  1.00782504E+00  1.00782504E+00
  1.00782504E+00  1.00782504E+00  1.00782504E+00  1.00782504E+00  1.00782504E+00
  1.00782504E+00  1.00782504E+00
Atom fragment info                         I   N=          22
           0           0           0           0           0           0
           0           0           0           0           0           0
           0           0           0           0           0           0
           0           0           0           0
Atom residue num                           I   N=          22
           0           0           0           0           0           0
           0           0           0           0           0           0
           0           0           0           0           0           0
           0           0           0           0
Nuclear spins                              I   N=          22
           0           2           0           0           0           0
           0           0           0           0           0           0
           0           1           1           1           1           1
           1           1           1           1
Nuclear ZEff                               R   N=          22
 -5.60000000E+00 -4.55000000E+00 -3.60000000E+00 -3.60000000E+00 -3.60000000E+00
 -3.60000000E+00 -3.60000000E+00 -3.60000000E+00 -3.60000000E+00 -3.60000000E+00
 -3.60000000E+00 -3.60000000E+00 -3.60000000E+00 -1.00000000E+00 -1.00000000E+00
 -1.00000000E+00 -1.00000000E+00 -1.00000000E+00 -1.00000000E+00 -1.00000000E+00
 -1.00000000E+00 -1.00000000E+00
Nuclear QMom                               R   N=          22
  0.00000000E+00  2.04400000E+00  0.00000000E+00  0.00000000E+00  0.00000000E+00
  0.00000000E+00  0.00000000E+00  0.00000000E+00  0.00000000E+00  0.00000000E+00
  0.00000000E+00  0.00000000E+00  0.00000000E+00  0.00000000E+00  0.00000000E+00
  0.00000000E+00  0.00000000E+00  0.00000000E+00  0.00000000E+00  0.00000000E+00
  0.00000000E+00  0.00000000E+00
Nuclear GFac                               R   N=          22
  0.00000000E+00  4.03761000E-01  0.00000000E+00  0.00000000E+00  0.00000000E+00
  0.00000000E+00  0.00000000E+00  0.00000000E+00  0.00000000E+00  0.00000000E+00
  0.00000000E+00  0.00000000E+00  0.00000000E+00  2.79284600E+00  2.79284600E+00
  2.79284600E+00  2.79284600E+00  2.79284600E+00  2.79284600E+00  2.79284600E+00
  2.79284600E+00  2.79284600E+00
MicOpt                                     I   N=          22
          -1          -1          -1          -1          -1          -1
          -1          -1          -1          -1          -1          -1
          -1          -1          -1          -1          -1          -1
          -1          -1          -1          -1
Number of contracted shells                I               70
Number of primitive shells                 I              179
Pure/Cartesian d shells                    I                1
Pure/Cartesian f shells                    I                0
Highest angular momentum                   I                2
Largest degree of contraction              I                6
Shell types                                I   N=          70
           0          -1          -1           2           0          -1
          -1           2           0          -1          -1           2
           0          -1          -1           2           0          -1
          -1           2           0          -1          -1           2
           0          -1          -1           2           0          -1
          -1           2           0          -1          -1           2
           0          -1          -1           2           0          -1
          -1           2           0          -1          -1           2
           0          -1          -1           2           0           0
           0           0           0           0           0           0
           0           0           0           0           0           0
           0           0           0           0
Number of primitives per shell             I   N=          70
           6           3           1           1           6           3
           1           1           6           3           1           1
           6           3           1           1           6           3
           1           1           6           3           1           1
           6           3           1           1           6           3
           1           1           6           3           1           1
           6           3           1           1           6           3
           1           1           6           3           1           1
           6           3           1           1           3           1
           3           1           3           1           3           1
           3           1           3           1           3           1
           3           1           3           1
Shell to atom map                          I   N=          70
           1           1           1           1           2           2
           2           2           3           3           3           3
           4           4           4           4           5           5
           5           5           6           6           6           6
           7           7           7           7           8           8
           8           8           9           9           9           9
          10          10          10          10          11          11
          11          11          12          12          12          12
          13          13          13          13          14          14
          15          15          16          16          17          17
          18          18          19          19          20          20
          21          21          22          22
Primitive exponents                        R   N=         179
  5.48467166E+03  8.25234946E+02  1.88046958E+02  5.29645000E+01  1.68975704E+01
  5.79963534E+00  1.55396162E+01  3.59993359E+00  1.01376175E+00  2.70005823E-01
  8.00000000E-01  4.17351146E+03  6.27457911E+02  1.42902093E+02  4.02343293E+01
  1.28202129E+01  4.39043701E+00  1.16263619E+01  2.71627981E+00  7.72218397E-01
  2.12031498E-01  8.00000000E-01  3.04752488E+03  4.57369518E+02  1.03948685E+02
  2.92101553E+01  9.28666296E+00  3.16392696E+00  7.86827235E+00  1.88128854E+00
  5.44249258E-01  1.68714478E-01  8.00000000E-01  3.04752488E+03  4.57369518E+02
  1.03948685E+02  2.92101553E+01  9.28666296E+00  3.16392696E+00  7.86827235E+00
  1.88128854E+00  5.44249258E-01  1.68714478E-01  8.00000000E-01  3.04752488E+03
  4.57369518E+02  1.03948685E+02  2.92101553E+01  9.28666296E+00  3.16392696E+00
  7.86827235E+00  1.88128854E+00  5.44249258E-01  1.68714478E-01  8.00000000E-01
  3.04752488E+03  4.57369518E+02  1.03948685E+02  2.92101553E+01  9.28666296E+00
  3.16392696E+00  7.86827235E+00  1.88128854E+00  5.44249258E-01  1.68714478E-01
  8.00000000E-01  3.04752488E+03  4.57369518E+02  1.03948685E+02  2.92101553E+01
  9.28666296E+00  3.16392696E+00  7.86827235E+00  1.88128854E+00  5.44249258E-01
  1.68714478E-01  8.00000000E-01  3.04752488E+03  4.57369518E+02  1.03948685E+02
  2.92101553E+01  9.28666296E+00  3.16392696E+00  7.86827235E+00  1.88128854E+00
  5.44249258E-01  1.68714478E-01  8.00000000E-01  3.04752488E+03  4.57369518E+02
  1.03948685E+02  2.92101553E+01  9.28666296E+00  3.16392696E+00  7.86827235E+00
  1.88128854E+00  5.44249258E-01  1.68714478E-01  8.00000000E-01  3.04752488E+03
  4.57369518E+02  1.03948685E+02  2.92101553E+01  9.28666296E+00  3.16392696E+00
  7.86827235E+00  1.88128854E+00  5.44249258E-01  1.68714478E-01  8.00000000E-01
  3.04752488E+03  4.57369518E+02  1.03948685E+02  2.92101553E+01  9.28666296E+00
  3.16392696E+00  7.86827235E+00  1.88128854E+00  5.44249258E-01  1.68714478E-01
  8.00000000E-01  3.04752488E+03  4.57369518E+02  1.03948685E+02  2.92101553E+01
  9.28666296E+00  3.16392696E+00  7.86827235E+00  1.88128854E+00  5.44249258E-01
  1.68714478E-01  8.00000000E-01  3.04752488E+03  4.57369518E+02  1.03948685E+02
  2.92101553E+01  9.28666296E+00  3.16392696E+00  7.86827235E+00  1.88128854E+00
  5.44249258E-01  1.68714478E-01  8.00000000E-01  1.87311370E+01  2.82539436E+00
  6.40121692E-01  1.61277759E-01  1.87311370E+01  2.82539436E+00  6.40121692E-01
  1.61277759E-01  1.87311370E+01  2.82539436E+00  6.40121692E-01  1.61277759E-01
  1.87311370E+01  2.82539436E+00  6.40121692E-01  1.61277759E-01  1.87311370E+01
  2.82539436E+00  6.40121692E-01  1.61277759E-01  1.87311370E+01  2.82539436E+00
  6.40121692E-01  1.61277759E-01  1.87311370E+01  2.82539436E+00  6.40121692E-01
  1.61277759E-01  1.87311370E+01  2.82539436E+00  6.40121692E-01  1.61277759E-01
  1.87311370E+01  2.82539436E+00  6.40121692E-01  1.61277759E-01
Contraction coefficients                   R   N=         179
  1.83107443E-03  1.39501722E-02  6.84450781E-02  2.32714336E-01  4.70192898E-01
  3.58520853E-01 -1.10777550E-01 -1.48026263E-01  1.13076702E+00  1.00000000E+00
  1.00000000E+00  1.83477216E-03  1.39946270E-02  6.85865518E-02  2.32240873E-01
  4.69069948E-01  3.60455199E-01 -1.14961182E-01 -1.69117479E-01  1.14585195E+00
  1.00000000E+00  1.00000000E+00  1.83473713E-03  1.40373228E-02  6.88426223E-02
  2.32184443E-01  4.67941348E-01  3.62311985E-01 -1.19332420E-01 -1.60854152E-01
  1.14345644E+00  1.00000000E+00  1.00000000E+00  1.83473713E-03  1.40373228E-02
  6.88426223E-02  2.32184443E-01  4.67941348E-01  3.62311985E-01 -1.19332420E-01
 -1.60854152E-01  1.14345644E+00  1.00000000E+00  1.00000000E+00  1.83473713E-03
  1.40373228E-02  6.88426223E-02  2.32184443E-01  4.67941348E-01  3.62311985E-01
 -1.19332420E-01 -1.60854152E-01  1.14345644E+00  1.00000000E+00  1.00000000E+00
  1.83473713E-03  1.40373228E-02  6.88426223E-02  2.32184443E-01  4.67941348E-01
  3.62311985E-01 -1.19332420E-01 -1.60854152E-01  1.14345644E+00  1.00000000E+00
  1.00000000E+00  1.83473713E-03  1.40373228E-02  6.88426223E-02  2.32184443E-01
  4.67941348E-01  3.62311985E-01 -1.19332420E-01 -1.60854152E-01  1.14345644E+00
  1.00000000E+00  1.00000000E+00  1.83473713E-03  1.40373228E-02  6.88426223E-02
  2.32184443E-01  4.67941348E-01  3.62311985E-01 -1.19332420E-01 -1.60854152E-01
  1.14345644E+00  1.00000000E+00  1.00000000E+00  1.83473713E-03  1.40373228E-02
  6.88426223E-02  2.32184443E-01  4.67941348E-01  3.62311985E-01 -1.19332420E-01
 -1.60854152E-01  1.14345644E+00  1.00000000E+00  1.00000000E+00  1.83473713E-03
  1.40373228E-02  6.88426223E-02  2.32184443E-01  4.67941348E-01  3.62311985E-01
 -1.19332420E-01 -1.60854152E-01  1.14345644E+00  1.00000000E+00  1.00000000E+00
  1.83473713E-03  1.40373228E-02  6.88426223E-02  2.32184443E-01  4.67941348E-01
  3.62311985E-01 -1.19332420E-01 -1.60854152E-01  1.14345644E+00  1.00000000E+00
  1.00000000E+00  1.83473713E-03  1.40373228E-02  6.88426223E-02  2.32184443E-01
  4.67941348E-01  3.62311985E-01 -1.19332420E-01 -1.60854152E-01  1.14345644E+00
  1.00000000E+00  1.00000000E+00  1.83473713E-03  1.40373228E-02  6.88426223E-02
  2.32184443E-01  4.67941348E-01  3.62311985E-01 -1.19332420E-01 -1.60854152E-01
  1.14345644E+00  1.00000000E+00  1.00000000E+00  3.34946043E-02  2.34726953E-01
  8.13757326E-01  1.00000000E+00  3.34946043E-02  2.34726953E-01  8.13757326E-01
  1.00000000E+00  3.34946043E-02  2.34726953E-01  8.13757326E-01  1.00000000E+00
  3.34946043E-02  2.34726953E-01  8.13757326E-01  1.00000000E+00  3.34946043E-02
  2.34726953E-01  8.13757326E-01  1.00000000E+00  3.34946043E-02  2.34726953E-01
  8.13757326E-01  1.00000000E+00  3.34946043E-02  2.34726953E-01  8.13757326E-01
  1.00000000E+00  3.34946043E-02  2.34726953E-01  8.13757326E-01  1.00000000E+00
  3.34946043E-02  2.34726953E-01  8.13757326E-01  1.00000000E+00
P(S=P) Contraction coefficients            R   N=         179
  0.00000000E+00  0.00000000E+00  0.00000000E+00  0.00000000E+00  0.00000000E+00
  0.00000000E+00  7.08742682E-02  3.39752839E-01  7.27158577E-01  1.00000000E+00
  0.00000000E+00  0.00000000E+00  0.00000000E+00  0.00000000E+00  0.00000000E+00
  0.00000000E+00  0.00000000E+00  6.75797439E-02  3.23907296E-01  7.40895140E-01
  1.00000000E+00  0.00000000E+00  0.00000000E+00  0.00000000E+00  0.00000000E+00
  0.00000000E+00  0.00000000E+00  0.00000000E+00  6.89990666E-02  3.16423961E-01
  7.44308291E-01  1.00000000E+00  0.00000000E+00  0.00000000E+00  0.00000000E+00
  0.00000000E+00  0.00000000E+00  0.00000000E+00  0.00000000E+00  6.89990666E-02
  3.16423961E-01  7.44308291E-01  1.00000000E+00  0.00000000E+00  0.00000000E+00
  0.00000000E+00  0.00000000E+00  0.00000000E+00  0.00000000E+00  0.00000000E+00
  6.89990666E-02  3.16423961E-01  7.44308291E-01  1.00000000E+00  0.00000000E+00
  0.00000000E+00  0.00000000E+00  0.00000000E+00  0.00000000E+00  0.00000000E+00
  0.00000000E+00  6.89990666E-02  3.16423961E-01  7.44308291E-01  1.00000000E+00
  0.00000000E+00  0.00000000E+00  0.00000000E+00  0.00000000E+00  0.00000000E+00
  0.00000000E+00  0.00000000E+00  6.89990666E-02  3.16423961E-01  7.44308291E-01
  1.00000000E+00  0.00000000E+00  0.00000000E+00  0.00000000E+00  0.00000000E+00
  0.00000000E+00  0.00000000E+00  0.00000000E+00  6.89990666E-02  3.16423961E-01
  7.44308291E-01  1.00000000E+00  0.00000000E+00  0.00000000E+00  0.00000000E+00
  0.00000000E+00  0.00000000E+00  0.00000000E+00  0.00000000E+00  6.89990666E-02
  3.16423961E-01  7.44308291E-01  1.00000000E+00  0.00000000E+00  0.00000000E+00
  0.00000000E+00  0.00000000E+00  0.00000000E+00  0.00000000E+00  0.00000000E+00
  6.89990666E-02  3.16423961E-01  7.44308291E-01  1.00000000E+00  0.00000000E+00
  0.00000000E+00  0.00000000E+00  0.00000000E+00  0.00000000E+00  0.00000000E+00
  0.00000000E+00  6.89990666E-02  3.16423961E-01  7.44308291E-01  1.00000000E+00
  0.00000000E+00  0.00000000E+00  0.00000000E+00  0.00000000E+00  0.00000000E+00
  0.00000000E+00  0.00000000E+00  6.89990666E-02  3.16423961E-01  7.44308291E-01
  1.00000000E+00  0.00000000E+00  0.00000000E+00  0.00000000E+00  0.00000000E+00
  0.00000000E+00  0.00000000E+00  0.00000000E+00  6.89990666E-02  3.16423961E-01
  7.44308291E-01  1.00000000E+00  0.00000000E+00  0.00000000E+00  0.00000000E+00
  0.00000000E+00  0.00000000E+00  0.00000000E+00  0.00000000E+00  0.00000000E+00
  0.00000000E+00  0.00000000E+00  0.00000000E+00  0.00000000E+00  0.00000000E+00
  0.00000000E+00  0.00000000E+00  0.00000000E+00  0.00000000E+00  0.00000000E+00
  0.00000000E+00  0.00000000E+00  0.00000000E+00  0.00000000E+00  0.00000000E+00
  0.00000000E+00  0.00000000E+00  0.00000000E+00  0.00000000E+00  0.00000000E+00
  0.00000000E+00  0.00000000E+00  0.00000000E+00  0.00000000E+00  0.00000000E+00
  0.00000000E+00  0.00000000E+00  0.00000000E+00  0.00000000E+00
Coordinates of each shell                  R   N=         210
  1.69081677E-01 -2.40117890E+00  3.07559487E-03  1.69081677E-01 -2.40117890E+00
  3.07559487E-03  1.69081677E-01 -2.40117890E+00  3.07559487E-03  1.69081677E-01
 -2.40117890E+00  3.07559487E-03  2.07142116E+00  1.57234349E+00 -2.34937170E-03
  2.07142116E+00  1.57234349E+00 -2.34937170E-03  2.07142116E+00  1.57234349E+00
 -2.34937170E-03  2.07142116E+00  1.57234349E+00 -2.34937170E-03 -2.14560565E+00
 -1.11985053E+00  1.49699138E-03 -2.14560565E+00 -1.11985053E+00  1.49699138E-03
 -2.14560565E+00 -1.11985053E+00  1.49699138E-03 -2.14560565E+00 -1.11985053E+00
  1.49699138E-03 -3.30791419E+00 -5.82082167E-01 -2.29665312E+00 -3.30791419E+00
 -5.82082167E-01 -2.29665312E+00 -3.30791419E+00 -5.82082167E-01 -2.29665312E+00
 -3.30791419E+00 -5.82082167E-01 -2.29665312E+00 -3.30657910E+00 -5.73675676E-01
  2.29834921E+00 -3.30657910E+00 -5.73675676E-01  2.29834921E+00 -3.30657910E+00
 -5.73675676E-01  2.29834921E+00 -3.30657910E+00 -5.73675676E-01  2.29834921E+00
  2.30456534E+00 -9.27104337E-01  1.12812769E-03  2.30456534E+00 -9.27104337E-01
  1.12812769E-03  2.30456534E+00 -9.27104337E-01  1.12812769E-03  2.30456534E+00
 -9.27104337E-01  1.12812769E-03 -5.69643672E+00  5.36206323E-01 -2.28643366E+00
 -5.69643672E+00  5.36206323E-01 -2.28643366E+00 -5.69643672E+00  5.36206323E-01
 -2.28643366E+00 -5.69643672E+00  5.36206323E-01 -2.28643366E+00 -5.69509122E+00
  5.44587525E-01  2.28542166E+00 -5.69509122E+00  5.44587525E-01  2.28542166E+00
 -5.69509122E+00  5.44587525E-01  2.28542166E+00 -5.69509122E+00  5.44587525E-01
  2.28542166E+00 -6.89078651E+00  1.10455618E+00 -1.19249119E-03 -6.89078651E+00
  1.10455618E+00 -1.19249119E-03 -6.89078651E+00  1.10455618E+00 -1.19249119E-03
 -6.89078651E+00  1.10455618E+00 -1.19249119E-03  4.61253790E+00 -2.22799017E+00
  2.99227346E-03  4.61253790E+00 -2.22799017E+00  2.99227346E-03  4.61253790E+00
 -2.22799017E+00  2.99227346E-03  4.61253790E+00 -2.22799017E+00  2.99227346E-03
  6.80880461E+00 -7.95767009E-01  1.05546729E-03  6.80880461E+00 -7.95767009E-01
  1.05546729E-03  6.80880461E+00 -7.95767009E-01  1.05546729E-03  6.80880461E+00
 -7.95767009E-01  1.05546729E-03  6.62704624E+00  1.84407071E+00 -2.61171226E-03
  6.62704624E+00  1.84407071E+00 -2.61171226E-03  6.62704624E+00  1.84407071E+00
 -2.61171226E-03  6.62704624E+00  1.84407071E+00 -2.61171226E-03  4.23372178E+00
  2.92587636E+00 -4.17142037E-03  4.23372178E+00  2.92587636E+00 -4.17142037E-03
  4.23372178E+00  2.92587636E+00 -4.17142037E-03  4.23372178E+00  2.92587636E+00
 -4.17142037E-03 -2.34517197E+00 -1.04922661E+00 -4.04893296E+00 -2.34517197E+00
 -1.04922661E+00 -4.04893296E+00 -2.34282913E+00 -1.03438997E+00  4.05177739E+00
 -2.34282913E+00 -1.03438997E+00  4.05177739E+00 -6.62477364E+00  9.64493076E-01
 -4.06865856E+00 -6.62477364E+00  9.64493076E-01 -4.06865856E+00 -6.62238541E+00
  9.79411599E-01  4.06660627E+00 -6.62238541E+00  9.79411599E-01  4.06660627E+00
  4.62981349E+00 -4.27876532E+00  5.84317512E-03  4.62981349E+00 -4.27876532E+00
  5.84317512E-03 -8.75230101E+00  1.97284626E+00 -2.23698806E-03 -8.75230101E+00
  1.97284626E+00 -2.23698806E-03  8.64312100E+00 -1.72107419E+00  2.38647191E-03
  8.64312100E+00 -1.72107419E+00  2.38647191E-03  8.30238107E+00  3.02821981E+00
 -4.21486278E-03  8.30238107E+00  3.02821981E+00 -4.21486278E-03  3.99396911E+00
  4.96854886E+00 -7.01704548E-03  3.99396911E+00  4.96854886E+00 -7.01704548E-03
Constraint Structure                       R   N=          66
  1.69081677E-01 -2.40117890E+00  3.07559487E-03  2.07142116E+00  1.57234349E+00
 -2.34937170E-03 -2.14560565E+00 -1.11985053E+00  1.49699138E-03 -3.30791419E+00
 -5.82082167E-01 -2.29665312E+00 -3.30657910E+00 -5.73675676E-01  2.29834921E+00
  2.30456534E+00 -9.27104337E-01  1.12812769E-03 -5.69643672E+00  5.36206323E-01
 -2.28643366E+00 -5.69509122E+00  5.44587525E-01  2.28542166E+00 -6.89078651E+00
  1.10455618E+00 -1.19249119E-03  4.61253790E+00 -2.22799017E+00  2.99227346E-03
  6.80880461E+00 -7.95767009E-01  1.05546729E-03  6.62704624E+00  1.84407071E+00
 -2.61171226E-03  4.23372178E+00  2.92587636E+00 -4.17142037E-03 -2.34517197E+00
 -1.04922661E+00 -4.04893296E+00 -2.34282913E+00 -1.03438997E+00  4.05177739E+00
 -6.62477364E+00  9.64493076E-01 -4.06865856E+00 -6.62238541E+00  9.79411599E-01
  4.06660627E+00  4.62981349E+00 -4.27876532E+00  5.84317512E-03 -8.75230101E+00
  1.97284626E+00 -2.23698806E-03  8.64312100E+00 -1.72107419E+00  2.38647191E-03
  8.30238107E+00  3.02821981E+00 -4.21486278E-03  3.99396911E+00  4.96854886E+00
 -7.01704548E-03
Num ILSW                                   I              100
ILSW                                       I   N=         100
           0           1           0           1           2           0
           0           0           0           0           0          -1
           0           0           0           0           0           0
           0           0           0           0           1           0
           1           0           0           0           0           0
           0           0      100000           0          -1           0
           0           0           0           0           0           0
           0           0           0           1           1           0
           0           0           1           0           0           0
           0           0           4          40           0           0
           0           0           0           0           0           0
           0           0           0           0           0           0
           0           0           0           0           0           0
           0           0           0           0           0           0
           0           0           0           0           0           0
           0           0           0           0           0           0
           0           0           0           0
Num RLSW                                   I               40
RLSW                                       R   N=          40
  1.00000000E+00  1.00000000E+00  1.00000000E+00  1.00000000E+00  1.00000000E+00
  0.00000000E+00  0.00000000E+00  1.00000000E+00  0.00000000E+00  0.00000000E+00
  0.00000000E+00  0.00000000E+00  1.00000000E+00  0.00000000E+00  0.00000000E+00
  0.00000000E+00  0.00000000E+00  1.00000000E+00  0.00000000E+00  0.00000000E+00
  0.00000000E+00  0.00000000E+00  1.00000000E+00  0.00000000E+00  0.00000000E+00
  0.00000000E+00  0.00000000E+00  1.00000000E+00  0.00000000E+00  0.00000000E+00
  0.00000000E+00  0.00000000E+00  0.00000000E+00  0.00000000E+00  0.00000000E+00
  0.00000000E+00  0.00000000E+00  0.00000000E+00  1.00000000E+00  1.00000000E+00
MxBond                                     I                3
NBond                                      I   N=          22
           2           2           3           3           3           3
           3           3           3           3           3           3
           3           1           1           1           1           1
           1           1           1           1
IBond                                      I   N=          66
           3           6           0           6          13           0
           1           4           5           3           7          14
           3           8          15           1           2          10
           4           9          16           5           9          17
           7           8          19           6          11          18
          10          12          20          11          13          21
           2          12          22           4           0           0
           5           0           0           7           0           0
           8           0           0          10           0           0
           9           0           0          11           0           0
          12           0           0          13           0           0
RBond                                      R   N=          66
  1.50000000E+00  1.50000000E+00  0.00000000E+00  1.50000000E+00  1.50000000E+00
  0.00000000E+00  1.50000000E+00  1.50000000E+00  1.50000000E+00  1.50000000E+00
  1.50000000E+00  1.00000000E+00  1.50000000E+00  1.50000000E+00  1.00000000E+00
  1.50000000E+00  1.50000000E+00  1.50000000E+00  1.50000000E+00  1.50000000E+00
  1.00000000E+00  1.50000000E+00  1.50000000E+00  1.00000000E+00  1.50000000E+00
  1.50000000E+00  1.00000000E+00  1.50000000E+00  1.50000000E+00  1.00000000E+00
  1.50000000E+00  1.50000000E+00  1.00000000E+00  1.50000000E+00  1.50000000E+00
  1.00000000E+00  1.50000000E+00  1.50000000E+00  1.00000000E+00  1.00000000E+00
  0.00000000E+00  0.00000000E+00  1.00000000E+00  0.00000000E+00  0.00000000E+00
  1.00000000E+00  0.00000000E+00  0.00000000E+00  1.00000000E+00  0.00000000E+00
  0.00000000E+00  1.00000000E+00  0.00000000E+00  0.00000000E+00  1.00000000E+00
  0.00000000E+00  0.00000000E+00  1.00000000E+00  0.00000000E+00  0.00000000E+00
  1.00000000E+00  0.00000000E+00  0.00000000E+00  1.00000000E+00  0.00000000E+00
  0.00000000E+00
Virial Ratio                               R      2.002409353545666E+00
SCF Energy                                 R     -5.510965184021063E+02
MP2 Energy                                 R     -5.528189810189383E+02
Total Energy                               R     -5.528189810189383E+02
Post-SCF wavefunction norm                 R      1.795098698690327E+00
RMS Force                                  R      1.615263460994508E-06
RMS Density                                R      1.552609498301918E-09
External E-field                           R   N=          35
  0.00000000E+00  0.00000000E+00  0.00000000E+00  0.00000000E+00  0.00000000E+00
  0.00000000E+00  0.00000000E+00  0.00000000E+00  0.00000000E+00  0.00000000E+00
  0.00000000E+00  0.00000000E+00  0.00000000E+00  0.00000000E+00  0.00000000E+00
  0.00000000E+00  0.00000000E+00  0.00000000E+00  0.00000000E+00  0.00000000E+00
  0.00000000E+00  0.00000000E+00  0.00000000E+00  0.00000000E+00  0.00000000E+00
  0.00000000E+00  0.00000000E+00  0.00000000E+00  0.00000000E+00  0.00000000E+00
  0.00000000E+00  0.00000000E+00  0.00000000E+00  0.00000000E+00  0.00000000E+00
IOpCl                                      I                0
IROHF                                      I                0
Alpha Orbital Energies                     R   N=         213
 -2.06020909E+01 -1.55663288E+01 -1.13429541E+01 -1.12928924E+01 -1.12825755E+01
 -1.12655192E+01 -1.12405131E+01 -1.12375624E+01 -1.12360602E+01 -1.12359468E+01
 -1.12310757E+01 -1.12310662E+01 -1.12306378E+01 -1.42760384E+00 -1.25166793E+00
 -1.14223375E+00 -1.08946528E+00 -1.03609855E+00 -1.01197087E+00 -9.91543363E-01
 -8.73868362E-01 -8.55857451E-01 -8.30312325E-01 -8.00570852E-01 -7.34550392E-01
 -7.00949414E-01 -6.74405665E-01 -6.64573585E-01 -6.51638169E-01 -6.23764376E-01
 -6.10169024E-01 -5.89861538E-01 -5.86199376E-01 -5.73381320E-01 -5.64858549E-01