70255                                                                   
Freq      RMP2-FC                                                     6-31G(d)            
Number of atoms                            I               12
Info1-9                                    I   N=           9
          24          22        1002           0           0         100
           6           2           1
Charge                                     I                0
Multiplicity                               I                1
Number of electrons                        I               44
Number of alpha electrons                  I               22
Number of beta electrons                   I               22
Number of basis functions                  I              102
Number of independent functions            I              102
Number of point charges in /Mol/           I                0
Number of translation vectors              I                0
Atomic numbers                             I   N=          12
           7           7           6           6           6           6
           1           1           1           1           1           1
Nuclear charges                            R   N=          12
  7.00000000E+00  7.00000000E+00  6.00000000E+00  6.00000000E+00  6.00000000E+00
  6.00000000E+00  1.00000000E+00  1.00000000E+00  1.00000000E+00  1.00000000E+00
  1.00000000E+00  1.00000000E+00
Current cartesian coordinates              R   N=          36
  1.12696090E+00  4.54717922E-02 -1.84655774E-05 -1.72809319E-01 -2.14552851E+00
 -3.25134513E-05 -3.96782935E-01  2.11931617E+00  4.43339057E-05  3.86689571E+00
 -3.82625620E-02 -1.05955567E-05 -2.85948346E+00  1.22553865E+00  2.84314016E-05
 -2.61703349E+00 -1.41472868E+00 -1.19230687E-05  3.75194939E-01  4.01189900E+00
  8.94646041E-05  4.52941204E+00 -1.02717560E+00  1.68366529E+00  4.52939345E+00
 -1.02744225E+00 -1.68353528E+00  4.57998953E+00  1.89555869E+00 -1.67128686E-04
 -4.57227405E+00  2.33805130E+00  3.61137469E-05 -4.08235198E+00 -2.84167564E+00
 -3.30783869E-05
Force Field                                I                0
Int Atom Types                             I   N=          12
           0           0           0           0           0           0
           0           0           0           0           0           0
MM charges                                 R   N=          12
  0.00000000E+00  0.00000000E+00  0.00000000E+00  0.00000000E+00  0.00000000E+00
  0.00000000E+00  0.00000000E+00  0.00000000E+00  0.00000000E+00  0.00000000E+00
  0.00000000E+00  0.00000000E+00
Integer atomic weights                     I   N=          12
          14          14          12          12          12          12
           1           1           1           1           1           1
Real atomic weights                        R   N=          12
  1.40030740E+01  1.40030740E+01  1.20000000E+01  1.20000000E+01  1.20000000E+01
  1.20000000E+01  1.00782504E+00  1.00782504E+00  1.00782504E+00  1.00782504E+00
  1.00782504E+00  1.00782504E+00
Atom fragment info                         I   N=          12
           0           0           0           0           0           0
           0           0           0           0           0           0
Atom residue num                           I   N=          12
           0           0           0           0           0           0
           0           0           0           0           0           0
Nuclear spins                              I   N=          12
           2           2           0           0           0           0
           1           1           1           1           1           1
Nuclear ZEff                               R   N=          12
 -4.55000000E+00 -4.55000000E+00 -3.60000000E+00 -3.60000000E+00 -3.60000000E+00
 -3.60000000E+00 -1.00000000E+00 -1.00000000E+00 -1.00000000E+00 -1.00000000E+00
 -1.00000000E+00 -1.00000000E+00
Nuclear QMom                               R   N=          12
  2.04400000E+00  2.04400000E+00  0.00000000E+00  0.00000000E+00  0.00000000E+00
  0.00000000E+00  0.00000000E+00  0.00000000E+00  0.00000000E+00  0.00000000E+00
  0.00000000E+00  0.00000000E+00
Nuclear GFac                               R   N=          12
  4.03761000E-01  4.03761000E-01  0.00000000E+00  0.00000000E+00  0.00000000E+00
  0.00000000E+00  2.79284600E+00  2.79284600E+00  2.79284600E+00  2.79284600E+00
  2.79284600E+00  2.79284600E+00
MicOpt                                     I   N=          12
          -1          -1          -1          -1          -1          -1
          -1          -1          -1          -1          -1          -1
Number of contracted shells                I               36
Number of primitive shells                 I               90
Pure/Cartesian d shells                    I                1
Pure/Cartesian f shells                    I                0
Highest angular momentum                   I                2
Largest degree of contraction              I                6
Shell types                                I   N=          36
           0          -1          -1           2           0          -1
          -1           2           0          -1          -1           2
           0          -1          -1           2           0          -1
          -1           2           0          -1          -1           2
           0           0           0           0           0           0
           0           0           0           0           0           0
Number of primitives per shell             I   N=          36
           6           3           1           1           6           3
           1           1           6           3           1           1
           6           3           1           1           6           3
           1           1           6           3           1           1
           3           1           3           1           3           1
           3           1           3           1           3           1
Shell to atom map                          I   N=          36
           1           1           1           1           2           2
           2           2           3           3           3           3
           4           4           4           4           5           5
           5           5           6           6           6           6
           7           7           8           8           9           9
          10          10          11          11          12          12
Primitive exponents                        R   N=          90
  4.17351146E+03  6.27457911E+02  1.42902093E+02  4.02343293E+01  1.28202129E+01
  4.39043701E+00  1.16263619E+01  2.71627981E+00  7.72218397E-01  2.12031498E-01
  8.00000000E-01  4.17351146E+03  6.27457911E+02  1.42902093E+02  4.02343293E+01
  1.28202129E+01  4.39043701E+00  1.16263619E+01  2.71627981E+00  7.72218397E-01
  2.12031498E-01  8.00000000E-01  3.04752488E+03  4.57369518E+02  1.03948685E+02
  2.92101553E+01  9.28666296E+00  3.16392696E+00  7.86827235E+00  1.88128854E+00
  5.44249258E-01  1.68714478E-01  8.00000000E-01  3.04752488E+03  4.57369518E+02
  1.03948685E+02  2.92101553E+01  9.28666296E+00  3.16392696E+00  7.86827235E+00
  1.88128854E+00  5.44249258E-01  1.68714478E-01  8.00000000E-01  3.04752488E+03
  4.57369518E+02  1.03948685E+02  2.92101553E+01  9.28666296E+00  3.16392696E+00
  7.86827235E+00  1.88128854E+00  5.44249258E-01  1.68714478E-01  8.00000000E-01
  3.04752488E+03  4.57369518E+02  1.03948685E+02  2.92101553E+01  9.28666296E+00
  3.16392696E+00  7.86827235E+00  1.88128854E+00  5.44249258E-01  1.68714478E-01
  8.00000000E-01  1.87311370E+01  2.82539436E+00  6.40121692E-01  1.61277759E-01
  1.87311370E+01  2.82539436E+00  6.40121692E-01  1.61277759E-01  1.87311370E+01
  2.82539436E+00  6.40121692E-01  1.61277759E-01  1.87311370E+01  2.82539436E+00
  6.40121692E-01  1.61277759E-01  1.87311370E+01  2.82539436E+00  6.40121692E-01
  1.61277759E-01  1.87311370E+01  2.82539436E+00  6.40121692E-01  1.61277759E-01
Contraction coefficients                   R   N=          90
  1.83477216E-03  1.39946270E-02  6.85865518E-02  2.32240873E-01  4.69069948E-01
  3.60455199E-01 -1.14961182E-01 -1.69117479E-01  1.14585195E+00  1.00000000E+00
  1.00000000E+00  1.83477216E-03  1.39946270E-02  6.85865518E-02  2.32240873E-01
  4.69069948E-01  3.60455199E-01 -1.14961182E-01 -1.69117479E-01  1.14585195E+00
  1.00000000E+00  1.00000000E+00  1.83473713E-03  1.40373228E-02  6.88426223E-02
  2.32184443E-01  4.67941348E-01  3.62311985E-01 -1.19332420E-01 -1.60854152E-01
  1.14345644E+00  1.00000000E+00  1.00000000E+00  1.83473713E-03  1.40373228E-02
  6.88426223E-02  2.32184443E-01  4.67941348E-01  3.62311985E-01 -1.19332420E-01
 -1.60854152E-01  1.14345644E+00  1.00000000E+00  1.00000000E+00  1.83473713E-03
  1.40373228E-02  6.88426223E-02  2.32184443E-01  4.67941348E-01  3.62311985E-01
 -1.19332420E-01 -1.60854152E-01  1.14345644E+00  1.00000000E+00  1.00000000E+00
  1.83473713E-03  1.40373228E-02  6.88426223E-02  2.32184443E-01  4.67941348E-01
  3.62311985E-01 -1.19332420E-01 -1.60854152E-01  1.14345644E+00  1.00000000E+00
  1.00000000E+00  3.34946043E-02  2.34726953E-01  8.13757326E-01  1.00000000E+00
  3.34946043E-02  2.34726953E-01  8.13757326E-01  1.00000000E+00  3.34946043E-02
  2.34726953E-01  8.13757326E-01  1.00000000E+00  3.34946043E-02  2.34726953E-01
  8.13757326E-01  1.00000000E+00  3.34946043E-02  2.34726953E-01  8.13757326E-01
  1.00000000E+00  3.34946043E-02  2.34726953E-01  8.13757326E-01  1.00000000E+00
P(S=P) Contraction coefficients            R   N=          90
  0.00000000E+00  0.00000000E+00  0.00000000E+00  0.00000000E+00  0.00000000E+00
  0.00000000E+00  6.75797439E-02  3.23907296E-01  7.40895140E-01  1.00000000E+00
  0.00000000E+00  0.00000000E+00  0.00000000E+00  0.00000000E+00  0.00000000E+00
  0.00000000E+00  0.00000000E+00  6.75797439E-02  3.23907296E-01  7.40895140E-01
  1.00000000E+00  0.00000000E+00  0.00000000E+00  0.00000000E+00  0.00000000E+00
  0.00000000E+00  0.00000000E+00  0.00000000E+00  6.89990666E-02  3.16423961E-01
  7.44308291E-01  1.00000000E+00  0.00000000E+00  0.00000000E+00  0.00000000E+00
  0.00000000E+00  0.00000000E+00  0.00000000E+00  0.00000000E+00  6.89990666E-02
  3.16423961E-01  7.44308291E-01  1.00000000E+00  0.00000000E+00  0.00000000E+00
  0.00000000E+00  0.00000000E+00  0.00000000E+00  0.00000000E+00  0.00000000E+00
  6.89990666E-02  3.16423961E-01  7.44308291E-01  1.00000000E+00  0.00000000E+00
  0.00000000E+00  0.00000000E+00  0.00000000E+00  0.00000000E+00  0.00000000E+00
  0.00000000E+00  6.89990666E-02  3.16423961E-01  7.44308291E-01  1.00000000E+00
  0.00000000E+00  0.00000000E+00  0.00000000E+00  0.00000000E+00  0.00000000E+00
  0.00000000E+00  0.00000000E+00  0.00000000E+00  0.00000000E+00  0.00000000E+00
  0.00000000E+00  0.00000000E+00  0.00000000E+00  0.00000000E+00  0.00000000E+00
  0.00000000E+00  0.00000000E+00  0.00000000E+00  0.00000000E+00  0.00000000E+00
  0.00000000E+00  0.00000000E+00  0.00000000E+00  0.00000000E+00  0.00000000E+00
Coordinates of each shell                  R   N=         108
  1.12696090E+00  4.54717922E-02 -1.84655774E-05  1.12696090E+00  4.54717922E-02
 -1.84655774E-05  1.12696090E+00  4.54717922E-02 -1.84655774E-05  1.12696090E+00
  4.54717922E-02 -1.84655774E-05 -1.72809319E-01 -2.14552851E+00 -3.25134513E-05
 -1.72809319E-01 -2.14552851E+00 -3.25134513E-05 -1.72809319E-01 -2.14552851E+00
 -3.25134513E-05 -1.72809319E-01 -2.14552851E+00 -3.25134513E-05 -3.96782935E-01
  2.11931617E+00  4.43339057E-05 -3.96782935E-01  2.11931617E+00  4.43339057E-05
 -3.96782935E-01  2.11931617E+00  4.43339057E-05 -3.96782935E-01  2.11931617E+00
  4.43339057E-05  3.86689571E+00 -3.82625620E-02 -1.05955567E-05  3.86689571E+00
 -3.82625620E-02 -1.05955567E-05  3.86689571E+00 -3.82625620E-02 -1.05955567E-05
  3.86689571E+00 -3.82625620E-02 -1.05955567E-05 -2.85948346E+00  1.22553865E+00
  2.84314016E-05 -2.85948346E+00  1.22553865E+00  2.84314016E-05 -2.85948346E+00
  1.22553865E+00  2.84314016E-05 -2.85948346E+00  1.22553865E+00  2.84314016E-05
 -2.61703349E+00 -1.41472868E+00 -1.19230687E-05 -2.61703349E+00 -1.41472868E+00
 -1.19230687E-05 -2.61703349E+00 -1.41472868E+00 -1.19230687E-05 -2.61703349E+00
 -1.41472868E+00 -1.19230687E-05  3.75194939E-01  4.01189900E+00  8.94646041E-05
  3.75194939E-01  4.01189900E+00  8.94646041E-05  4.52941204E+00 -1.02717560E+00
  1.68366529E+00  4.52941204E+00 -1.02717560E+00  1.68366529E+00  4.52939345E+00
 -1.02744225E+00 -1.68353528E+00  4.52939345E+00 -1.02744225E+00 -1.68353528E+00
  4.57998953E+00  1.89555869E+00 -1.67128686E-04  4.57998953E+00  1.89555869E+00
 -1.67128686E-04 -4.57227405E+00  2.33805130E+00  3.61137469E-05 -4.57227405E+00
  2.33805130E+00  3.61137469E-05 -4.08235198E+00 -2.84167564E+00 -3.30783869E-05
 -4.08235198E+00 -2.84167564E+00 -3.30783869E-05
Constraint Structure                       R   N=          36
  1.12696090E+00  4.54717922E-02 -1.84655774E-05 -1.72809319E-01 -2.14552851E+00
 -3.25134513E-05 -3.96782935E-01  2.11931617E+00  4.43339057E-05  3.86689571E+00
 -3.82625620E-02 -1.05955567E-05 -2.85948346E+00  1.22553865E+00  2.84314016E-05
 -2.61703349E+00 -1.41472868E+00 -1.19230687E-05  3.75194939E-01  4.01189900E+00
  8.94646041E-05  4.52941204E+00 -1.02717560E+00  1.68366529E+00  4.52939345E+00
 -1.02744225E+00 -1.68353528E+00  4.57998953E+00  1.89555869E+00 -1.67128686E-04
 -4.57227405E+00  2.33805130E+00  3.61137469E-05 -4.08235198E+00 -2.84167564E+00
 -3.30783869E-05
Num ILSW                                   I              100
ILSW                                       I   N=         100
           0           1           0           1           2           0
           0           0           0           0           0          -1
           0           0           0           0           0           0
           0           0           0           0           1           0
           1           0           0           0           0           0
           0           0      100000           0          -1           0
           0           0           0           0           0           0
           0           0           0           1           1           0
           0           0           1           0           0           0
           0           0           4          40           0           0
           0           0           0           0           0           0
           0           0           0           0           0           0
           0           0           0           0           0           0
           0           0           0           0           0           0
           0           0           0           0           0           0
           0           0           0           0           0           0
           0           0           0           0
Num RLSW                                   I               40
RLSW                                       R   N=          40
  1.00000000E+00  1.00000000E+00  1.00000000E+00  1.00000000E+00  1.00000000E+00
  0.00000000E+00  0.00000000E+00  1.00000000E+00  0.00000000E+00  0.00000000E+00
  0.00000000E+00  0.00000000E+00  1.00000000E+00  0.00000000E+00  0.00000000E+00
  0.00000000E+00  0.00000000E+00  1.00000000E+00  0.00000000E+00  0.00000000E+00
  0.00000000E+00  0.00000000E+00  1.00000000E+00  0.00000000E+00  0.00000000E+00
  0.00000000E+00  0.00000000E+00  1.00000000E+00  0.00000000E+00  0.00000000E+00
  0.00000000E+00  0.00000000E+00  0.00000000E+00  0.00000000E+00  0.00000000E+00
  0.00000000E+00  0.00000000E+00  0.00000000E+00  1.00000000E+00  1.00000000E+00
MxBond                                     I                4
NBond                                      I   N=          12
           3           2           3           4           3           3
           1           1           1           1           1           1
IBond                                      I   N=          48
           2           3           4           0           1           6
           0           0           1           5           7           0
           1           8           9          10           3           6
          11           0           2           5          12           0
           3           0           0           0           4           0
           0           0           4           0           0           0
           4           0           0           0           5           0
           0           0           6           0           0           0
RBond                                      R   N=          48
  1.50000000E+00  1.50000000E+00  1.00000000E+00  0.00000000E+00  1.50000000E+00
  1.50000000E+00  0.00000000E+00  0.00000000E+00  1.50000000E+00  1.50000000E+00
  1.00000000E+00  0.00000000E+00  1.00000000E+00  1.00000000E+00  1.00000000E+00
  1.00000000E+00  1.50000000E+00  1.50000000E+00  1.00000000E+00  0.00000000E+00
  1.50000000E+00  1.50000000E+00  1.00000000E+00  0.00000000E+00  1.00000000E+00
  0.00000000E+00  0.00000000E+00  0.00000000E+00  1.00000000E+00  0.00000000E+00
  0.00000000E+00  0.00000000E+00  1.00000000E+00  0.00000000E+00  0.00000000E+00
  0.00000000E+00  1.00000000E+00  0.00000000E+00  0.00000000E+00  0.00000000E+00
  1.00000000E+00  0.00000000E+00  0.00000000E+00  0.00000000E+00  1.00000000E+00
  0.00000000E+00  0.00000000E+00  0.00000000E+00
Virial Ratio                               R      2.002702566260795E+00
SCF Energy                                 R     -2.638236256314433E+02
MP2 Energy                                 R     -2.646699836142352E+02
Total Energy                               R     -2.646699836142352E+02
Post-SCF wavefunction norm                 R      1.607705373510012E+00
RMS Force                                  R      4.110254911956376E-06
RMS Density                                R      1.803335830843541E-09
External E-field                           R   N=          35
  0.00000000E+00  0.00000000E+00  0.00000000E+00  0.00000000E+00  0.00000000E+00
  0.00000000E+00  0.00000000E+00  0.00000000E+00  0.00000000E+00  0.00000000E+00
  0.00000000E+00  0.00000000E+00  0.00000000E+00  0.00000000E+00  0.00000000E+00
  0.00000000E+00  0.00000000E+00  0.00000000E+00  0.00000000E+00  0.00000000E+00
  0.00000000E+00  0.00000000E+00  0.00000000E+00  0.00000000E+00  0.00000000E+00
  0.00000000E+00  0.00000000E+00  0.00000000E+00  0.00000000E+00  0.00000000E+00
  0.00000000E+00  0.00000000E+00  0.00000000E+00  0.00000000E+00  0.00000000E+00
IOpCl                                      I                0
IROHF                                      I                0
Alpha Orbital Energies                     R   N=         102
 -1.56422956E+01 -1.55793355E+01 -1.12737048E+01 -1.12722090E+01 -1.12466819E+01
 -1.12164608E+01 -1.36776961E+00 -1.11202961E+00 -1.04949661E+00 -9.42714983E-01
 -7.98841081E-01 -7.67561014E-01 -7.10149316E-01 -6.45504674E-01 -6.09605888E-01
 -5.77353887E-01 -5.65271271E-01 -5.41551657E-01 -5.40733388E-01 -4.48407836E-01
 -3.42338095E-01 -3.33313208E-01  1.72502163E-01  2.38265581E-01  2.44330021E-01
  2.68848266E-01  2.93401354E-01  3.15230020E-01  3.18510424E-01  3.26846671E-01
  3.47544108E-01  4.23837548E-01  4.31472955E-01  4.68596129E-01  5.96361332E-01
  6.31143046E-01  7.14054357E-01  7.20080739E-01  7.49224535E-01  7.90122624E-01
  7.96035994E-01  8.17306092E-01  8.54198582E-01  8.78774861E-01  9.09775579E-01
  9.24741283E-01  9.89697700E-01  1.00335754E+00  1.03771895E+00  1.06003266E+00
  1.08216070E+00  1.11163841E+00  1.12729265E+00  1.12801786E+00  1.14855065E+00
  1.16671079E+00  1.19367623E+00  1.20851401E+00  1.25633540E+00  1.28250350E+00
  1.41873992E+00  1.43563309E+00  1.55198181E+00  1.57878913E+00  1.62966789E+00
  1.65601911E+00  1.68221467E+00  1.73318196E+00  1.78771010E+00  1.79101855E+00
  1.84151826E+00  2.14128928E+00  2.16458687E+00  2.19766292E+00  2.24800090E+00
  2.30119907E+00  2.32157781E+00  2.40244853E+00  2.42571645E+00  2.49264791E+00
  2.55598465E+00  2.56910472E+00  2.58946903E+00  2.60353917E+00  2.63258597E+00
  2.68386986E+00  2.71023857E+00  2.83660513E+00  2.93851711E+00  2.98173887E+00
  3.02511829E+00  3.09236055E+00  3.13292477E+00  3.33608826E+00  3.40739695E+00
  3.48503929E+00  4.22217975E+00  4.39284982E+00  4.53204616E+00  4.64643748E+00
  4.75889526E+00  4.86859184E+00
Alpha MO coefficients                      R   N=       10404
  9.95020908E-01  2.50451279E-02 -1.53607581E-04 -1.58423005E-04  3.36727368E-08
 -3.69018936E-03  6.19191505E-04 -1.24971682E-04 -4.09382271E-08 -3.31450704E-03
 -3.30940286E-03 -3.27217254E-03 -8.50056621E-06  1.10454750E-09 -7.52414737E-10
  5.81999269E-03  3.04509266E-04  1.40042212E-04  2.03280399E-04  1.97077818E-09
  9.14214108E-04  1.57752700E-04  3.78148718E-04  8.44689924E-09 -1.33975674E-04
 -1.79534947E-04 -4.46665561E-05 -5.57956068E-05  1.02562416E-09 -7.66717176E-10
  1.24642641E-05  1.10027172E-04  1.69628399E-04 -1.52157131E-04 -3.30794692E-09
  2.53404940E-03 -2.18383779E-04 -1.56174461E-03 -3.28788017E-08 -5.88698776E-05
 -1.14980610E-04 -8.00391493E-05  1.93328812E-05  1.25525322E-09 -1.85791282E-09
 -1.31850992E-05  1.35859939E-04 -2.11356970E-04 -7.67470898E-06  4.18146308E-09
  9.83489655E-04 -3.44052385E-04  1.28476921E-04 -1.13311442E-08 -1.33592954E-04
 -9.75795939E-05 -7.39097115E-05 -1.15588187E-05 -2.26495696E-09 -1.84218502E-09
  2.16234595E-05  6.38805705E-05 -3.95215015E-05 -3.68917218E-05 -3.74360111E-10
 -1.75596107E-03 -1.02981822E-03  6.13889495E-04  9.01209758E-09  2.36760220E-05
  2.17968453E-05  2.94691493E-05 -1.29713160E-05 -4.86030219E-10  2.31777487E-10
 -9.98425118E-06 -1.20678274E-04 -5.97190685E-05  3.05285610E-05  7.58854136E-10
  6.92221973E-04  2.50083235E-04  4.53461264E-04  4.10472471E-09  3.94472113E-05
  4.33452147E-05 -3.22109689E-05  1.86799885E-05 -8.84752682E-10  9.66593422E-10
  1.36002398E-05  3.65518757E-04 -7.81219822E-05 -3.06754476E-05 -7.81154960E-05
 -3.06966171E-05 -5.94675000E-05 -2.09695462E-04 -5.02335258E-05 -3.18269944E-04
  4.99650724E-06  1.72426709E-04 -5.99340913E-03  1.67545375E-04 -1.18360115E-04
 -1.24949941E-04 -1.93982089E-09  1.42691823E-03  4.11282894E-04 -3.84786605E-04
 -3.58795667E-09 -2.32779355E-04 -5.09085711E-04  1.82794252E-06 -3.14137607E-04
 -6.23075451E-11 -3.78844819E-09  9.95237470E-01  2.43864616E-02 -5.54066700E-04
  2.19375143E-03  2.94936886E-08 -4.22519769E-03  9.38395838E-04 -2.12708919E-03
 -3.19776105E-08 -2.74732778E-03 -2.76066600E-03 -3.07797689E-03 -4.39902144E-05
 -1.97388795E-09  6.09229430E-09 -1.93530491E-05 -2.09971415E-04 -2.03416755E-05
  5.41506611E-05  6.73966974E-10  1.39904573E-03 -7.01198259E-04 -1.06621671E-03
 -2.31512736E-08  6.96993419E-05  7.95316207E-05 -6.95164016E-05  1.13274432E-05
 -1.94413462E-09  3.61795532E-09 -1.25408959E-07 -6.91283915E-06  8.03995571E-05
  2.32023157E-05 -8.30539883E-10 -5.87340209E-04  2.29517198E-04  6.60845639E-05
  5.26283003E-09 -6.82105758E-06  2.03340037E-05 -3.20076142E-05 -4.75121075E-05
 -6.31058215E-10 -1.38897368E-09  2.36809981E-05  5.83281444E-05 -1.63745714E-05
  7.14200578E-05  8.54202982E-10 -2.83282318E-03 -1.34210188E-03  9.10645870E-04
  1.39742151E-08  4.17079389E-05  8.95804962E-06  1.86712996E-05 -2.36505314E-05
 -1.10141290E-09 -3.24202014E-10  1.92610582E-06  2.53015811E-04  4.28414583E-05
 -5.26906991E-05 -8.29669507E-10  3.69883655E-03  1.74779378E-03  1.32998618E-03
  1.28221082E-08 -5.10353540E-04 -9.01740209E-05 -1.06387852E-04  1.08098558E-04
  3.03349626E-09 -2.45876105E-10  4.53925196E-05  4.49169713E-04  3.11855995E-05
  2.67337935E-05  3.11856685E-05  2.67373348E-05  1.27579173E-05  3.80897869E-05
 -4.87621836E-05 -3.66982441E-04  4.45410290E-05  4.80225440E-04 -2.46472894E-04
  9.75087814E-05  2.13034702E-04  1.16775750E-05  1.06009066E-09  2.68387975E-03
 -9.42206544E-04  4.47754171E-04  5.06305997E-09 -8.16650434E-04 -2.40208634E-04
 -1.23416134E-04 -1.86083704E-05 -2.49809552E-10 -6.32003269E-11 -1.34294405E-05
 -1.49607880E-04 -1.50425398E-04 -3.78669189E-05 -4.27634627E-09 -9.30126701E-05
  1.02388047E-03  1.35418788E-04  1.95912300E-08  5.66449717E-05  1.57123095E-05
 -1.03784897E-04  1.20719043E-04  4.21122321E-09  2.31562001E-09 -8.63413270E-03
 -3.79809118E-04 -1.78189640E-04  1.16541345E-05 -3.97512918E-09 -1.20499864E-03
  1.23690297E-03  1.37018422E-03  5.56892248E-08 -3.23476594E-05  3.65834816E-05
 -6.32565386E-05 -6.36239155E-05  9.51888379E-10  1.96052352E-09  9.95708088E-01
  2.80132604E-02 -8.89473802E-04  7.20149150E-05  5.11646047E-09 -1.25597215E-02
  5.60598306E-05  3.75278437E-05 -3.99542527E-08 -1.66723660E-03 -1.78887692E-03
 -1.77467670E-03  1.13196547E-05  1.84666282E-09  1.67958065E-09 -7.84033644E-05
 -4.85664617E-05  8.41071573E-05 -2.42716597E-06  1.22963093E-09  2.05635341E-03
  7.12435245E-04 -1.56849300E-04 -1.01539079E-08  2.40668693E-05 -5.96228675E-06
 -5.49059739E-06  2.57060032E-05 -2.57379155E-10 -1.30037070E-09  1.19869436E-04
  1.04606969E-04  1.04204910E-04  6.62745383E-06  4.06134898E-10  3.38271470E-05
 -1.45227423E-04 -8.96509371E-04 -1.88763089E-08  2.46102984E-05  5.68038255E-06
  3.67782140E-05 -2.72615271E-05 -1.32869140E-09  6.10335893E-10 -1.23929136E-04
 -8.14927509E-04  1.06992034E-04  2.47260791E-03  1.06998502E-04  2.47254535E-03
  8.86777231E-05  2.32241266E-03 -2.37595667E-05  6.05251162E-05 -7.72764905E-05
 -3.63216351E-04 -3.01333914E-04  3.09426020E-04 -7.86093850E-05  7.30034295E-05
  2.29054384E-09  6.37150067E-04  1.53983658E-03 -1.58221338E-03 -4.89672422E-08
 -4.91355995E-04 -5.32099650E-04  9.81062725E-05  3.21151873E-04  1.49253611E-08
 -2.08641433E-08  2.24140609E-05 -1.15865575E-05  4.06225432E-05  7.89016746E-05
 -3.17581819E-09 -7.98641697E-04 -5.04868748E-04 -2.68010622E-04  1.75190844E-08
 -2.85452791E-05  2.10776609E-04  1.22661808E-05 -1.96198857E-05  1.11208414E-09
  5.55510996E-09  9.95530093E-01  2.70657707E-02  6.13298844E-04 -8.08162507E-04
 -2.39894301E-08 -7.66748599E-03  6.47758501E-04 -1.10734571E-03 -3.54285987E-08
 -1.59584680E-03 -1.39800961E-03 -2.47887091E-03 -2.25375364E-05 -4.34226328E-09
  3.18733845E-08  8.58591849E-03  4.99380728E-05  1.06488599E-04 -2.95040868E-05
 -3.33803588E-10 -6.72089735E-04  2.40174256E-04  7.87287521E-04  2.23167237E-08
  4.15965156E-05  6.93976089E-06 -1.46232092E-04 -1.24591343E-04 -4.03264402E-09
 -1.30801314E-08  1.08973701E-02  2.72613971E-04 -2.07765023E-04  1.09646885E-05
  1.42120613E-10  1.19020047E-03  2.49908630E-04  1.66317278E-03  3.02096660E-08
 -4.23669237E-04 -3.01223677E-04 -7.87584742E-05  4.10986591E-05  1.91048342E-09
 -4.62061794E-09 -1.39091964E-04 -2.82434340E-04 -3.85706892E-05  3.45415308E-05
  1.22775575E-10  1.35123163E-03  6.39132103E-04  1.36559479E-03  1.27548881E-08
  1.13742010E-05  1.47275471E-04 -6.84336723E-05  5.81250067E-05 -1.27826440E-09
  3.84056929E-09 -2.76240815E-04  2.28136461E-03  4.71623800E-05  2.13752454E-04
  4.71809692E-05  2.13804859E-04 -5.82488678E-05 -3.58284231E-04 -1.08646630E-04
 -4.67106213E-04  4.60796610E-05  5.91282655E-04  1.41371448E-05 -8.99815723E-06
 -7.88315947E-05 -5.28092439E-05  1.13833747E-09 -1.44118758E-04  1.68838789E-04
 -2.38322151E-04 -7.64529328E-09  6.27655424E-05  5.72163051E-05  3.06014572E-05
  9.94717747E-05  3.11350263E-09 -5.73791345E-10 -3.16947707E-04  2.12850483E-04
 -2.17888165E-05 -1.75553040E-05 -5.47148140E-10  6.88334656E-04  3.27402397E-04
 -2.45428971E-04 -1.92277994E-09 -5.14213515E-04 -2.74570427E-04  1.20170010E-04
  8.40347673E-05  5.30689189E-09 -6.07432148E-09 -1.23863320E-04 -2.17497799E-04
 -2.89638271E-05 -2.44363331E-05 -7.34451577E-10  1.24287763E-03 -5.00860214E-04
 -8.73367847E-04 -1.64258993E-08  7.85394539E-05  8.44660857E-05 -4.96002981E-05
  7.64386951E-05  1.00397710E-09  2.10493379E-09 -8.40179632E-05  8.31615678E-05
 -1.68313744E-05 -4.65083789E-05  2.23398354E-09 -3.83628400E-04  1.88294689E-04
  3.09384344E-04 -1.06904293E-08 -2.26956598E-06  5.08064585E-05  2.16286944E-05
 -1.27337630E-05 -7.96972403E-10 -5.83430398E-09  1.82426151E-02  5.26147151E-04
 -6.83254588E-05  1.76068171E-04  2.36413717E-09  2.09933862E-03 -1.02316630E-03
 -1.04839284E-03 -1.84568658E-08 -3.51837469E-04 -5.03589772E-04 -1.10529613E-04
  5.92942665E-05  9.95266080E-10 -6.69492086E-09  9.95442050E-01  2.71629508E-02
  5.13581338E-04  8.60633584E-05 -4.21475252E-10 -9.08347983E-03  6.17297108E-04
 -7.02844012E-04 -1.05250083E-08 -1.57423368E-03 -1.66060299E-03 -2.49981754E-03
 -1.72015277E-06 -4.61178072E-09  1.58648882E-08  7.70859354E-06  4.01012999E-04
  4.49425582E-05  8.58150031E-05  4.49532764E-05  8.58046234E-05 -1.43569613E-05
 -1.29400643E-04 -1.21006572E-04 -4.15582775E-04 -2.46146222E-04  2.01343692E-03
  6.37408987E-05  1.23815129E-04 -1.12957906E-04  1.70277979E-05  4.34344851E-09
 -1.67039644E-03  9.67039127E-04 -8.62880793E-04 -3.69709720E-08  2.19771583E-04
  1.23467935E-04  1.11197508E-04 -1.96545421E-05  7.55231312E-10  6.57556046E-10
  6.35084564E-05  1.35958711E-04  5.12469362E-06  7.38474224E-05  1.07897655E-09
 -1.88697176E-03  3.38659071E-04 -5.62892916E-04 -5.75336605E-09  1.25550480E-04
  1.72254591E-04  1.10766282E-04 -5.98148891E-05  5.69601851E-10  2.13951876E-09
 -1.14071944E-02 -5.05499840E-04  1.73578309E-04  1.26587649E-04  2.87872330E-09
  7.14680476E-03 -1.97895219E-03 -2.43469729E-03 -5.52011058E-08 -3.96517482E-04
 -3.12268041E-04 -1.12085966E-04 -1.28065148E-04 -2.38685199E-09 -3.13533971E-09
 -2.64721425E-05  2.03307649E-05  5.30701483E-05  1.23440733E-05 -1.90507064E-09
 -3.45739120E-04  1.19812355E-04  2.00216363E-04  2.61622141E-08 -6.54267274E-05
  1.89020501E-05 -1.26505048E-05 -4.82139449E-05 -2.44404890E-09 -4.58746745E-09
  9.95411511E-01  2.80369544E-02  4.10973385E-04 -1.83468978E-04 -3.90019264E-09
 -1.59590728E-02 -3.40566648E-03  2.09884805E-03  3.62003851E-08 -1.63398627E-03
 -1.75910702E-03 -2.34896065E-03 -1.11881464E-04 -2.10960883E-10  9.51119594E-09