
    -----------------------------------------------------------------------
          Psi4: An Open-Source Ab Initio Electronic Structure Package
                               Psi4 1.3.2 release

                         Git: Rev {HEAD} ecbda83 


    R. M. Parrish, L. A. Burns, D. G. A. Smith, A. C. Simmonett,
    A. E. DePrince III, E. G. Hohenstein, U. Bozkaya, A. Yu. Sokolov,
    R. Di Remigio, R. M. Richard, J. F. Gonthier, A. M. James,
    H. R. McAlexander, A. Kumar, M. Saitow, X. Wang, B. P. Pritchard,
    P. Verma, H. F. Schaefer III, K. Patkowski, R. A. King, E. F. Valeev,
    F. A. Evangelista, J. M. Turney, T. D. Crawford, and C. D. Sherrill,
    J. Chem. Theory Comput. 13(7) pp 3185--3197 (2017).
    (doi: 10.1021/acs.jctc.7b00174)


                         Additional Contributions by
    P. Kraus, H. Kruse, M. H. Lechner, M. C. Schieber, R. A. Shaw,
    A. Alenaizan, R. Galvelis, Z. L. Glick, S. Lehtola, and J. P. Misiewicz

    -----------------------------------------------------------------------


    Psi4 started on: Saturday, 07 November 2020 03:17AM

    Process ID: 5483
    Host:       node37.bme.utexas.edu
    PSIDATADIR: /home/xy3866/psi4conda/share/psi4
    Memory:     500.0 MiB
    Threads:    8
    
  ==> Input File <==

--------------------------------------------------------------------------
#psi4
#
memory 32 gb

molecule  {
0 1
  O       -0.8456270     0.8862080     0.2793150
  O       -0.3079160    -1.6544620     1.3165970
  O        2.1058880    -1.9633380    -0.1734630
  O        2.7564030     0.7739560    -0.4353370
  O        0.7402180     2.5264820     0.5866940
  O       -3.4805510     0.5379580    -0.4489300
  C       -0.2422083    -1.4043426    -0.1081903
  C        1.1618270    -0.9690140    -0.5229560
  C       -1.2150640    -0.3000600    -0.4685780
  C        1.5092100     0.3624850     0.1183010
  C        0.4233390     1.3863000    -0.1554910
  C       -2.6607760    -0.5711350    -0.1020210
  H       -0.4877470    -2.3504840    -0.5773070
  H        1.1452800    -0.8176870    -1.6174030
  H       -1.1578680    -0.0786640    -1.5458690
  H        1.5875790     0.2279570     1.2063390
  H        0.3695010     1.6036290    -1.2365780
  H       -2.7264410    -0.8110830     0.9660040
  H       -3.0303370    -1.4295750    -0.6693420
  H       -0.3876700    -0.7765070     1.7356760
  H        2.9789380    -1.5641560    -0.3473760
  H        3.0115730     1.5902370     0.0317380
  H        0.1218180     3.2344810     0.3328360
  H       -3.0789740     1.3005050     0.0038810
units angstrom
no_reorient  #important for SAPT in psi4, default
symmetry c1  #important for SAPT in psi4, default
}

set PROPERTIES_ORIGIN ["COM"]
properties('MP2/aug-cc-pvtz', properties = ['dipole'])
--------------------------------------------------------------------------

  Memory set to  29.802 GiB by Python driver.
    SCF Algorithm Type (re)set to DF.

*** tstart() called on node37.bme.utexas.edu
*** at Sat Nov  7 03:17:32 2020

   => Loading Basis Set <=

    Name: AUG-CC-PVTZ
    Role: ORBITAL
    Keyword: BASIS
    atoms 1-6   entry O          line   327 file /home/xy3866/psi4conda/share/psi4/basis/aug-cc-pvtz.gbs 
    atoms 7-12  entry C          line   235 file /home/xy3866/psi4conda/share/psi4/basis/aug-cc-pvtz.gbs 
    atoms 13-24 entry H          line    36 file /home/xy3866/psi4conda/share/psi4/basis/aug-cc-pvtz.gbs 


         ---------------------------------------------------------
                                   SCF
               by Justin Turney, Rob Parrish, Andy Simmonett
                          and Daniel G. A. Smith
                              RHF Reference
                        8 Threads,  30517 MiB Core
         ---------------------------------------------------------

  ==> Geometry <==

    Molecular point group: c1
    Full point group: C1

    Geometry (in Angstrom), charge = 0, multiplicity = 1:

       Center              X                  Y                   Z               Mass       
    ------------   -----------------  -----------------  -----------------  -----------------
         O           -0.854170404248     0.886853905904     0.271571991973    15.994914619570
         O           -0.316459404248    -1.653816094096     1.308853991973    15.994914619570
         O            2.097344595752    -1.962692094096    -0.181206008027    15.994914619570
         O            2.747859595752     0.774601905904    -0.443080008027    15.994914619570
         O            0.731674595752     2.527127905904     0.578950991973    15.994914619570
         O           -3.489094404248     0.538603905904    -0.456673008027    15.994914619570
         C           -0.250751704248    -1.403696694096    -0.115933308027    12.000000000000
         C            1.153283595752    -0.968368094096    -0.530699008027    12.000000000000
         C           -1.223607404248    -0.299414094096    -0.476321008027    12.000000000000
         C            1.500666595752     0.363130905904     0.110557991973    12.000000000000
         C            0.414795595752     1.386945905904    -0.163234008027    12.000000000000
         C           -2.669319404248    -0.570489094096    -0.109764008027    12.000000000000
         H           -0.496290404248    -2.349838094096    -0.585050008027     1.007825032230
         H            1.136736595752    -0.817041094096    -1.625146008027     1.007825032230
         H           -1.166411404248    -0.078018094096    -1.553612008027     1.007825032230
         H            1.579035595752     0.228602905904     1.198595991973     1.007825032230
         H            0.360957595752     1.604274905904    -1.244321008027     1.007825032230
         H           -2.734984404248    -0.810437094096     0.958260991973     1.007825032230
         H           -3.038880404248    -1.428929094096    -0.677085008027     1.007825032230
         H           -0.396213404248    -0.775861094096     1.727932991973     1.007825032230
         H            2.970394595752    -1.563510094096    -0.355119008027     1.007825032230
         H            3.003029595752     1.590882905904     0.023994991973     1.007825032230
         H            0.113274595752     3.235126905904     0.325092991973     1.007825032230
         H           -3.087517404248     1.301150905904    -0.003862008027     1.007825032230

  Running in c1 symmetry.

  Rotational constants: A =      0.04332  B =      0.02523  C =      0.01802 [cm^-1]
  Rotational constants: A =   1298.56110  B =    756.45092  C =    540.22602 [MHz]
  Nuclear repulsion =  835.745673467057827

  Charge       = 0
  Multiplicity = 1
  Electrons    = 96
  Nalpha       = 48
  Nbeta        = 48

  ==> Algorithm <==

  SCF Algorithm Type is DF.
  DIIS enabled.
  MOM disabled.
  Fractional occupation disabled.
  Guess Type is SAD.
  Energy threshold   = 1.00e-10
  Density threshold  = 1.00e-10
  Integral threshold = 0.00e+00

  ==> Primary Basis <==

  Basis Set: AUG-CC-PVTZ
    Blend: AUG-CC-PVTZ
    Number of shells: 276
    Number of basis function: 828
    Number of Cartesian functions: 960
    Spherical Harmonics?: true
    Max angular momentum: 3

   => Loading Basis Set <=

    Name: (AUG-CC-PVTZ AUX)
    Role: JKFIT
    Keyword: DF_BASIS_SCF
    atoms 1-6   entry O          line   286 file /home/xy3866/psi4conda/share/psi4/basis/aug-cc-pvtz-jkfit.gbs 
    atoms 7-12  entry C          line   162 file /home/xy3866/psi4conda/share/psi4/basis/aug-cc-pvtz-jkfit.gbs 
    atoms 13-24 entry H          line    70 file /home/xy3866/psi4conda/share/psi4/basis/aug-cc-pvtz-jkfit.gbs 

  ==> Pre-Iterations <==

   -------------------------------------------------------
    Irrep   Nso     Nmo     Nalpha   Nbeta   Ndocc  Nsocc
   -------------------------------------------------------
     A        828     828       0       0       0       0
   -------------------------------------------------------
    Total     828     828      48      48      48       0
   -------------------------------------------------------

  ==> Integral Setup <==

  DFHelper Memory: AOs need 8.775 GiB; user supplied 22.352 GiB. Using in-core AOs.

  ==> MemDFJK: Density-Fitted J/K Matrices <==

    J tasked:                   Yes
    K tasked:                   Yes
    wK tasked:                   No
    OpenMP threads:               8
    Memory [MiB]:             22888
    Algorithm:                 Disk
    Schwarz Cutoff:           1E-12
    Mask sparsity (%):       6.7691
    Fitting Condition:        1E-10

   => Auxiliary Basis Set <=

  Basis Set: (AUG-CC-PVTZ AUX)
    Blend: AUG-CC-PVTZ-JKFIT
    Number of shells: 528
    Number of basis function: 1800
    Number of Cartesian functions: 2232
    Spherical Harmonics?: true
    Max angular momentum: 4

  Minimum eigenvalue in the overlap matrix is 1.6522528278E-06.
  Using Symmetric Orthogonalization.

  SCF Guess: Superposition of Atomic Densities via on-the-fly atomic UHF.

  ==> Iterations <==

                           Total Energy        Delta E     RMS |[F,P]|

   @DF-RHF iter SAD:  -682.97903854772574   -6.82979e+02   0.00000e+00 
   @DF-RHF iter   1:  -683.23064131605975   -2.51603e-01   1.05862e-03 DIIS
   @DF-RHF iter   2:  -683.52553477901552   -2.94893e-01   5.86983e-04 DIIS
   @DF-RHF iter   3:  -683.60190377619642   -7.63690e-02   1.05042e-04 DIIS
   @DF-RHF iter   4:  -683.60675173486152   -4.84796e-03   3.36666e-05 DIIS
   @DF-RHF iter   5:  -683.60718003684428   -4.28302e-04   8.29770e-06 DIIS
   @DF-RHF iter   6:  -683.60721619449816   -3.61577e-05   2.30107e-06 DIIS
   @DF-RHF iter   7:  -683.60722008321386   -3.88872e-06   8.10586e-07 DIIS
   @DF-RHF iter   8:  -683.60722045586692   -3.72653e-07   2.81022e-07 DIIS
   @DF-RHF iter   9:  -683.60722050270613   -4.68392e-08   7.64755e-08 DIIS
   @DF-RHF iter  10:  -683.60722050587776   -3.17164e-09   2.17609e-08 DIIS
   @DF-RHF iter  11:  -683.60722050615823   -2.80465e-10   6.17937e-09 DIIS
   @DF-RHF iter  12:  -683.60722050617824   -2.00089e-11   2.55483e-09 DIIS
   @DF-RHF iter  13:  -683.60722050618290   -4.66116e-12   7.33893e-10 DIIS
   @DF-RHF iter  14:  -683.60722050618187    1.02318e-12   2.10205e-10 DIIS
   @DF-RHF iter  15:  -683.60722050618358   -1.70530e-12   7.64435e-11 DIIS
  Energy and wave function converged.


  ==> Post-Iterations <==

    Orbital Energies [Eh]
    ---------------------

    Doubly Occupied:                                                      

       1A    -20.600374     2A    -20.595750     3A    -20.585629  
       4A    -20.564706     5A    -20.564603     6A    -20.562394  
       7A    -11.362806     8A    -11.305371     9A    -11.299375  
      10A    -11.297063    11A    -11.295798    12A    -11.286215  
      13A     -1.448464    14A     -1.392183    15A     -1.386854  
      16A     -1.365876    17A     -1.356878    18A     -1.347370  
      19A     -1.075142    20A     -1.052705    21A     -0.949420  
      22A     -0.888657    23A     -0.849424    24A     -0.808540  
      25A     -0.759211    26A     -0.736871    27A     -0.721310  
      28A     -0.714504    29A     -0.689648    30A     -0.665447  
      31A     -0.657476    32A     -0.640119    33A     -0.622730  
      34A     -0.618550    35A     -0.598544    36A     -0.581177  
      37A     -0.573260    38A     -0.563556    39A     -0.539241  
      40A     -0.533585    41A     -0.529365    42A     -0.511063  
      43A     -0.496180    44A     -0.484858    45A     -0.470941  
      46A     -0.459846    47A     -0.445420    48A     -0.431655  

    Virtual:                                                              

      49A      0.020734    50A      0.031291    51A      0.034132  
      52A      0.036855    53A      0.048492    54A      0.049740  
      55A      0.053606    56A      0.055704    57A      0.060148  
      58A      0.068085    59A      0.076711    60A      0.082557  
      61A      0.097844    62A      0.104140    63A      0.107039  
      64A      0.110686    65A      0.118153    66A      0.118927  
      67A      0.122904    68A      0.126329    69A      0.130632  
      70A      0.136070    71A      0.140073    72A      0.142554  
      73A      0.147432    74A      0.149572    75A      0.154639  
      76A      0.158195    77A      0.159307    78A      0.167092  
      79A      0.177420    80A      0.179242    81A      0.184824  
      82A      0.193787    83A      0.199345    84A      0.200064  
      85A      0.207714    86A      0.215498    87A      0.219374  
      88A      0.229048    89A      0.235919    90A      0.240425  
      91A      0.245144    92A      0.245784    93A      0.252531  
      94A      0.254826    95A      0.260917    96A      0.265642  
      97A      0.269428    98A      0.272371    99A      0.275111  
     100A      0.277757   101A      0.283205   102A      0.286214  
     103A      0.287366   104A      0.292276   105A      0.301272  
     106A      0.306603   107A      0.308817   108A      0.311432  
     109A      0.316108   110A      0.324989   111A      0.333890  
     112A      0.334649   113A      0.336000   114A      0.344754  
     115A      0.349778   116A      0.354894   117A      0.357981  
     118A      0.362012   119A      0.369806   120A      0.373814  
     121A      0.380691   122A      0.382836   123A      0.389212  
     124A      0.390207   125A      0.394423   126A      0.399445  
     127A      0.406162   128A      0.411180   129A      0.416319  
     130A      0.417059   131A      0.423668   132A      0.427823  
     133A      0.430757   134A      0.433282   135A      0.437266  
     136A      0.448213   137A      0.450118   138A      0.454046  
     139A      0.458734   140A      0.463455   141A      0.465234  
     142A      0.468714   143A      0.472934   144A      0.478092  
     145A      0.484962   146A      0.486224   147A      0.490567  
     148A      0.496374   149A      0.499618   150A      0.507335  
     151A      0.509080   152A      0.512438   153A      0.519109  
     154A      0.521389   155A      0.528165   156A      0.532166  
     157A      0.536509   158A      0.541543   159A      0.547565  
     160A      0.549457   161A      0.550551   162A      0.555431  
     163A      0.562511   164A      0.565092   165A      0.569023  
     166A      0.571475   167A      0.577666   168A      0.581272  
     169A      0.585767   170A      0.594748   171A      0.600209  
     172A      0.603256   173A      0.607265   174A      0.617479  
     175A      0.624286   176A      0.626731   177A      0.630343  
     178A      0.632087   179A      0.634717   180A      0.641885  
     181A      0.650517   182A      0.656014   183A      0.661445  
     184A      0.668745   185A      0.673130   186A      0.684947  
     187A      0.689425   188A      0.694507   189A      0.699893  
     190A      0.702834   191A      0.715761   192A      0.723785  
     193A      0.729471   194A      0.731909   195A      0.738069  
     196A      0.746966   197A      0.755153   198A      0.761478  
     199A      0.764479   200A      0.779025   201A      0.784676  
     202A      0.795719   203A      0.798904   204A      0.806756  
     205A      0.810551   206A      0.821443   207A      0.825854  
     208A      0.833246   209A      0.840181   210A      0.850440  
     211A      0.853433   212A      0.856263   213A      0.868671  
     214A      0.875437   215A      0.879710   216A      0.886948  
     217A      0.891651   218A      0.898174   219A      0.901686  
     220A      0.905081   221A      0.908171   222A      0.920820  
     223A      0.923477   224A      0.927683   225A      0.935550  
     226A      0.937258   227A      0.943844   228A      0.948602  
     229A      0.955515   230A      0.965212   231A      0.968770  
     232A      0.974713   233A      0.986612   234A      0.991487  
     235A      0.995337   236A      0.999401   237A      1.006113  
     238A      1.007069   239A      1.017264   240A      1.023868  
     241A      1.029342   242A      1.030510   243A      1.034661  
     244A      1.046109   245A      1.047362   246A      1.056178  
     247A      1.058368   248A      1.067840   249A      1.070545  
     250A      1.072912   251A      1.082345   252A      1.088020  
     253A      1.091731   254A      1.101370   255A      1.106402  
     256A      1.109428   257A      1.111959   258A      1.118391  
     259A      1.123792   260A      1.124670   261A      1.131502  
     262A      1.138458   263A      1.141047   264A      1.146610  
     265A      1.151521   266A      1.158358   267A      1.171211  
     268A      1.172460   269A      1.175230   270A      1.181444  
     271A      1.183764   272A      1.192388   273A      1.200740  
     274A      1.204376   275A      1.213831   276A      1.215764  
     277A      1.222811   278A      1.224911   279A      1.230494  
     280A      1.238099   281A      1.248020   282A      1.250887  
     283A      1.258730   284A      1.264454   285A      1.266285  
     286A      1.269463   287A      1.278552   288A      1.286708  
     289A      1.302585   290A      1.311205   291A      1.313611  
     292A      1.316889   293A      1.328131   294A      1.335350  
     295A      1.343471   296A      1.355872   297A      1.359776  
     298A      1.368298   299A      1.375641   300A      1.380808  
     301A      1.391083   302A      1.397140   303A      1.398018  
     304A      1.409873   305A      1.413755   306A      1.425354  
     307A      1.429452   308A      1.437038   309A      1.446061  
     310A      1.455164   311A      1.461389   312A      1.471343  
     313A      1.476441   314A      1.484131   315A      1.490016  
     316A      1.495354   317A      1.505870   318A      1.512204  
     319A      1.519584   320A      1.532662   321A      1.538984  
     322A      1.542484   323A      1.549956   324A      1.560625  
     325A      1.565744   326A      1.569055   327A      1.574976  
     328A      1.581528   329A      1.590919   330A      1.597855  
     331A      1.600876   332A      1.607294   333A      1.618942  
     334A      1.626072   335A      1.630630   336A      1.636650  
     337A      1.643165   338A      1.647209   339A      1.650377  
     340A      1.654602   341A      1.661837   342A      1.670775  
     343A      1.680054   344A      1.686541   345A      1.693122  
     346A      1.696925   347A      1.705233   348A      1.708500  
     349A      1.727539   350A      1.733237   351A      1.735699  
     352A      1.741299   353A      1.746975   354A      1.760262  
     355A      1.764743   356A      1.770625   357A      1.775045  
     358A      1.784203   359A      1.791121   360A      1.800823  
     361A      1.805044   362A      1.811440   363A      1.823410  
     364A      1.823678   365A      1.836036   366A      1.842219  
     367A      1.844545   368A      1.855040   369A      1.858945  
     370A      1.871092   371A      1.873814   372A      1.882956  
     373A      1.893794   374A      1.895486   375A      1.901785  
     376A      1.915183   377A      1.916094   378A      1.923056  
     379A      1.930323   380A      1.939301   381A      1.945666  
     382A      1.954350   383A      1.958365   384A      1.965568  
     385A      1.980296   386A      1.983593   387A      1.985675  
     388A      1.994730   389A      1.997929   390A      2.016836  
     391A      2.025547   392A      2.028985   393A      2.037313  
     394A      2.045951   395A      2.054202   396A      2.059420  
     397A      2.067987   398A      2.074973   399A      2.096676  
     400A      2.098415   401A      2.105762   402A      2.108557  
     403A      2.113439   404A      2.126542   405A      2.143148  
     406A      2.151460   407A      2.160138   408A      2.163245  
     409A      2.177776   410A      2.181511   411A      2.192909  
     412A      2.196360   413A      2.217762   414A      2.227371  
     415A      2.234460   416A      2.240770   417A      2.254131  
     418A      2.257816   419A      2.264945   420A      2.278603  
     421A      2.299876   422A      2.312455   423A      2.323922  
     424A      2.331874   425A      2.340829   426A      2.350739  
     427A      2.363498   428A      2.365757   429A      2.383290  
     430A      2.402599   431A      2.405711   432A      2.418751  
     433A      2.431001   434A      2.435132   435A      2.455378  
     436A      2.476323   437A      2.480231   438A      2.505971  
     439A      2.514527   440A      2.519649   441A      2.528039  
     442A      2.549643   443A      2.557235   444A      2.566691  
     445A      2.579408   446A      2.595639   447A      2.610342  
     448A      2.613978   449A      2.627236   450A      2.632015  
     451A      2.643608   452A      2.671492   453A      2.677098  
     454A      2.692196   455A      2.694841   456A      2.698728  
     457A      2.714566   458A      2.721779   459A      2.741281  
     460A      2.747507   461A      2.764206   462A      2.766791  
     463A      2.790857   464A      2.802275   465A      2.812812  
     466A      2.821457   467A      2.827063   468A      2.839693  
     469A      2.848616   470A      2.862941   471A      2.868596  
     472A      2.883841   473A      2.892010   474A      2.903140  
     475A      2.909447   476A      2.919331   477A      2.927732  
     478A      2.935891   479A      2.945317   480A      2.952532  
     481A      2.973756   482A      2.978925   483A      2.982707  
     484A      3.008467   485A      3.015716   486A      3.025486  
     487A      3.031985   488A      3.039326   489A      3.051755  
     490A      3.067477   491A      3.076467   492A      3.083678  
     493A      3.095918   494A      3.104053   495A      3.123080  
     496A      3.137384   497A      3.140239   498A      3.143627  
     499A      3.153490   500A      3.164690   501A      3.177832  
     502A      3.180361   503A      3.186555   504A      3.200720  
     505A      3.216764   506A      3.226799   507A      3.230426  
     508A      3.238949   509A      3.259956   510A      3.267824  
     511A      3.277163   512A      3.286599   513A      3.296978  
     514A      3.309054   515A      3.314284   516A      3.340616  
     517A      3.357350   518A      3.370414   519A      3.377083  
     520A      3.396410   521A      3.411946   522A      3.436432  
     523A      3.445403   524A      3.451910   525A      3.472270  
     526A      3.481255   527A      3.518818   528A      3.543392  
     529A      3.576888   530A      3.587723   531A      3.622810  
     532A      3.636667   533A      3.645876   534A      3.656768  
     535A      3.667712   536A      3.681760   537A      3.684690  
     538A      3.716213   539A      3.726145   540A      3.755018  
     541A      3.761238   542A      3.763622   543A      3.780078  
     544A      3.792254   545A      3.808334   546A      3.812348  
     547A      3.845643   548A      3.867137   549A      3.872820  
     550A      3.882674   551A      3.893033   552A      3.903133  
     553A      3.914231   554A      3.923854   555A      3.936563  
     556A      3.945597   557A      3.967449   558A      3.972650  
     559A      3.991249   560A      3.995025   561A      4.007300  
     562A      4.020487   563A      4.033247   564A      4.044425  
     565A      4.067482   566A      4.072068   567A      4.080359  
     568A      4.088509   569A      4.096245   570A      4.106985  
     571A      4.112655   572A      4.129717   573A      4.138136  
     574A      4.139589   575A      4.152649   576A      4.170994  
     577A      4.183724   578A      4.189609   579A      4.201229  
     580A      4.210976   581A      4.221728   582A      4.236690  
     583A      4.239106   584A      4.256429   585A      4.267854  
     586A      4.284215   587A      4.298278   588A      4.302178  
     589A      4.318927   590A      4.322783   591A      4.332697  
     592A      4.340053   593A      4.354073   594A      4.367885  
     595A      4.377361   596A      4.384613   597A      4.402766  
     598A      4.409440   599A      4.414868   600A      4.419769  
     601A      4.424669   602A      4.446099   603A      4.460241  
     604A      4.463649   605A      4.464920   606A      4.485875  
     607A      4.516362   608A      4.523944   609A      4.526989  
     610A      4.537385   611A      4.551846   612A      4.555644  
     613A      4.568295   614A      4.580284   615A      4.593318  
     616A      4.601936   617A      4.605672   618A      4.614334  
     619A      4.620442   620A      4.629045   621A      4.638846  
     622A      4.668031   623A      4.682009   624A      4.694995  
     625A      4.710263   626A      4.719067   627A      4.735346  
     628A      4.744856   629A      4.758408   630A      4.775324  
     631A      4.784597   632A      4.803310   633A      4.810155  
     634A      4.821227   635A      4.824220   636A      4.845739  
     637A      4.851594   638A      4.879585   639A      4.886933  
     640A      4.891616   641A      4.902401   642A      4.913528  
     643A      4.924856   644A      4.953220   645A      4.963922  
     646A      4.970557   647A      4.982211   648A      4.999677  
     649A      5.002174   650A      5.018490   651A      5.027053  
     652A      5.043025   653A      5.054537   654A      5.071457  
     655A      5.088036   656A      5.095039   657A      5.120745  
     658A      5.122411   659A      5.141944   660A      5.157635  
     661A      5.164736   662A      5.173224   663A      5.180093  
     664A      5.201534   665A      5.207501   666A      5.234744  
     667A      5.248575   668A      5.256990   669A      5.260552  
     670A      5.290002   671A      5.303886   672A      5.318205  
     673A      5.328490   674A      5.331511   675A      5.340066  
     676A      5.351196   677A      5.364231   678A      5.390177  
     679A      5.404705   680A      5.412009   681A      5.421288  
     682A      5.433314   683A      5.448975   684A      5.469824  
     685A      5.478051   686A      5.483894   687A      5.497790  
     688A      5.505087   689A      5.512382   690A      5.520358  
     691A      5.548602   692A      5.561817   693A      5.584235  
     694A      5.589963   695A      5.598511   696A      5.600493  
     697A      5.618977   698A      5.634088   699A      5.638262  
     700A      5.646561   701A      5.676322   702A      5.683702  
     703A      5.696276   704A      5.711915   705A      5.737396  
     706A      5.745727   707A      5.762860   708A      5.765108  
     709A      5.806055   710A      5.820738   711A      5.833009  
     712A      5.848079   713A      5.859542   714A      5.864185  
     715A      5.911118   716A      5.947504   717A      5.955925  
     718A      6.030539   719A      6.075467   720A      6.087367  
     721A      6.109997   722A      6.132427   723A      6.182088  
     724A      6.203547   725A      6.257816   726A      6.285944  
     727A      6.303123   728A      6.322301   729A      6.338594  
     730A      6.367483   731A      6.421842   732A      6.471795  
     733A      6.663750   734A      6.695745   735A      6.705790  
     736A      6.732887   737A      6.755225   738A      6.786019  
     739A      6.794613   740A      6.802870   741A      6.820315  
     742A      6.865412   743A      6.891973   744A      6.903199  
     745A      6.925445   746A      6.956540   747A      6.994202  
     748A      7.004366   749A      7.016142   750A      7.033854  
     751A      7.044436   752A      7.052697   753A      7.097572  
     754A      7.114198   755A      7.123328   756A      7.146082  
     757A      7.152219   758A      7.155948   759A      7.182511  
     760A      7.196385   761A      7.226992   762A      7.316400  
     763A      7.322950   764A      7.335823   765A      7.341313  
     766A      7.348967   767A      7.364665   768A      7.377411  
     769A      7.379814   770A      7.390541   771A      7.419175  
     772A      7.430145   773A      7.462449   774A      7.471497  
     775A      7.494796   776A      7.509969   777A      7.537149  
     778A      7.557271   779A      7.562234   780A      7.570968  
     781A      7.580502   782A      7.615730   783A      7.630259  
     784A      7.652166   785A      7.680055   786A      7.704692  
     787A      7.714832   788A      7.736077   789A      7.753855  
     790A      7.784648   791A      7.810588   792A      7.848213  
     793A      7.874782   794A      7.881172   795A      7.897805  
     796A      7.936937   797A      7.939183   798A      7.970584  
     799A      8.018097   800A      8.039904   801A      8.076177  
     802A      8.092548   803A      8.101860   804A      8.159015  
     805A      8.252350   806A      8.301798   807A      8.323371  
     808A      8.356795   809A      8.372873   810A      8.436715  
     811A      8.512039   812A      8.611761   813A      8.685120  
     814A      8.708906   815A      8.721191   816A      8.757463  
     817A     16.277599   818A     16.576113   819A     16.750201  
     820A     16.896030   821A     16.977945   822A     17.387165  
     823A     18.748866   824A     18.796286   825A     18.935412  
     826A     19.300442   827A     19.746523   828A     20.261237  

    Final Occupation by Irrep:
              A 
    DOCC [    48 ]

  @DF-RHF Final Energy:  -683.60722050618358

   => Energetics <=

    Nuclear Repulsion Energy =            835.7456734670578271
    One-Electron Energy =               -2600.1334759855699303
    Two-Electron Energy =                1080.7805820123285230
    Total Energy =                       -683.6072205061836939

Computation Completed

*** tstop() called on node37.bme.utexas.edu at Sat Nov  7 03:21:14 2020
Module time:
	user time   =     796.68 seconds =      13.28 minutes
	system time =     146.90 seconds =       2.45 minutes
	total time  =        222 seconds =       3.70 minutes
Total time:
	user time   =     796.68 seconds =      13.28 minutes
	system time =     146.90 seconds =       2.45 minutes
	total time  =        222 seconds =       3.70 minutes
   => Loading Basis Set <=

    Name: (AUG-CC-PVTZ AUX)
    Role: RIFIT
    Keyword: DF_BASIS_MP2
    atoms 1-6   entry O          line   264 file /home/xy3866/psi4conda/share/psi4/basis/aug-cc-pvtz-ri.gbs 
    atoms 7-12  entry C          line   148 file /home/xy3866/psi4conda/share/psi4/basis/aug-cc-pvtz-ri.gbs 
    atoms 13-24 entry H          line    30 file /home/xy3866/psi4conda/share/psi4/basis/aug-cc-pvtz-ri.gbs 


*** tstart() called on node37.bme.utexas.edu
*** at Sat Nov  7 03:21:14 2020


  //>>>>>>>>>>>>>>>>>>>>>>>>>>>>>>>>>>>//
  //               DFMP2               //
  //<<<<<<<<<<<<<<<<<<<<<<<<<<<<<<<<<<<//

	 --------------------------------------------------------
	                          DF-MP2                         
	      2nd-Order Density-Fitted Moller-Plesset Theory     
	              RMP2 Wavefunction,   8 Threads             
	                                                         
	        Rob Parrish, Justin Turney, Andy Simmonett,      
	           Ed Hohenstein, and C. David Sherrill          
	 --------------------------------------------------------

   => Auxiliary Basis Set <=

  Basis Set: (AUG-CC-PVTZ AUX)
    Blend: AUG-CC-PVTZ-RI
    Number of shells: 504
    Number of basis function: 1824
    Number of Cartesian functions: 2292
    Spherical Harmonics?: true
    Max angular momentum: 4

	 --------------------------------------------------------
	                 NBF =   828, NAUX =  1824
	 --------------------------------------------------------
	   CLASS    FOCC     OCC    AOCC    AVIR     VIR    FVIR
	   PAIRS       0      48      48     780     780       0
	 --------------------------------------------------------

  DFHelper Memory: AOs need 8.775 GiB; user supplied 22.352 GiB. Using in-core AOs.


         ------------------------------------------------------------
                                     CPHF                           
                                  Rob Parrish                       
         ------------------------------------------------------------

  ==> Geometry <==

    Molecular point group: c1
    Full point group: C1

    Geometry (in Angstrom), charge = 0, multiplicity = 1:

       Center              X                  Y                   Z               Mass       
    ------------   -----------------  -----------------  -----------------  -----------------
         O           -0.854170404248     0.886853905904     0.271571991973    15.994914619570
         O           -0.316459404248    -1.653816094096     1.308853991973    15.994914619570
         O            2.097344595752    -1.962692094096    -0.181206008027    15.994914619570
         O            2.747859595752     0.774601905904    -0.443080008027    15.994914619570
         O            0.731674595752     2.527127905904     0.578950991973    15.994914619570
         O           -3.489094404248     0.538603905904    -0.456673008027    15.994914619570
         C           -0.250751704248    -1.403696694096    -0.115933308027    12.000000000000
         C            1.153283595752    -0.968368094096    -0.530699008027    12.000000000000
         C           -1.223607404248    -0.299414094096    -0.476321008027    12.000000000000
         C            1.500666595752     0.363130905904     0.110557991973    12.000000000000
         C            0.414795595752     1.386945905904    -0.163234008027    12.000000000000
         C           -2.669319404248    -0.570489094096    -0.109764008027    12.000000000000
         H           -0.496290404248    -2.349838094096    -0.585050008027     1.007825032230
         H            1.136736595752    -0.817041094096    -1.625146008027     1.007825032230
         H           -1.166411404248    -0.078018094096    -1.553612008027     1.007825032230
         H            1.579035595752     0.228602905904     1.198595991973     1.007825032230
         H            0.360957595752     1.604274905904    -1.244321008027     1.007825032230
         H           -2.734984404248    -0.810437094096     0.958260991973     1.007825032230
         H           -3.038880404248    -1.428929094096    -0.677085008027     1.007825032230
         H           -0.396213404248    -0.775861094096     1.727932991973     1.007825032230
         H            2.970394595752    -1.563510094096    -0.355119008027     1.007825032230
         H            3.003029595752     1.590882905904     0.023994991973     1.007825032230
         H            0.113274595752     3.235126905904     0.325092991973     1.007825032230
         H           -3.087517404248     1.301150905904    -0.003862008027     1.007825032230

  Nuclear repulsion =  835.745673467057827
  Reference energy  = -683.607220506183580

  ==> Basis Set <==

  Basis Set: AUG-CC-PVTZ
    Blend: AUG-CC-PVTZ
    Number of shells: 276
    Number of basis function: 828
    Number of Cartesian functions: 960
    Spherical Harmonics?: true
    Max angular momentum: 3

  ==> CGRSolver (by Rob Parrish) <==

   Number of roots    =         1
   Preconditioning    =    JACOBI
   Convergence cutoff =     1E-06
   Maximum iterations =       100

  ==> CPHFRHamiltonian (by Rob Parrish) <== 

  ==> MemDFJK: Density-Fitted J/K Matrices <==

    J tasked:                   Yes
    K tasked:                   Yes
    wK tasked:                   No
    OpenMP threads:               8
    Memory [MiB]:             22888
    Algorithm:                 Disk
    Schwarz Cutoff:           1E-12
    Mask sparsity (%):       6.7691
    Fitting Condition:        1E-10

   => Auxiliary Basis Set <=

  Basis Set: (AUG-CC-PVTZ AUX)
    Blend: AUG-CC-PVTZ-JKFIT
    Number of shells: 528
    Number of basis function: 1800
    Number of Cartesian functions: 2232
    Spherical Harmonics?: true
    Max angular momentum: 4

  ==> CPHF Iterations <==

  => Iterations <=

             Iter  Converged  Remaining    Residual
  CGR           1          0          1   8.212E-02
  CGR           2          0          1   1.848E-02
  CGR           3          0          1   7.300E-03
  CGR           4          0          1   1.893E-03
  CGR           5          0          1   4.911E-04
  CGR           6          0          1   1.644E-04
  CGR           7          0          1   4.793E-05
  CGR           8          0          1   1.527E-05
  CGR           9          0          1   4.797E-06
  CGR          10          0          1   1.188E-06
  CGR          11          1          0   4.282E-07

    CGRSolver converged.

	-----------------------------------------------------------
	 ==================> DF-MP2 Energies <==================== 
	-----------------------------------------------------------
	 Reference Energy          =    -683.6072205061835803 [Eh]
	 Singles Energy            =      -0.0000000000000000 [Eh]
	 Same-Spin Energy          =      -0.6663634119457376 [Eh]
	 Opposite-Spin Energy      =      -2.0465344711083633 [Eh]
	 Correlation Energy        =      -2.7128978830541008 [Eh]
	 Total Energy              =    -686.3201183892376775 [Eh]
	-----------------------------------------------------------
	 ================> DF-SCS-MP2 Energies <================== 
	-----------------------------------------------------------
	 SCS Same-Spin Scale       =       0.3333333333333333 [-]
	 SCS Opposite-Spin Scale   =       1.2000000000000000 [-]
	 SCS Same-Spin Energy      =      -0.2221211373152459 [Eh]
	 SCS Opposite-Spin Energy  =      -2.4558413653300359 [Eh]
	 SCS Correlation Energy    =      -2.6779625026452818 [Eh]
	 SCS Total Energy          =    -686.2851830088288807 [Eh]
	-----------------------------------------------------------



Properties will be evaluated at  -0.000000,   0.000000,   0.000000 [a0]

Properties computed using the MP2 density matrix

  Nuclear Dipole Moment: [e a0]
     X:    -1.6426      Y:     0.1332      Z:    -1.6919

  Electronic Dipole Moment: [e a0]
     X:     1.9052      Y:     1.1126      Z:     1.2332

  Dipole Moment: [e a0]
     X:     0.2626      Y:     1.2458      Z:    -0.4587     Total:     1.3533

  Dipole Moment: [D]
     X:     0.6675      Y:     3.1664      Z:    -1.1659     Total:     3.4397


*** tstop() called on node37.bme.utexas.edu at Sat Nov  7 03:30:31 2020
Module time:
	user time   =    2775.63 seconds =      46.26 minutes
	system time =     273.96 seconds =       4.57 minutes
	total time  =        557 seconds =       9.28 minutes
Total time:
	user time   =    3572.87 seconds =      59.55 minutes
	system time =     420.89 seconds =       7.01 minutes
	total time  =        779 seconds =      12.98 minutes

    Psi4 stopped on: Saturday, 07 November 2020 03:30AM
    Psi4 wall time for execution: 0:13:00.12

*** Psi4 exiting successfully. Buy a developer a beer!
