535246                                                                  
Freq      RMP2-FC                                                     6-31G(d)            
Number of atoms                            I               18
Info1-9                                    I   N=           9
          30          28        1002           0           0         100
           6           2           1
Charge                                     I                0
Multiplicity                               I                1
Number of electrons                        I               62
Number of alpha electrons                  I               31
Number of beta electrons                   I               31
Number of basis functions                  I              140
Number of independent functions            I              140
Number of point charges in /Mol/           I                0
Number of translation vectors              I                0
Atomic numbers                             I   N=          18
           8           8           6           6           6           6
           6           6           1           1           1           1
           1           1           1           1           1           1
Nuclear charges                            R   N=          18
  8.00000000E+00  8.00000000E+00  6.00000000E+00  6.00000000E+00  6.00000000E+00
  6.00000000E+00  6.00000000E+00  6.00000000E+00  1.00000000E+00  1.00000000E+00
  1.00000000E+00  1.00000000E+00  1.00000000E+00  1.00000000E+00  1.00000000E+00
  1.00000000E+00  1.00000000E+00  1.00000000E+00
Current cartesian coordinates              R   N=          54
 -2.73820917E+00 -2.56928390E+00  8.92632801E-01 -4.47707665E+00  9.33446108E-01
 -7.96977971E-01  2.13938996E+00 -4.15010151E-01 -7.65887210E-02 -1.98958123E-02
  9.57924040E-01  6.17384663E-02  4.68027898E+00  8.57056215E-01  1.18600061E-01
  2.32700282E+00 -3.22689212E+00 -4.88136679E-01 -2.94871916E-02  3.81023814E+00
  2.45086320E-01 -2.58913726E+00 -1.70063604E-01 -4.14324275E-02  5.53256315E+00
  1.07931587E+00 -1.75895659E+00  4.58934140E+00  2.71302559E+00  1.00917353E+00
  5.96685070E+00 -3.26721236E-01  1.22607317E+00  6.55817044E-01 -4.03374653E+00
 -1.37047568E+00  2.62132840E+00 -4.20461363E+00  1.31411470E+00  3.97267956E+00
 -3.62420218E+00 -1.67895422E+00  1.34088629E+00  4.66076256E+00 -1.04299869E+00
  4.18223404E-01  4.44646356E+00  2.16409338E+00 -1.89985205E+00  4.52128394E+00
 -2.46278520E-01 -4.52446033E+00 -3.02438077E+00  7.03368157E-01
Force Field                                I                0
Int Atom Types                             I   N=          18
           0           0           0           0           0           0
           0           0           0           0           0           0
           0           0           0           0           0           0
MM charges                                 R   N=          18
  0.00000000E+00  0.00000000E+00  0.00000000E+00  0.00000000E+00  0.00000000E+00
  0.00000000E+00  0.00000000E+00  0.00000000E+00  0.00000000E+00  0.00000000E+00
  0.00000000E+00  0.00000000E+00  0.00000000E+00  0.00000000E+00  0.00000000E+00
  0.00000000E+00  0.00000000E+00  0.00000000E+00
Integer atomic weights                     I   N=          18
          16          16          12          12          12          12
          12          12           1           1           1           1
           1           1           1           1           1           1
Real atomic weights                        R   N=          18
  1.59949146E+01  1.59949146E+01  1.20000000E+01  1.20000000E+01  1.20000000E+01
  1.20000000E+01  1.20000000E+01  1.20000000E+01  1.00782504E+00  1.00782504E+00
  1.00782504E+00  1.00782504E+00  1.00782504E+00  1.00782504E+00  1.00782504E+00
  1.00782504E+00  1.00782504E+00  1.00782504E+00
Atom fragment info                         I   N=          18
           0           0           0           0           0           0
           0           0           0           0           0           0
           0           0           0           0           0           0
Atom residue num                           I   N=          18
           0           0           0           0           0           0
           0           0           0           0           0           0
           0           0           0           0           0           0
Nuclear spins                              I   N=          18
           0           0           0           0           0           0
           0           0           1           1           1           1
           1           1           1           1           1           1
Nuclear ZEff                               R   N=          18
 -5.60000000E+00 -5.60000000E+00 -3.60000000E+00 -3.60000000E+00 -3.60000000E+00
 -3.60000000E+00 -3.60000000E+00 -3.60000000E+00 -1.00000000E+00 -1.00000000E+00
 -1.00000000E+00 -1.00000000E+00 -1.00000000E+00 -1.00000000E+00 -1.00000000E+00
 -1.00000000E+00 -1.00000000E+00 -1.00000000E+00
Nuclear QMom                               R   N=          18
  0.00000000E+00  0.00000000E+00  0.00000000E+00  0.00000000E+00  0.00000000E+00
  0.00000000E+00  0.00000000E+00  0.00000000E+00  0.00000000E+00  0.00000000E+00
  0.00000000E+00  0.00000000E+00  0.00000000E+00  0.00000000E+00  0.00000000E+00
  0.00000000E+00  0.00000000E+00  0.00000000E+00
Nuclear GFac                               R   N=          18
  0.00000000E+00  0.00000000E+00  0.00000000E+00  0.00000000E+00  0.00000000E+00
  0.00000000E+00  0.00000000E+00  0.00000000E+00  2.79284600E+00  2.79284600E+00
  2.79284600E+00  2.79284600E+00  2.79284600E+00  2.79284600E+00  2.79284600E+00
  2.79284600E+00  2.79284600E+00  2.79284600E+00
MicOpt                                     I   N=          18
          -1          -1          -1          -1          -1          -1
          -1          -1          -1          -1          -1          -1
          -1          -1          -1          -1          -1          -1
Number of contracted shells                I               52
Number of primitive shells                 I              128
Pure/Cartesian d shells                    I                1
Pure/Cartesian f shells                    I                0
Highest angular momentum                   I                2
Largest degree of contraction              I                6
Shell types                                I   N=          52
           0          -1          -1           2           0          -1
          -1           2           0          -1          -1           2
           0          -1          -1           2           0          -1
          -1           2           0          -1          -1           2
           0          -1          -1           2           0          -1
          -1           2           0           0           0           0
           0           0           0           0           0           0
           0           0           0           0           0           0
           0           0           0           0
Number of primitives per shell             I   N=          52
           6           3           1           1           6           3
           1           1           6           3           1           1
           6           3           1           1           6           3
           1           1           6           3           1           1
           6           3           1           1           6           3
           1           1           3           1           3           1
           3           1           3           1           3           1
           3           1           3           1           3           1
           3           1           3           1
Shell to atom map                          I   N=          52
           1           1           1           1           2           2
           2           2           3           3           3           3
           4           4           4           4           5           5
           5           5           6           6           6           6
           7           7           7           7           8           8
           8           8           9           9          10          10
          11          11          12          12          13          13
          14          14          15          15          16          16
          17          17          18          18
Primitive exponents                        R   N=         128
  5.48467166E+03  8.25234946E+02  1.88046958E+02  5.29645000E+01  1.68975704E+01
  5.79963534E+00  1.55396162E+01  3.59993359E+00  1.01376175E+00  2.70005823E-01
  8.00000000E-01  5.48467166E+03  8.25234946E+02  1.88046958E+02  5.29645000E+01
  1.68975704E+01  5.79963534E+00  1.55396162E+01  3.59993359E+00  1.01376175E+00
  2.70005823E-01  8.00000000E-01  3.04752488E+03  4.57369518E+02  1.03948685E+02
  2.92101553E+01  9.28666296E+00  3.16392696E+00  7.86827235E+00  1.88128854E+00
  5.44249258E-01  1.68714478E-01  8.00000000E-01  3.04752488E+03  4.57369518E+02
  1.03948685E+02  2.92101553E+01  9.28666296E+00  3.16392696E+00  7.86827235E+00
  1.88128854E+00  5.44249258E-01  1.68714478E-01  8.00000000E-01  3.04752488E+03
  4.57369518E+02  1.03948685E+02  2.92101553E+01  9.28666296E+00  3.16392696E+00
  7.86827235E+00  1.88128854E+00  5.44249258E-01  1.68714478E-01  8.00000000E-01
  3.04752488E+03  4.57369518E+02  1.03948685E+02  2.92101553E+01  9.28666296E+00
  3.16392696E+00  7.86827235E+00  1.88128854E+00  5.44249258E-01  1.68714478E-01
  8.00000000E-01  3.04752488E+03  4.57369518E+02  1.03948685E+02  2.92101553E+01
  9.28666296E+00  3.16392696E+00  7.86827235E+00  1.88128854E+00  5.44249258E-01
  1.68714478E-01  8.00000000E-01  3.04752488E+03  4.57369518E+02  1.03948685E+02
  2.92101553E+01  9.28666296E+00  3.16392696E+00  7.86827235E+00  1.88128854E+00
  5.44249258E-01  1.68714478E-01  8.00000000E-01  1.87311370E+01  2.82539436E+00
  6.40121692E-01  1.61277759E-01  1.87311370E+01  2.82539436E+00  6.40121692E-01
  1.61277759E-01  1.87311370E+01  2.82539436E+00  6.40121692E-01  1.61277759E-01
  1.87311370E+01  2.82539436E+00  6.40121692E-01  1.61277759E-01  1.87311370E+01
  2.82539436E+00  6.40121692E-01  1.61277759E-01  1.87311370E+01  2.82539436E+00
  6.40121692E-01  1.61277759E-01  1.87311370E+01  2.82539436E+00  6.40121692E-01
  1.61277759E-01  1.87311370E+01  2.82539436E+00  6.40121692E-01  1.61277759E-01
  1.87311370E+01  2.82539436E+00  6.40121692E-01  1.61277759E-01  1.87311370E+01
  2.82539436E+00  6.40121692E-01  1.61277759E-01
Contraction coefficients                   R   N=         128
  1.83107443E-03  1.39501722E-02  6.84450781E-02  2.32714336E-01  4.70192898E-01
  3.58520853E-01 -1.10777550E-01 -1.48026263E-01  1.13076702E+00  1.00000000E+00
  1.00000000E+00  1.83107443E-03  1.39501722E-02  6.84450781E-02  2.32714336E-01
  4.70192898E-01  3.58520853E-01 -1.10777550E-01 -1.48026263E-01  1.13076702E+00
  1.00000000E+00  1.00000000E+00  1.83473713E-03  1.40373228E-02  6.88426223E-02
  2.32184443E-01  4.67941348E-01  3.62311985E-01 -1.19332420E-01 -1.60854152E-01
  1.14345644E+00  1.00000000E+00  1.00000000E+00  1.83473713E-03  1.40373228E-02
  6.88426223E-02  2.32184443E-01  4.67941348E-01  3.62311985E-01 -1.19332420E-01
 -1.60854152E-01  1.14345644E+00  1.00000000E+00  1.00000000E+00  1.83473713E-03
  1.40373228E-02  6.88426223E-02  2.32184443E-01  4.67941348E-01  3.62311985E-01
 -1.19332420E-01 -1.60854152E-01  1.14345644E+00  1.00000000E+00  1.00000000E+00
  1.83473713E-03  1.40373228E-02  6.88426223E-02  2.32184443E-01  4.67941348E-01
  3.62311985E-01 -1.19332420E-01 -1.60854152E-01  1.14345644E+00  1.00000000E+00
  1.00000000E+00  1.83473713E-03  1.40373228E-02  6.88426223E-02  2.32184443E-01
  4.67941348E-01  3.62311985E-01 -1.19332420E-01 -1.60854152E-01  1.14345644E+00
  1.00000000E+00  1.00000000E+00  1.83473713E-03  1.40373228E-02  6.88426223E-02
  2.32184443E-01  4.67941348E-01  3.62311985E-01 -1.19332420E-01 -1.60854152E-01
  1.14345644E+00  1.00000000E+00  1.00000000E+00  3.34946043E-02  2.34726953E-01
  8.13757326E-01  1.00000000E+00  3.34946043E-02  2.34726953E-01  8.13757326E-01
  1.00000000E+00  3.34946043E-02  2.34726953E-01  8.13757326E-01  1.00000000E+00
  3.34946043E-02  2.34726953E-01  8.13757326E-01  1.00000000E+00  3.34946043E-02
  2.34726953E-01  8.13757326E-01  1.00000000E+00  3.34946043E-02  2.34726953E-01
  8.13757326E-01  1.00000000E+00  3.34946043E-02  2.34726953E-01  8.13757326E-01
  1.00000000E+00  3.34946043E-02  2.34726953E-01  8.13757326E-01  1.00000000E+00
  3.34946043E-02  2.34726953E-01  8.13757326E-01  1.00000000E+00  3.34946043E-02
  2.34726953E-01  8.13757326E-01  1.00000000E+00
P(S=P) Contraction coefficients            R   N=         128
  0.00000000E+00  0.00000000E+00  0.00000000E+00  0.00000000E+00  0.00000000E+00
  0.00000000E+00  7.08742682E-02  3.39752839E-01  7.27158577E-01  1.00000000E+00
  0.00000000E+00  0.00000000E+00  0.00000000E+00  0.00000000E+00  0.00000000E+00
  0.00000000E+00  0.00000000E+00  7.08742682E-02  3.39752839E-01  7.27158577E-01
  1.00000000E+00  0.00000000E+00  0.00000000E+00  0.00000000E+00  0.00000000E+00
  0.00000000E+00  0.00000000E+00  0.00000000E+00  6.89990666E-02  3.16423961E-01
  7.44308291E-01  1.00000000E+00  0.00000000E+00  0.00000000E+00  0.00000000E+00
  0.00000000E+00  0.00000000E+00  0.00000000E+00  0.00000000E+00  6.89990666E-02
  3.16423961E-01  7.44308291E-01  1.00000000E+00  0.00000000E+00  0.00000000E+00
  0.00000000E+00  0.00000000E+00  0.00000000E+00  0.00000000E+00  0.00000000E+00
  6.89990666E-02  3.16423961E-01  7.44308291E-01  1.00000000E+00  0.00000000E+00
  0.00000000E+00  0.00000000E+00  0.00000000E+00  0.00000000E+00  0.00000000E+00
  0.00000000E+00  6.89990666E-02  3.16423961E-01  7.44308291E-01  1.00000000E+00
  0.00000000E+00  0.00000000E+00  0.00000000E+00  0.00000000E+00  0.00000000E+00
  0.00000000E+00  0.00000000E+00  6.89990666E-02  3.16423961E-01  7.44308291E-01
  1.00000000E+00  0.00000000E+00  0.00000000E+00  0.00000000E+00  0.00000000E+00
  0.00000000E+00  0.00000000E+00  0.00000000E+00  6.89990666E-02  3.16423961E-01
  7.44308291E-01  1.00000000E+00  0.00000000E+00  0.00000000E+00  0.00000000E+00
  0.00000000E+00  0.00000000E+00  0.00000000E+00  0.00000000E+00  0.00000000E+00
  0.00000000E+00  0.00000000E+00  0.00000000E+00  0.00000000E+00  0.00000000E+00
  0.00000000E+00  0.00000000E+00  0.00000000E+00  0.00000000E+00  0.00000000E+00
  0.00000000E+00  0.00000000E+00  0.00000000E+00  0.00000000E+00  0.00000000E+00
  0.00000000E+00  0.00000000E+00  0.00000000E+00  0.00000000E+00  0.00000000E+00
  0.00000000E+00  0.00000000E+00  0.00000000E+00  0.00000000E+00  0.00000000E+00
  0.00000000E+00  0.00000000E+00  0.00000000E+00  0.00000000E+00  0.00000000E+00
  0.00000000E+00  0.00000000E+00  0.00000000E+00
Coordinates of each shell                  R   N=         156
 -2.73820917E+00 -2.56928390E+00  8.92632801E-01 -2.73820917E+00 -2.56928390E+00
  8.92632801E-01 -2.73820917E+00 -2.56928390E+00  8.92632801E-01 -2.73820917E+00
 -2.56928390E+00  8.92632801E-01 -4.47707665E+00  9.33446108E-01 -7.96977971E-01
 -4.47707665E+00  9.33446108E-01 -7.96977971E-01 -4.47707665E+00  9.33446108E-01
 -7.96977971E-01 -4.47707665E+00  9.33446108E-01 -7.96977971E-01  2.13938996E+00
 -4.15010151E-01 -7.65887210E-02  2.13938996E+00 -4.15010151E-01 -7.65887210E-02
  2.13938996E+00 -4.15010151E-01 -7.65887210E-02  2.13938996E+00 -4.15010151E-01
 -7.65887210E-02 -1.98958123E-02  9.57924040E-01  6.17384663E-02 -1.98958123E-02
  9.57924040E-01  6.17384663E-02 -1.98958123E-02  9.57924040E-01  6.17384663E-02
 -1.98958123E-02  9.57924040E-01  6.17384663E-02  4.68027898E+00  8.57056215E-01
  1.18600061E-01  4.68027898E+00  8.57056215E-01  1.18600061E-01  4.68027898E+00
  8.57056215E-01  1.18600061E-01  4.68027898E+00  8.57056215E-01  1.18600061E-01
  2.32700282E+00 -3.22689212E+00 -4.88136679E-01  2.32700282E+00 -3.22689212E+00
 -4.88136679E-01  2.32700282E+00 -3.22689212E+00 -4.88136679E-01  2.32700282E+00
 -3.22689212E+00 -4.88136679E-01 -2.94871916E-02  3.81023814E+00  2.45086320E-01
 -2.94871916E-02  3.81023814E+00  2.45086320E-01 -2.94871916E-02  3.81023814E+00
  2.45086320E-01 -2.94871916E-02  3.81023814E+00  2.45086320E-01 -2.58913726E+00
 -1.70063604E-01 -4.14324275E-02 -2.58913726E+00 -1.70063604E-01 -4.14324275E-02
 -2.58913726E+00 -1.70063604E-01 -4.14324275E-02 -2.58913726E+00 -1.70063604E-01
 -4.14324275E-02  5.53256315E+00  1.07931587E+00 -1.75895659E+00  5.53256315E+00
  1.07931587E+00 -1.75895659E+00  4.58934140E+00  2.71302559E+00  1.00917353E+00
  4.58934140E+00  2.71302559E+00  1.00917353E+00  5.96685070E+00 -3.26721236E-01
  1.22607317E+00  5.96685070E+00 -3.26721236E-01  1.22607317E+00  6.55817044E-01
 -4.03374653E+00 -1.37047568E+00  6.55817044E-01 -4.03374653E+00 -1.37047568E+00
  2.62132840E+00 -4.20461363E+00  1.31411470E+00  2.62132840E+00 -4.20461363E+00
  1.31411470E+00  3.97267956E+00 -3.62420218E+00 -1.67895422E+00  3.97267956E+00
 -3.62420218E+00 -1.67895422E+00  1.34088629E+00  4.66076256E+00 -1.04299869E+00
  1.34088629E+00  4.66076256E+00 -1.04299869E+00  4.18223404E-01  4.44646356E+00
  2.16409338E+00  4.18223404E-01  4.44646356E+00  2.16409338E+00 -1.89985205E+00
  4.52128394E+00 -2.46278520E-01 -1.89985205E+00  4.52128394E+00 -2.46278520E-01
 -4.52446033E+00 -3.02438077E+00  7.03368157E-01 -4.52446033E+00 -3.02438077E+00
  7.03368157E-01
Constraint Structure                       R   N=          54
 -2.73820917E+00 -2.56928390E+00  8.92632801E-01 -4.47707665E+00  9.33446108E-01
 -7.96977971E-01  2.13938996E+00 -4.15010151E-01 -7.65887210E-02 -1.98958123E-02
  9.57924040E-01  6.17384663E-02  4.68027898E+00  8.57056215E-01  1.18600061E-01
  2.32700282E+00 -3.22689212E+00 -4.88136679E-01 -2.94871916E-02  3.81023814E+00
  2.45086320E-01 -2.58913726E+00 -1.70063604E-01 -4.14324275E-02  5.53256315E+00
  1.07931587E+00 -1.75895659E+00  4.58934140E+00  2.71302559E+00  1.00917353E+00
  5.96685070E+00 -3.26721236E-01  1.22607317E+00  6.55817044E-01 -4.03374653E+00
 -1.37047568E+00  2.62132840E+00 -4.20461363E+00  1.31411470E+00  3.97267956E+00
 -3.62420218E+00 -1.67895422E+00  1.34088629E+00  4.66076256E+00 -1.04299869E+00
  4.18223404E-01  4.44646356E+00  2.16409338E+00 -1.89985205E+00  4.52128394E+00
 -2.46278520E-01 -4.52446033E+00 -3.02438077E+00  7.03368157E-01
Num ILSW                                   I              100
ILSW                                       I   N=         100
           0           1           0           0           2           0
           0           0           0           0           0          -1
           0           0           0           0           0           0
           0           0           0           0           1           0
           1           0           0           0           0           0
           0           0      100000           0          -1           0
           0           0           0           0           0           0
           0           0           0           1           1           0
           0           0           1           0           0           0
           0           0           4          40           0           0
           0           0           0           0           0           0
           0           0           0           0           0           0
           0           0           0           0           0           0
           0           0           0           0           0           0
           0           0           0           0           0           0
           0           0           0           0           0           0
           0           0           0           0
Num RLSW                                   I               40
RLSW                                       R   N=          40
  1.00000000E+00  1.00000000E+00  1.00000000E+00  1.00000000E+00  1.00000000E+00
  0.00000000E+00  0.00000000E+00  1.00000000E+00  0.00000000E+00  0.00000000E+00
  0.00000000E+00  0.00000000E+00  1.00000000E+00  0.00000000E+00  0.00000000E+00
  0.00000000E+00  0.00000000E+00  1.00000000E+00  0.00000000E+00  0.00000000E+00
  0.00000000E+00  0.00000000E+00  1.00000000E+00  0.00000000E+00  0.00000000E+00
  0.00000000E+00  0.00000000E+00  1.00000000E+00  0.00000000E+00  0.00000000E+00
  0.00000000E+00  0.00000000E+00  0.00000000E+00  0.00000000E+00  0.00000000E+00
  0.00000000E+00  0.00000000E+00  0.00000000E+00  1.00000000E+00  1.00000000E+00
MxBond                                     I                4
NBond                                      I   N=          18
           2           1           3           3           4           4
           4           3           1           1           1           1
           1           1           1           1           1           1
IBond                                      I   N=          72
           8          18           0           0           8           0
           0           0           4           5           6           0
           3           7           8           0           3           9
          10          11           3          12          13          14
           4          15          16          17           1           2
           4           0           5           0           0           0
           5           0           0           0           5           0
           0           0           6           0           0           0
           6           0           0           0           6           0
           0           0           7           0           0           0
           7           0           0           0           7           0
           0           0           1           0           0           0
RBond                                      R   N=          72
  1.50000000E+00  1.00000000E+00  0.00000000E+00  0.00000000E+00  2.00000000E+00
  0.00000000E+00  0.00000000E+00  0.00000000E+00  2.00000000E+00  1.00000000E+00
  1.00000000E+00  0.00000000E+00  2.00000000E+00  1.00000000E+00  1.00000000E+00
  0.00000000E+00  1.00000000E+00  1.00000000E+00  1.00000000E+00  1.00000000E+00
  1.00000000E+00  1.00000000E+00  1.00000000E+00  1.00000000E+00  1.00000000E+00
  1.00000000E+00  1.00000000E+00  1.00000000E+00  1.50000000E+00  2.00000000E+00
  1.00000000E+00  0.00000000E+00  1.00000000E+00  0.00000000E+00  0.00000000E+00
  0.00000000E+00  1.00000000E+00  0.00000000E+00  0.00000000E+00  0.00000000E+00
  1.00000000E+00  0.00000000E+00  0.00000000E+00  0.00000000E+00  1.00000000E+00
  0.00000000E+00  0.00000000E+00  0.00000000E+00  1.00000000E+00  0.00000000E+00
  0.00000000E+00  0.00000000E+00  1.00000000E+00  0.00000000E+00  0.00000000E+00
  0.00000000E+00  1.00000000E+00  0.00000000E+00  0.00000000E+00  0.00000000E+00
  1.00000000E+00  0.00000000E+00  0.00000000E+00  0.00000000E+00  1.00000000E+00
  0.00000000E+00  0.00000000E+00  0.00000000E+00  1.00000000E+00  0.00000000E+00
  0.00000000E+00  0.00000000E+00
Virial Ratio                               R      2.002452394641799E+00
SCF Energy                                 R     -3.827531801000649E+02
MP2 Energy                                 R     -3.838864923388656E+02
Total Energy                               R     -3.838864923388656E+02
Post-SCF wavefunction norm                 R      1.653510782437652E+00
RMS Force                                  R      2.172633552921042E-07
RMS Density                                R      2.142258981729612E-09
External E-field                           R   N=          35
  0.00000000E+00  0.00000000E+00  0.00000000E+00  0.00000000E+00  0.00000000E+00
  0.00000000E+00  0.00000000E+00  0.00000000E+00  0.00000000E+00  0.00000000E+00
  0.00000000E+00  0.00000000E+00  0.00000000E+00  0.00000000E+00  0.00000000E+00
  0.00000000E+00  0.00000000E+00  0.00000000E+00  0.00000000E+00  0.00000000E+00
  0.00000000E+00  0.00000000E+00  0.00000000E+00  0.00000000E+00  0.00000000E+00
  0.00000000E+00  0.00000000E+00  0.00000000E+00  0.00000000E+00  0.00000000E+00
  0.00000000E+00  0.00000000E+00  0.00000000E+00  0.00000000E+00  0.00000000E+00
IOpCl                                      I                0
IROHF                                      I                0
Alpha Orbital Energies                     R   N=         140
 -2.06134397E+01 -2.05472864E+01 -1.13859411E+01 -1.12678741E+01 -1.12425608E+01
 -1.12337143E+01 -1.12272213E+01 -1.12189090E+01 -1.44998729E+00 -1.34264909E+00
 -1.12111376E+00 -1.01336438E+00 -9.54748831E-01 -9.06760109E-01 -8.29946037E-01
 -7.30858075E-01 -6.93845254E-01 -6.60514654E-01 -6.30732169E-01 -6.06002660E-01
 -5.97064226E-01 -5.84961559E-01 -5.61430505E-01 -5.48653729E-01 -5.45059790E-01
 -5.40964988E-01 -5.11657385E-01 -4.90064570E-01 -4.69465046E-01 -4.41331707E-01
 -3.46161597E-01  1.15963538E-01  2.24493252E-01  2.34459494E-01  2.51157855E-01
  2.75128296E-01  2.95478104E-01  3.08399862E-01  3.12037654E-01  3.16613485E-01
  3.28052483E-01  3.47330396E-01  3.75307650E-01  3.92648243E-01  4.10716766E-01
  4.36696598E-01  5.01842060E-01  5.18484584E-01  5.61792327E-01  6.29381876E-01
  7.14616726E-01  7.24822895E-01  7.57055596E-01  7.69928864E-01  7.77716353E-01
  7.97309324E-01  8.33597904E-01  8.59335351E-01  8.65770347E-01  9.06275681E-01
  9.29872225E-01  9.36225398E-01  9.59573353E-01  9.75295572E-01  1.00317884E+00
  1.02730411E+00  1.04433069E+00  1.07367701E+00  1.08430653E+00  1.13561087E+00
  1.14643998E+00  1.14817174E+00  1.16030961E+00  1.17903002E+00  1.18967060E+00
  1.19948645E+00  1.20524219E+00  1.23824746E+00  1.26781657E+00  1.28353981E+00
  1.29093441E+00  1.30310110E+00  1.34498429E+00  1.38859906E+00  1.39068342E+00
  1.45728129E+00  1.48721567E+00  1.57604456E+00  1.66501322E+00  1.68853914E+00
  1.70240922E+00  1.72911834E+00  1.74407290E+00  1.78684237E+00  1.82772812E+00
  1.96646958E+00  1.99626910E+00  2.04517981E+00  2.07173710E+00  2.08595011E+00
  2.11741314E+00  2.13789693E+00  2.14087956E+00  2.18529008E+00  2.20444834E+00
  2.24358402E+00  2.27757738E+00  2.32429410E+00  2.34140099E+00  2.39991817E+00
  2.40597644E+00  2.47125546E+00  2.48799099E+00  2.52980398E+00  2.58103532E+00
  2.63844766E+00  2.66443316E+00  2.68019806E+00  2.69768501E+00  2.72366114E+00
  2.76994317E+00  2.80509184E+00  2.88044187E+00  2.90158496E+00  2.96449529E+00
  3.01041391E+00  3.04724866E+00  3.10474654E+00  3.22201764E+00  3.33966296E+00
  3.48512715E+00  3.53968512E+00  4.26790458E+00  4.48159371E+00  4.57846079E+00
  4.65045765E+00  4.69886259E+00  4.74320412E+00  4.80260578E+00  5.03454165E+00
Alpha MO coefficients                      R   N=       19600
  9.94636976E-01  2.11904505E-02 -9.59891526E-04  7.22542202E-04 -4.96364308E-04
  3.89144477E-03  6.44665338E-04 -3.72437160E-04  2.34967816E-04 -4.12973043E-03
 -4.12651020E-03 -3.98897696E-03 -7.04240039E-05 -3.29913886E-05  7.08464420E-05
 -2.74959176E-04 -1.12014031E-05 -9.72617791E-06  3.93142425E-05 -2.22482224E-05
 -4.44941229E-05  5.28926191E-05  9.73357231E-05 -4.49565654E-06  2.60489864E-05
 -7.04419976E-05 -3.83836711E-05  3.54926061E-05  1.63516615E-06  2.01511437E-05
 -3.92404791E-06 -4.08384996E-05 -1.59255367E-05 -1.16436044E-05  1.14637075E-06
  6.39757626E-04 -2.39549812E-04 -8.57202723E-05  9.40088438E-05  1.18608791E-05
  1.33616205E-05 -3.11227420E-06  1.87462331E-05  2.49787295E-06 -6.90591401E-06
  1.62196152E-06  3.86596683E-05  1.32294524E-05 -1.61441095E-05  1.45918378E-05
  1.36435455E-04 -4.12591663E-04  3.97127892E-04 -1.12149523E-04 -4.96543007E-06
 -4.40061824E-05 -5.90029715E-06 -2.99052584E-05  1.47416271E-05  1.67924288E-05
  2.26820257E-07  4.99657559E-06  5.54257827E-06  3.03610892E-06 -2.00917424E-06
  1.57122710E-05 -1.71691568E-05  5.12924218E-06 -1.91978509E-05 -5.23924375E-06
 -1.25608561E-06 -1.05605183E-06 -6.69654935E-06  3.07803626E-06  2.44286738E-06
  1.50075288E-05  5.50465703E-05 -6.39862574E-05  5.31145534E-06  5.46105307E-05
 -2.00720408E-04  3.09459863E-04 -1.64941976E-04 -3.32226005E-04  2.92131563E-05
  1.39275464E-05  2.80112069E-05  1.04676755E-05 -1.34743296E-05  2.21201546E-06
 -1.02039277E-06  4.16213196E-06  5.83581792E-06  1.56870114E-05 -1.03372908E-05
 -2.28035524E-04  5.52247847E-05  9.27110985E-05  9.79225076E-05 -6.07348155E-06
 -4.47532219E-06 -4.50080672E-06 -1.49290878E-05  4.72444508E-07 -4.31724169E-06
 -5.23044372E-06  3.75562940E-04 -1.68189878E-05 -2.93526053E-04  1.25511890E-04
 -2.25389871E-04 -4.26719690E-04 -3.00345152E-04 -1.78877656E-05 -1.49253516E-05
 -7.12506413E-05 -5.64798672E-05  6.15091411E-06  3.24950811E-06 -2.30297282E-06
 -8.22757166E-07  5.40003110E-06  8.53927998E-07  1.99376653E-06 -3.05284558E-07
  1.94063086E-05  6.16384867E-05 -1.60826767E-04  7.02342226E-05  6.66879378E-05
 -3.65185207E-05 -2.26833432E-04  1.15765221E-05  1.64208114E-05 -4.06306749E-06
 -4.41520898E-05  1.24050484E-05  2.45837283E-05  4.65592886E-04 -2.57627908E-04
  2.61146854E-04 -6.01260885E-05  2.23905457E-05 -3.21750542E-05  2.08231497E-05
  2.51395957E-04 -2.30137979E-05  7.38385858E-05 -4.90762631E-05 -3.99065536E-05
 -3.55198302E-05 -8.26185350E-05  7.80192109E-05 -2.44897335E-05 -9.81473532E-06
  9.94688488E-01  2.09820093E-02  1.23807309E-03 -7.71105606E-04  5.11728537E-04
  4.48816865E-03 -4.20238575E-05  1.86193076E-05 -6.56619504E-06 -3.73298368E-03
 -3.87116096E-03 -4.06829795E-03 -1.17426478E-04  1.27665436E-04 -1.33132576E-04
  3.89807997E-06  2.14480839E-05 -2.25050759E-05  1.43501876E-06  4.45153477E-06
 -1.59569265E-04  2.01789242E-04 -2.30537194E-05 -2.75688003E-06  1.27055739E-06
  1.49394742E-05  9.54292759E-06 -1.27515452E-05 -3.33164208E-07  2.64733539E-06
  8.34579610E-07  5.24720008E-06  4.34224183E-06 -4.94811252E-06  1.12926997E-05
 -4.82673836E-05  2.48892857E-04 -5.98075195E-05 -1.17353134E-05 -4.97151426E-05
  4.56220619E-05 -1.25042936E-05  4.82588254E-05 -2.19634889E-05 -7.81451176E-06