9251                                                                    
Freq      RMP2-FC                                                     6-31G(d)            
Number of atoms                            I               10
Info1-9                                    I   N=           9
          22          20        1002           0           0         100
           6           2           1
Charge                                     I                0
Multiplicity                               I                1
Number of electrons                        I               40
Number of alpha electrons                  I               20
Number of beta electrons                   I               20
Number of basis functions                  I               76
Number of independent functions            I               76
Number of point charges in /Mol/           I                0
Number of translation vectors              I                0
Atomic numbers                             I   N=          10
          16           6           6           6           1           1
           1           1           1           1
Nuclear charges                            R   N=          10
  1.60000000E+01  6.00000000E+00  6.00000000E+00  6.00000000E+00  1.00000000E+00
  1.00000000E+00  1.00000000E+00  1.00000000E+00  1.00000000E+00  1.00000000E+00
Current cartesian coordinates              R   N=          30
 -2.05700447E+00 -1.03557678E-07 -1.40083572E-01  2.50398190E+00  1.23061635E-07
 -3.47771469E-01  6.48587992E-01  2.14337505E+00  2.86084698E-01  6.48588270E-01
 -2.14337498E+00  2.86084716E-01  2.92286852E+00  2.65590936E-08 -2.37020689E+00
  4.28604306E+00  2.11980835E-07  7.03765241E-01  7.93191671E-01  2.77289506E+00
  2.24826132E+00  6.54913360E-01  3.78159760E+00 -9.67565814E-01  6.54913835E-01
 -3.78159757E+00 -9.67565730E-01  7.93192159E-01 -2.77289483E+00  2.24826136E+00
Force Field                                I                0
Int Atom Types                             I   N=          10
           0           0           0           0           0           0
           0           0           0           0
MM charges                                 R   N=          10
  0.00000000E+00  0.00000000E+00  0.00000000E+00  0.00000000E+00  0.00000000E+00
  0.00000000E+00  0.00000000E+00  0.00000000E+00  0.00000000E+00  0.00000000E+00
Integer atomic weights                     I   N=          10
          32          12          12          12           1           1
           1           1           1           1
Real atomic weights                        R   N=          10
  3.19720718E+01  1.20000000E+01  1.20000000E+01  1.20000000E+01  1.00782504E+00
  1.00782504E+00  1.00782504E+00  1.00782504E+00  1.00782504E+00  1.00782504E+00
Atom fragment info                         I   N=          10
           0           0           0           0           0           0
           0           0           0           0
Atom residue num                           I   N=          10
           0           0           0           0           0           0
           0           0           0           0
Nuclear spins                              I   N=          10
           0           0           0           0           1           1
           1           1           1           1
Nuclear ZEff                               R   N=          10
 -1.36000000E+01 -3.60000000E+00 -3.60000000E+00 -3.60000000E+00 -1.00000000E+00
 -1.00000000E+00 -1.00000000E+00 -1.00000000E+00 -1.00000000E+00 -1.00000000E+00
Nuclear QMom                               R   N=          10
  0.00000000E+00  0.00000000E+00  0.00000000E+00  0.00000000E+00  0.00000000E+00
  0.00000000E+00  0.00000000E+00  0.00000000E+00  0.00000000E+00  0.00000000E+00
Nuclear GFac                               R   N=          10
  0.00000000E+00  0.00000000E+00  0.00000000E+00  0.00000000E+00  2.79284600E+00
  2.79284600E+00  2.79284600E+00  2.79284600E+00  2.79284600E+00  2.79284600E+00
MicOpt                                     I   N=          10
          -1          -1          -1          -1          -1          -1
          -1          -1          -1          -1
Number of contracted shells                I               29
Number of primitive shells                 I               74
Pure/Cartesian d shells                    I                1
Pure/Cartesian f shells                    I                0
Highest angular momentum                   I                2
Largest degree of contraction              I                6
Shell types                                I   N=          29
           0          -1          -1          -1           2           0
          -1          -1           2           0          -1          -1
           2           0          -1          -1           2           0
           0           0           0           0           0           0
           0           0           0           0           0
Number of primitives per shell             I   N=          29
           6           6           3           1           1           6
           3           1           1           6           3           1
           1           6           3           1           1           3
           1           3           1           3           1           3
           1           3           1           3           1
Shell to atom map                          I   N=          29
           1           1           1           1           1           2
           2           2           2           3           3           3
           3           4           4           4           4           5
           5           6           6           7           7           8
           8           9           9          10          10
Primitive exponents                        R   N=          74
  2.19171000E+04  3.30149000E+03  7.54146000E+02  2.12711000E+02  6.79896000E+01
  2.30515000E+01  4.23735000E+02  1.00710000E+02  3.21599000E+01  1.18079000E+01
  4.63110000E+00  1.87025000E+00  2.61584000E+00  9.22167000E-01  3.41287000E-01
  1.17167000E-01  6.50000000E-01  3.04752488E+03  4.57369518E+02  1.03948685E+02
  2.92101553E+01  9.28666296E+00  3.16392696E+00  7.86827235E+00  1.88128854E+00
  5.44249258E-01  1.68714478E-01  8.00000000E-01  3.04752488E+03  4.57369518E+02
  1.03948685E+02  2.92101553E+01  9.28666296E+00  3.16392696E+00  7.86827235E+00
  1.88128854E+00  5.44249258E-01  1.68714478E-01  8.00000000E-01  3.04752488E+03
  4.57369518E+02  1.03948685E+02  2.92101553E+01  9.28666296E+00  3.16392696E+00
  7.86827235E+00  1.88128854E+00  5.44249258E-01  1.68714478E-01  8.00000000E-01
  1.87311370E+01  2.82539436E+00  6.40121692E-01  1.61277759E-01  1.87311370E+01
  2.82539436E+00  6.40121692E-01  1.61277759E-01  1.87311370E+01  2.82539436E+00
  6.40121692E-01  1.61277759E-01  1.87311370E+01  2.82539436E+00  6.40121692E-01
  1.61277759E-01  1.87311370E+01  2.82539436E+00  6.40121692E-01  1.61277759E-01
  1.87311370E+01  2.82539436E+00  6.40121692E-01  1.61277759E-01
Contraction coefficients                   R   N=          74
  1.86924085E-03  1.42303065E-02  6.96962317E-02  2.38487108E-01  4.83307220E-01
  3.38074154E-01 -2.37677050E-03 -3.16930067E-02 -1.13317024E-01  5.60900118E-02
  5.92255124E-01  4.55006095E-01 -2.50373114E-01  6.69567631E-02  1.05450627E+00
  1.00000000E+00  1.00000000E+00  1.83473713E-03  1.40373228E-02  6.88426223E-02
  2.32184443E-01  4.67941348E-01  3.62311985E-01 -1.19332420E-01 -1.60854152E-01
  1.14345644E+00  1.00000000E+00  1.00000000E+00  1.83473713E-03  1.40373228E-02
  6.88426223E-02  2.32184443E-01  4.67941348E-01  3.62311985E-01 -1.19332420E-01
 -1.60854152E-01  1.14345644E+00  1.00000000E+00  1.00000000E+00  1.83473713E-03
  1.40373228E-02  6.88426223E-02  2.32184443E-01  4.67941348E-01  3.62311985E-01
 -1.19332420E-01 -1.60854152E-01  1.14345644E+00  1.00000000E+00  1.00000000E+00
  3.34946043E-02  2.34726953E-01  8.13757326E-01  1.00000000E+00  3.34946043E-02
  2.34726953E-01  8.13757326E-01  1.00000000E+00  3.34946043E-02  2.34726953E-01
  8.13757326E-01  1.00000000E+00  3.34946043E-02  2.34726953E-01  8.13757326E-01
  1.00000000E+00  3.34946043E-02  2.34726953E-01  8.13757326E-01  1.00000000E+00
  3.34946043E-02  2.34726953E-01  8.13757326E-01  1.00000000E+00
P(S=P) Contraction coefficients            R   N=          74
  0.00000000E+00  0.00000000E+00  0.00000000E+00  0.00000000E+00  0.00000000E+00
  0.00000000E+00  4.06100998E-03  3.06812999E-02  1.30451999E-01  3.27204999E-01
  4.52850998E-01  2.56041999E-01 -1.45104895E-02  3.10262776E-01  7.54482456E-01
  1.00000000E+00  0.00000000E+00  0.00000000E+00  0.00000000E+00  0.00000000E+00
  0.00000000E+00  0.00000000E+00  0.00000000E+00  6.89990666E-02  3.16423961E-01
  7.44308291E-01  1.00000000E+00  0.00000000E+00  0.00000000E+00  0.00000000E+00
  0.00000000E+00  0.00000000E+00  0.00000000E+00  0.00000000E+00  6.89990666E-02
  3.16423961E-01  7.44308291E-01  1.00000000E+00  0.00000000E+00  0.00000000E+00
  0.00000000E+00  0.00000000E+00  0.00000000E+00  0.00000000E+00  0.00000000E+00
  6.89990666E-02  3.16423961E-01  7.44308291E-01  1.00000000E+00  0.00000000E+00
  0.00000000E+00  0.00000000E+00  0.00000000E+00  0.00000000E+00  0.00000000E+00
  0.00000000E+00  0.00000000E+00  0.00000000E+00  0.00000000E+00  0.00000000E+00
  0.00000000E+00  0.00000000E+00  0.00000000E+00  0.00000000E+00  0.00000000E+00
  0.00000000E+00  0.00000000E+00  0.00000000E+00  0.00000000E+00  0.00000000E+00
  0.00000000E+00  0.00000000E+00  0.00000000E+00  0.00000000E+00
Coordinates of each shell                  R   N=          87
 -2.05700447E+00 -1.03557678E-07 -1.40083572E-01 -2.05700447E+00 -1.03557678E-07
 -1.40083572E-01 -2.05700447E+00 -1.03557678E-07 -1.40083572E-01 -2.05700447E+00
 -1.03557678E-07 -1.40083572E-01 -2.05700447E+00 -1.03557678E-07 -1.40083572E-01
  2.50398190E+00  1.23061635E-07 -3.47771469E-01  2.50398190E+00  1.23061635E-07
 -3.47771469E-01  2.50398190E+00  1.23061635E-07 -3.47771469E-01  2.50398190E+00
  1.23061635E-07 -3.47771469E-01  6.48587992E-01  2.14337505E+00  2.86084698E-01
  6.48587992E-01  2.14337505E+00  2.86084698E-01  6.48587992E-01  2.14337505E+00
  2.86084698E-01  6.48587992E-01  2.14337505E+00  2.86084698E-01  6.48588270E-01
 -2.14337498E+00  2.86084716E-01  6.48588270E-01 -2.14337498E+00  2.86084716E-01
  6.48588270E-01 -2.14337498E+00  2.86084716E-01  6.48588270E-01 -2.14337498E+00
  2.86084716E-01  2.92286852E+00  2.65590936E-08 -2.37020689E+00  2.92286852E+00
  2.65590936E-08 -2.37020689E+00  4.28604306E+00  2.11980835E-07  7.03765241E-01
  4.28604306E+00  2.11980835E-07  7.03765241E-01  7.93191671E-01  2.77289506E+00
  2.24826132E+00  7.93191671E-01  2.77289506E+00  2.24826132E+00  6.54913360E-01
  3.78159760E+00 -9.67565814E-01  6.54913360E-01  3.78159760E+00 -9.67565814E-01
  6.54913835E-01 -3.78159757E+00 -9.67565730E-01  6.54913835E-01 -3.78159757E+00
 -9.67565730E-01  7.93192159E-01 -2.77289483E+00  2.24826136E+00  7.93192159E-01
 -2.77289483E+00  2.24826136E+00
Constraint Structure                       R   N=          30
 -2.05700447E+00 -1.03557678E-07 -1.40083572E-01  2.50398190E+00  1.23061635E-07
 -3.47771469E-01  6.48587992E-01  2.14337505E+00  2.86084698E-01  6.48588270E-01
 -2.14337498E+00  2.86084716E-01  2.92286852E+00  2.65590936E-08 -2.37020689E+00
  4.28604306E+00  2.11980835E-07  7.03765241E-01  7.93191671E-01  2.77289506E+00
  2.24826132E+00  6.54913360E-01  3.78159760E+00 -9.67565814E-01  6.54913835E-01
 -3.78159757E+00 -9.67565730E-01  7.93192159E-01 -2.77289483E+00  2.24826136E+00
Num ILSW                                   I              100
ILSW                                       I   N=         100
           0           1           0           0           2           0
           0           0           0           0           0          -1
           0           0           0           0           0           0
           0           0           0           0           1           0
           1           0           0           0           0           0
           0           0      100000           0          -1           0
           0           0           0           0           0           0
           0           0           0           1           1           0
           0           0           1           0           0           0
           0           0           4          40           0           0
           0           0           0           0           0           0
           0           0           0           0           0           0
           0           0           0           0           0           0
           0           0           0           0           0           0
           0           0           0           0           0           0
           0           0           0           0           0           0
           0           0           0           0
Num RLSW                                   I               40
RLSW                                       R   N=          40
  1.00000000E+00  1.00000000E+00  1.00000000E+00  1.00000000E+00  1.00000000E+00
  0.00000000E+00  0.00000000E+00  1.00000000E+00  0.00000000E+00  0.00000000E+00
  0.00000000E+00  0.00000000E+00  1.00000000E+00  0.00000000E+00  0.00000000E+00
  0.00000000E+00  0.00000000E+00  1.00000000E+00  0.00000000E+00  0.00000000E+00
  0.00000000E+00  0.00000000E+00  1.00000000E+00  0.00000000E+00  0.00000000E+00
  0.00000000E+00  0.00000000E+00  1.00000000E+00  0.00000000E+00  0.00000000E+00
  0.00000000E+00  0.00000000E+00  0.00000000E+00  0.00000000E+00  0.00000000E+00
  0.00000000E+00  0.00000000E+00  0.00000000E+00  1.00000000E+00  1.00000000E+00
MxBond                                     I                4
NBond                                      I   N=          10
           2           4           4           4           1           1
           1           1           1           1
IBond                                      I   N=          40
           3           4           0           0           3           4
           5           6           1           2           7           8
           1           2           9          10           2           0
           0           0           2           0           0           0
           3           0           0           0           3           0
           0           0           4           0           0           0
           4           0           0           0
RBond                                      R   N=          40
  1.00000000E+00  1.00000000E+00  0.00000000E+00  0.00000000E+00  1.00000000E+00
  1.00000000E+00  1.00000000E+00  1.00000000E+00  1.00000000E+00  1.00000000E+00
  1.00000000E+00  1.00000000E+00  1.00000000E+00  1.00000000E+00  1.00000000E+00
  1.00000000E+00  1.00000000E+00  0.00000000E+00  0.00000000E+00  0.00000000E+00
  1.00000000E+00  0.00000000E+00  0.00000000E+00  0.00000000E+00  1.00000000E+00
  0.00000000E+00  0.00000000E+00  0.00000000E+00  1.00000000E+00  0.00000000E+00
  0.00000000E+00  0.00000000E+00  1.00000000E+00  0.00000000E+00  0.00000000E+00
  0.00000000E+00  1.00000000E+00  0.00000000E+00  0.00000000E+00  0.00000000E+00
Virial Ratio                               R      2.000533165846463E+00
SCF Energy                                 R     -5.145805601882997E+02
MP2 Energy                                 R     -5.150928283577173E+02
Total Energy                               R     -5.150928283577173E+02
Post-SCF wavefunction norm                 R      1.541409386724943E+00
RMS Force                                  R      6.534676192801786E-07
RMS Density                                R      1.204558874908627E-09
External E-field                           R   N=          35
  0.00000000E+00  0.00000000E+00  0.00000000E+00  0.00000000E+00  0.00000000E+00
  0.00000000E+00  0.00000000E+00  0.00000000E+00  0.00000000E+00  0.00000000E+00
  0.00000000E+00  0.00000000E+00  0.00000000E+00  0.00000000E+00  0.00000000E+00
  0.00000000E+00  0.00000000E+00  0.00000000E+00  0.00000000E+00  0.00000000E+00
  0.00000000E+00  0.00000000E+00  0.00000000E+00  0.00000000E+00  0.00000000E+00
  0.00000000E+00  0.00000000E+00  0.00000000E+00  0.00000000E+00  0.00000000E+00
  0.00000000E+00  0.00000000E+00  0.00000000E+00  0.00000000E+00  0.00000000E+00
IOpCl                                      I                0
IROHF                                      I                0
Alpha Orbital Energies                     R   N=          76
 -9.19272385E+01 -1.12590839E+01 -1.12590765E+01 -1.12422603E+01 -8.93799804E+00
 -6.62024648E+00 -6.61987128E+00 -6.61719952E+00 -1.13430369E+00 -9.21664680E-01
 -9.05675231E-01 -7.59319160E-01 -6.56633637E-01 -6.22146038E-01 -5.67524691E-01
 -5.12759126E-01 -5.06676651E-01 -4.63625514E-01 -4.09347901E-01 -3.33840462E-01
  1.60322738E-01  2.17522888E-01  2.44172032E-01  2.52730758E-01  3.02315246E-01
  3.05404871E-01  3.34712052E-01  3.51841648E-01  3.86179314E-01  4.08732557E-01
  5.45696144E-01  5.63135231E-01  5.84540219E-01  5.92832502E-01  7.17333010E-01
  7.18610040E-01  7.27433691E-01  7.75392190E-01  8.39206222E-01  8.94261807E-01
  8.95955851E-01  9.25103582E-01  9.67005605E-01  1.09890592E+00  1.12204287E+00
  1.15185991E+00  1.16144217E+00  1.16432902E+00  1.18035782E+00  1.20456163E+00
  1.21141591E+00  1.24812790E+00  1.25246285E+00  1.33192527E+00  1.46144848E+00
  1.52386804E+00  1.76880952E+00  1.81227959E+00  1.82864092E+00  2.14771309E+00
  2.18673513E+00  2.21039330E+00  2.29886158E+00  2.36823868E+00  2.38527161E+00
  2.47996754E+00  2.48749977E+00  2.61045157E+00  2.69656178E+00  2.80756856E+00
  2.81312323E+00  3.03467176E+00  4.35616819E+00  4.58274474E+00  4.64008633E+00
  4.92629159E+00
Alpha MO coefficients                      R   N=        5776
  9.96255154E-01  1.42542836E-02  8.73185759E-05  4.88662786E-12  1.65862068E-05
 -1.99899149E-02 -1.49978002E-04 -9.54823657E-12 -2.47479526E-05  2.71171017E-03
  2.67998901E-04  1.41862678E-11  3.50625284E-05  6.89779524E-03  6.90252254E-03
  6.89415671E-03  7.15703921E-15 -4.65396406E-06  2.32412090E-13  1.22560539E-05
  1.33125414E-05 -3.01708421E-06  1.27168857E-12 -4.72836870E-07 -5.39127384E-04
  2.15564125E-04  1.54514122E-11 -7.54040526E-05  7.72518908E-05  1.15809891E-07
  1.13595366E-05  5.25761458E-12  6.90345103E-06  7.70547749E-14 -9.47331288E-06
  1.64534067E-05 -8.58593472E-05 -6.70788543E-05 -1.32440148E-05  3.29252780E-04
  1.47072219E-04 -1.66097493E-05  4.20747583E-06 -2.38131795E-05 -1.41360605E-05
 -2.29559997E-05 -6.10782977E-06  1.32406597E-06  6.12850659E-06 -9.47331382E-06
  1.64533940E-05 -8.58593571E-05  6.70788421E-05 -1.32440164E-05  3.29252779E-04
  1.47072239E-04  1.66097971E-05  4.20748638E-06 -2.38131688E-05 -1.41360532E-05
 -2.29559994E-05  6.10782029E-06  1.32406988E-06 -6.12850879E-06  4.13634354E-05
 -9.14249674E-05  5.19735433E-07  1.10651833E-05 -2.13738381E-05 -1.92139983E-04
 -1.72583941E-05 -1.67326592E-04 -1.72583886E-05 -1.67326568E-04 -2.13738375E-05
 -1.92139980E-04  1.20778078E-06 -3.58349632E-05 -6.37890258E-05 -9.16494635E-09
 -1.13610769E-05  4.56866948E-04  6.71007170E-04  6.99723920E-08  1.07052287E-04
  4.14287767E-03  2.10005509E-03  1.14475381E-07  2.88505904E-04 -1.67116157E-04
 -6.46242788E-05 -2.26820041E-04  9.06081600E-09  2.31960066E-05  3.78312109E-09
  2.36209568E-02  7.89666219E-04 -9.82899692E-05  9.21621967E-09  2.31186744E-07
  5.49063200E-03 -1.33683235E-03  2.17696740E-07  4.89724098E-04 -5.02951341E-04
 -5.26897723E-04 -2.16445953E-04  2.89443459E-08  1.43773215E-04 -5.44714725E-09
  7.04070152E-01  1.97833933E-02 -2.77710140E-04 -3.43047521E-04 -6.17220745E-05
 -1.12033777E-02  2.81665788E-04  1.20812714E-03  4.96148821E-04 -1.34461149E-03
 -9.67232111E-04 -1.03926485E-03 -7.21663609E-05 -1.32202914E-05 -7.31490002E-05
  7.03910044E-01  1.97788636E-02 -2.77666879E-04  3.42987224E-04 -6.17249511E-05
 -1.12010561E-02  2.81704776E-04 -1.20787384E-03  4.96215259E-04 -1.34431454E-03
 -9.66941960E-04 -1.03901865E-03  7.21441351E-05 -1.32197078E-05  7.31422492E-05
 -2.34859794E-04 -8.23842779E-05 -2.51530575E-04 -1.75070187E-04  8.15218889E-05
  1.37123800E-03  6.76775100E-05  1.67298650E-03  6.76699246E-05  1.67269948E-03
  8.14917855E-05  1.37080929E-03  1.36915810E-10 -4.07810686E-09 -7.25950381E-09
  8.05932367E-05 -1.29245030E-09  5.18859733E-08  7.63300864E-08 -6.15149225E-04
  1.21732381E-08  4.70966993E-07  2.38796188E-07 -1.00573634E-03  3.28159672E-08
 -1.89632103E-08 -7.34137077E-09 -2.57813905E-08 -7.99113275E-05  2.64766347E-09
 -3.33419803E-05  2.68771885E-06  8.98201895E-08 -1.11725675E-08 -8.10603367E-05
  4.05197307E-11  6.24395545E-07 -1.51912060E-07 -1.91640187E-03  5.56718815E-08
 -5.71489610E-08 -5.99244201E-08 -2.46084835E-08 -2.54543345E-04  1.63423109E-08
  4.80445526E-05 -7.04098957E-01 -1.99199137E-02  1.90313560E-04  2.65012601E-04
 -1.27196430E-05  1.02101824E-02  1.71639512E-04 -1.11414860E-03  2.92656478E-04
  1.30597909E-03  1.27590458E-03  1.08270039E-03  9.75822240E-05  2.59428147E-06
  2.97287154E-05  7.04259023E-01  1.99244114E-02 -1.90376700E-04  2.65090587E-04
  1.27056172E-05 -1.02127297E-02 -1.71575496E-04 -1.11442344E-03 -2.92543714E-04
 -1.30628481E-03 -1.27612443E-03 -1.08293667E-03  9.75986434E-05 -2.59728986E-06
  2.97453644E-05 -2.67027138E-08 -9.38560652E-09 -2.85902546E-08 -1.99101139E-08
 -1.32473995E-04 -1.88588738E-03 -3.32697083E-05 -1.26211149E-03  3.32850736E-05
  1.26249181E-03  1.32492559E-04  1.88619916E-03 -7.79124770E-06 -1.90539220E-05
 -1.09582376E-06  2.35487168E-13  9.45538257E-06 -3.77038540E-04 -6.68908064E-05
 -6.72716398E-12 -5.01332234E-05  2.63013902E-05  2.69604952E-05 -1.14490199E-11
 -1.90849317E-05  1.84838104E-04 -5.34885196E-05 -1.84129829E-06  1.12329660E-11
 -6.84462587E-05  8.93574015E-13  9.95581673E-01  2.84386339E-02 -3.55894802E-04
 -5.34283725E-11  1.91279849E-05 -1.71164272E-02  1.88979329E-03  3.54803599E-10
  5.48717054E-05 -1.51295859E-03 -1.73325365E-03 -1.53703419E-03  2.49906109E-11
  4.99651598E-05  2.92812262E-12 -1.69985595E-02 -3.44178940E-04  8.65626096E-05
 -6.18963117E-05  7.21027144E-06  4.51084926E-03  1.27212616E-03 -1.24510836E-03
 -6.86009210E-04 -2.86261323E-04 -3.69932562E-04 -7.05652704E-05  1.67065444E-04
  4.96832273E-05 -8.12902957E-05 -1.69985629E-02 -3.44179059E-04  8.65625942E-05
  6.18963187E-05  7.21024931E-06  4.51084964E-03  1.27212615E-03  1.24510856E-03
 -6.86009167E-04 -2.86261271E-04 -3.69932586E-04 -7.05652641E-05 -1.67065428E-04
  4.96832262E-05  8.12903055E-05  2.68231368E-04  2.80593248E-03  1.06048766E-04
  2.23249984E-03 -1.70455581E-04  8.79871988E-05 -1.90654288E-04 -2.79775657E-04
 -1.90654271E-04 -2.79775686E-04 -1.70455592E-04  8.79871423E-05 -2.81782475E-01
  1.03028071E+00  5.20742895E-03  3.11086164E-10  1.09214500E-03  2.42540284E-02
  1.73450785E-03  1.29853519E-10  2.89823618E-04 -7.02508562E-03 -1.54306926E-03
 -8.64816711E-11 -2.39523487E-04 -1.01795750E-03 -1.05169128E-03 -1.56292681E-03
  2.32976287E-11  1.25812029E-04  5.16098849E-12 -4.57784066E-05 -2.98418415E-04
 -4.02228874E-05 -5.71953240E-12  3.22064188E-05  2.42668019E-03 -1.31472516E-03
 -9.62005232E-11  6.77804119E-05  1.77904379E-05 -4.33681968E-05 -1.72014224E-05
  2.01826274E-12 -3.06820153E-05  1.24806805E-12 -5.60393467E-05  6.30814387E-04
  5.99657746E-05  1.14699558E-04  1.63671235E-05 -1.28314388E-03 -4.76051310E-04
  4.08191588E-04  1.90177681E-04 -2.33556856E-04 -2.39861594E-04  1.22003391E-04
 -2.64306405E-04 -4.60755967E-05 -1.15717569E-04 -5.60393383E-05  6.30814386E-04
  5.99657782E-05 -1.14699532E-04  1.63671341E-05 -1.28314388E-03 -4.76051352E-04
 -4.08191739E-04  1.90177622E-04 -2.33556904E-04 -2.39861540E-04  1.22003388E-04
  2.64306401E-04 -4.60756117E-05  1.15717573E-04 -2.22489888E-04  2.87497065E-04
 -1.11713634E-06  1.79855919E-04 -5.68442956E-05  6.35236560E-04 -2.42420758E-05
  5.34169172E-04 -2.42420923E-05  5.34169070E-04 -5.68442966E-05  6.35236579E-04
  1.49574330E-10 -5.72171619E-10  2.15867641E-08  9.92983112E-01  8.98747436E-09
  3.26509118E-10  5.23357292E-10  2.36014471E-02  2.14120815E-10  2.73351277E-10
  4.53770992E-11 -5.65860252E-03 -2.81605981E-11 -7.91892298E-11  5.61934148E-11
 -1.42390456E-10  1.12609967E-03  1.84621903E-11  2.01213633E-04 -1.34279486E-12
 -7.58210537E-12 -3.07796377E-11  1.59022767E-04 -1.03274749E-11  1.52238814E-10
 -1.32279879E-10  8.94959742E-04  6.70299541E-11  1.15327463E-11 -3.74589758E-12
  6.83545696E-12 -9.72210888E-05 -4.90577133E-12  1.60404861E-05  4.85091185E-05
  1.04604165E-03  3.00375572E-04  9.53602580E-05  6.43287324E-05 -3.19266427E-03
  2.34628654E-05  1.20941507E-03 -7.11051583E-05 -3.81194252E-04 -4.67860439E-06
  2.52221979E-04 -3.77395200E-04 -1.06029694E-04 -9.70426723E-05 -4.85091206E-05
 -1.04604147E-03 -3.00375529E-04  9.53601694E-05 -6.43287284E-05  3.19266347E-03
 -2.34627581E-05  1.20941490E-03  7.11052251E-05  3.81194307E-04  4.67849000E-06
 -2.52221939E-04 -3.77395083E-04  1.06029700E-04 -9.70426466E-05 -7.72764083E-12
  5.56109002E-11 -5.97026509E-12 -1.73112676E-11  1.37392097E-04  9.13353255E-04
 -2.63455619E-06  8.40508743E-04  2.63462427E-06 -8.40508617E-04 -1.37392062E-04
 -9.13353131E-04  1.78731248E-03 -6.87152841E-03  9.79745176E-01 -2.27645134E-08
  1.62117387E-01  4.12091770E-03  2.30020879E-02 -5.33050686E-10  3.83275968E-03
  2.35072572E-03 -3.94304405E-03  2.46816414E-10 -6.50269756E-04  1.39305938E-04
 -1.20765945E-03 -1.73518265E-03  3.30205526E-11  3.83579165E-04  5.76694387E-12
 -9.62329061E-06 -5.22791141E-05 -3.24022846E-04 -3.64160014E-11 -6.66827434E-05
  3.27584958E-03 -1.24157584E-03 -1.30199828E-10  1.10827606E-03  4.03368400E-05
  1.10558684E-05  1.34532378E-04  1.93932570E-12 -5.01926313E-05 -5.87363256E-12
  1.83034052E-05  1.13974650E-03  2.56517525E-04  2.26674018E-04  2.71162064E-05
 -3.76266134E-03  5.72096434E-04  1.82148163E-03  2.25143480E-04 -2.36957341E-04
 -4.14171273E-04  2.29615882E-04 -4.92103972E-04 -7.66441550E-05 -1.68583027E-04
  1.83034339E-05  1.13974673E-03  2.56517584E-04 -2.26673976E-04  2.71162289E-05
 -3.76266190E-03  5.72096551E-04 -1.82148187E-03  2.25143366E-04 -2.36957517E-04
 -4.14171168E-04  2.29615931E-04  4.92104070E-04 -7.66442078E-05  1.68583046E-04
 -1.49011815E-04  8.48458914E-04 -8.55764198E-05 -4.04800005E-04  1.89531388E-04
  4.13398108E-04  1.49414875E-04  2.24698253E-05  1.49414851E-04  2.24698523E-05
  1.89531404E-04  4.13398369E-04  6.80210896E-05 -2.42361117E-04 -1.62272336E-01
 -5.34615536E-09  9.80549828E-01  1.92880146E-04 -3.28663541E-03 -1.14698513E-10
  2.00810362E-02 -4.07803101E-04  5.69827086E-04  2.96881424E-11 -4.63195281E-03
 -2.09357024E-04 -8.03660949E-05  1.55278571E-04 -7.49437444E-12  5.26155979E-04
  4.56150859E-11 -4.22959369E-05 -1.82593762E-04 -3.03950035E-06 -1.48672823E-12
  5.43978735E-06  9.56421773E-04  3.36828130E-04 -5.87498726E-11  6.50322937E-04
 -3.23394574E-05 -1.01237854E-04 -9.96333099E-05  9.49629822E-12 -7.76841808E-05
 -4.12089986E-12  2.54063057E-06  6.02069409E-06  1.39621213E-05 -3.86249061E-06
  1.04218665E-04 -2.39569764E-04 -2.79528484E-04  6.69209270E-05 -1.01710290E-03
 -5.23485313E-05  4.80752697E-05  1.34455521E-05 -7.44866713E-06  1.45031492E-04
  1.31220004E-04  2.54063367E-06  6.02070946E-06  1.39621294E-05  3.86249922E-06
  1.04218657E-04 -2.39569891E-04 -2.79528599E-04 -6.69210611E-05 -1.01710279E-03
 -5.23485291E-05  4.80752691E-05  1.34455599E-05  7.44864603E-06  1.45031487E-04
 -1.31219990E-04  1.27034733E-04 -4.47916522E-04 -9.24637938E-05 -4.77185883E-04
  3.89229479E-05  1.19775023E-03 -3.50856028E-06 -7.29685004E-04 -3.50855004E-06
 -7.29684939E-04  3.89229390E-05  1.19775016E-03  3.17692292E-02 -1.47107223E-01
 -4.75748494E-02 -3.49914495E-09 -5.71751205E-03  2.73440899E-01  1.05911816E-01
  7.78209668E-09  1.24439134E-02  6.06668306E-02 -8.65400858E-03 -6.98345546E-10
 -1.37173814E-03  2.81896610E-02  7.33444527E-03 -9.66256454E-03  2.00192880E-09
  5.65658902E-03  4.10883714E-10 -1.12319544E-01  2.08139328E-01 -7.28199124E-02
 -8.68891098E-09  1.64560328E-02  1.51081372E-01 -1.04619846E-02 -1.39613649E-09
 -1.88178144E-03  1.11962869E-02  4.10702799E-03  6.54173449E-04  5.93191389E-10
 -3.20461987E-03  1.64126259E-10 -1.03717633E-01  1.89227625E-01  5.32831975E-03
 -7.03576721E-02 -1.14226438E-02  1.70927175E-01 -6.26996905E-03 -2.07241663E-02
 -1.45319879E-03  3.11432427E-03  1.23708598E-02  2.54877555E-04 -6.68872418E-04
 -3.05471523E-04  2.60125527E-03 -1.03717635E-01  1.89227628E-01  5.32831806E-03
  7.03576740E-02 -1.14226443E-02  1.70927178E-01 -6.26996994E-03  2.07241669E-02
 -1.45319856E-03  3.11432377E-03  1.23708597E-02  2.54877770E-04  6.68871515E-04
 -3.05470851E-04 -2.60125514E-03  5.50719346E-02  3.74042649E-03  4.80107939E-02
  7.07050806E-03  4.97137838E-02  3.52412851E-03  4.47098500E-02  4.67401919E-03
  4.47098506E-02  4.67401981E-03  4.97137860E-02  3.52412823E-03  2.04313947E-08
 -9.51006605E-08 -6.27723253E-09 -5.15272783E-02 -2.83283192E-09  1.86439652E-07
  1.46749494E-08  1.20916721E-01  6.57897483E-09  7.70263036E-08  6.56024431E-10
  8.00341732E-04  3.61002828E-10  1.85228287E-09  8.91402476E-09 -1.99917202E-09
  3.49338983E-02  1.82840328E-09  5.45964281E-03  5.47190214E-08 -1.01904125E-07
 -2.67340050E-08  1.36046420E-01  3.15755547E-09 -1.16239006E-07 -3.63170397E-09
  2.96652040E-02 -5.84153669E-10  4.72232330E-10 -1.16330524E-09 -4.37220072E-09
 -1.68489869E-02 -1.37175267E-09  5.74224257E-03 -1.38586814E-01  2.59601603E-01
  8.30594304E-03  4.03272815E-02  3.42588835E-03  2.92854750E-01 -4.59395407E-03
  4.60096259E-03  2.11961971E-03 -7.71663122E-04  6.40859776E-03  1.13457567E-02
  6.12232680E-04  8.42967903E-04 -1.97832494E-03  1.38586808E-01 -2.59601597E-01
 -8.30605449E-03  4.03272704E-02 -3.42588041E-03 -2.92854711E-01  4.59392295E-03
  4.60096745E-03 -2.11961862E-03  7.71665379E-04 -6.40859873E-03 -1.13457568E-02
  6.12220599E-04 -8.42965523E-04 -1.97832487E-03 -4.41649782E-08 -1.38697015E-08