
    -----------------------------------------------------------------------
          Psi4: An Open-Source Ab Initio Electronic Structure Package
                               Psi4 1.3.2 release

                         Git: Rev {HEAD} ecbda83 


    R. M. Parrish, L. A. Burns, D. G. A. Smith, A. C. Simmonett,
    A. E. DePrince III, E. G. Hohenstein, U. Bozkaya, A. Yu. Sokolov,
    R. Di Remigio, R. M. Richard, J. F. Gonthier, A. M. James,
    H. R. McAlexander, A. Kumar, M. Saitow, X. Wang, B. P. Pritchard,
    P. Verma, H. F. Schaefer III, K. Patkowski, R. A. King, E. F. Valeev,
    F. A. Evangelista, J. M. Turney, T. D. Crawford, and C. D. Sherrill,
    J. Chem. Theory Comput. 13(7) pp 3185--3197 (2017).
    (doi: 10.1021/acs.jctc.7b00174)


                         Additional Contributions by
    P. Kraus, H. Kruse, M. H. Lechner, M. C. Schieber, R. A. Shaw,
    A. Alenaizan, R. Galvelis, Z. L. Glick, S. Lehtola, and J. P. Misiewicz

    -----------------------------------------------------------------------


    Psi4 started on: Saturday, 27 March 2021 11:21PM

    Process ID: 89542
    Host:       node144.bme.utexas.edu
    PSIDATADIR: /home/xy3866/psi4conda/share/psi4
    Memory:     500.0 MiB
    Threads:    8
    
  ==> Input File <==

--------------------------------------------------------------------------
#psi4
#
memory 32 gb

molecule  {
0 1
  N        1.6268380     0.6089620    -0.4693990
  C        0.3031040     0.1485790    -0.2066970
  C       -0.7706010     1.0561020    -0.0842670
  C        0.1224249    -1.2283401     0.1309772
  C       -2.0579110     0.5582020     0.1415980
  C       -1.2176000    -1.6989120     0.1341680
  C       -2.2850370    -0.8120180     0.2620550
  C       -0.5406870     2.5426280    -0.1993030
  C        1.2072340    -2.2197810    -0.3093320
  C        2.5023020     0.6131830     0.7097540
  H       -2.8885640     1.2560570     0.2350690
  H       -1.3937740    -2.7714120     0.2029680
  H        1.5916390     1.5501200    -0.8540680
  H       -3.2895990    -1.1861590     0.4450020
  H        0.2351210     2.8885850     0.4923550
  H       -0.2380210     2.8365620    -1.2118290
  H       -1.4595390     3.0868260     0.0338520
  H        1.9415750    -1.8136360    -1.0094830
  H        1.7264620    -2.4417900     0.6300600
  H        0.8237630    -3.1662910    -0.7010550
  H        2.0935470     1.1833990     1.5571020
  H        3.4676080     1.0418550     0.4271840
  H        2.6734620    -0.4116070     1.0419720
units angstrom
no_reorient  #important for SAPT in psi4, default
symmetry c1  #important for SAPT in psi4, default
}

set PROPERTIES_ORIGIN ["COM"]
properties('MP2/aug-cc-pvtz', properties = ['dipole'])
--------------------------------------------------------------------------

  Memory set to  29.802 GiB by Python driver.
    SCF Algorithm Type (re)set to DF.

*** tstart() called on node144.bme.utexas.edu
*** at Sat Mar 27 23:21:14 2021

   => Loading Basis Set <=

    Name: AUG-CC-PVTZ
    Role: ORBITAL
    Keyword: BASIS
    atoms 1     entry N          line   281 file /home/xy3866/psi4conda/share/psi4/basis/aug-cc-pvtz.gbs 
    atoms 2-10  entry C          line   235 file /home/xy3866/psi4conda/share/psi4/basis/aug-cc-pvtz.gbs 
    atoms 11-23 entry H          line    36 file /home/xy3866/psi4conda/share/psi4/basis/aug-cc-pvtz.gbs 


         ---------------------------------------------------------
                                   SCF
               by Justin Turney, Rob Parrish, Andy Simmonett
                          and Daniel G. A. Smith
                              RHF Reference
                        8 Threads,  30517 MiB Core
         ---------------------------------------------------------

  ==> Geometry <==

    Molecular point group: c1
    Full point group: C1

    Geometry (in Angstrom), charge = 0, multiplicity = 1:

       Center              X                  Y                   Z               Mass       
    ------------   -----------------  -----------------  -----------------  -----------------
         N            1.661888533709     0.622939114855    -0.481786612790    14.003074004430
         C            0.338154533709     0.162556114855    -0.219084612790    12.000000000000
         C           -0.735550466291     1.070079114855    -0.096654612790    12.000000000000
         C            0.157475433709    -1.214362985145     0.118589587210    12.000000000000
         C           -2.022860466291     0.572179114855     0.129210387210    12.000000000000
         C           -1.182549466291    -1.684934885145     0.121780387210    12.000000000000
         C           -2.249986466291    -0.798040885145     0.249667387210    12.000000000000
         C           -0.505636466291     2.556605114855    -0.211690612790    12.000000000000
         C            1.242284533709    -2.205803885145    -0.321719612790    12.000000000000
         C            2.537352533709     0.627160114855     0.697366387210    12.000000000000
         H           -2.853513466291     1.270034114855     0.222681387210     1.007825032230
         H           -1.358723466291    -2.757434885145     0.190580387210     1.007825032230
         H            1.626689533709     1.564097114855    -0.866455612790     1.007825032230
         H           -3.254548466291    -1.172181885145     0.432614387210     1.007825032230
         H            0.270171533709     2.902562114855     0.479967387210     1.007825032230
         H           -0.202970466291     2.850539114855    -1.224216612790     1.007825032230
         H           -1.424488466291     3.100803114855     0.021464387210     1.007825032230
         H            1.976625533709    -1.799658885145    -1.021870612790     1.007825032230
         H            1.761512533709    -2.427812885145     0.617672387210     1.007825032230
         H            0.858813533709    -3.152313885145    -0.713442612790     1.007825032230
         H            2.128597533709     1.197376114855     1.544714387210     1.007825032230
         H            3.502658533709     1.055832114855     0.414796387210     1.007825032230
         H            2.708512533709    -0.397629885145     1.029584387210     1.007825032230

  Running in c1 symmetry.

  Rotational constants: A =      0.05493  B =      0.04798  C =      0.02737 [cm^-1]
  Rotational constants: A =   1646.84287  B =   1438.47242  C =    820.53025 [MHz]
  Nuclear repulsion =  520.737386157716855

  Charge       = 0
  Multiplicity = 1
  Electrons    = 74
  Nalpha       = 37
  Nbeta        = 37

  ==> Algorithm <==

  SCF Algorithm Type is DF.
  DIIS enabled.
  MOM disabled.
  Fractional occupation disabled.
  Guess Type is SAD.
  Energy threshold   = 1.00e-10
  Density threshold  = 1.00e-10
  Integral threshold = 0.00e+00

  ==> Primary Basis <==

  Basis Set: AUG-CC-PVTZ
    Blend: AUG-CC-PVTZ
    Number of shells: 257
    Number of basis function: 759
    Number of Cartesian functions: 875
    Spherical Harmonics?: true
    Max angular momentum: 3

   => Loading Basis Set <=

    Name: (AUG-CC-PVTZ AUX)
    Role: JKFIT
    Keyword: DF_BASIS_SCF
    atoms 1     entry N          line   224 file /home/xy3866/psi4conda/share/psi4/basis/aug-cc-pvtz-jkfit.gbs 
    atoms 2-10  entry C          line   162 file /home/xy3866/psi4conda/share/psi4/basis/aug-cc-pvtz-jkfit.gbs 
    atoms 11-23 entry H          line    70 file /home/xy3866/psi4conda/share/psi4/basis/aug-cc-pvtz-jkfit.gbs 

  ==> Pre-Iterations <==

   -------------------------------------------------------
    Irrep   Nso     Nmo     Nalpha   Nbeta   Ndocc  Nsocc
   -------------------------------------------------------
     A        759     759       0       0       0       0
   -------------------------------------------------------
    Total     759     759      37      37      37       0
   -------------------------------------------------------

  ==> Integral Setup <==

  DFHelper Memory: AOs need 6.849 GiB; user supplied 22.352 GiB. Using in-core AOs.

  ==> MemDFJK: Density-Fitted J/K Matrices <==

    J tasked:                   Yes
    K tasked:                   Yes
    wK tasked:                   No
    OpenMP threads:               8
    Memory [MiB]:             22888
    Algorithm:                 Disk
    Schwarz Cutoff:           1E-12
    Mask sparsity (%):       4.9962
    Fitting Condition:        1E-10

   => Auxiliary Basis Set <=

  Basis Set: (AUG-CC-PVTZ AUX)
    Blend: AUG-CC-PVTZ-JKFIT
    Number of shells: 482
    Number of basis function: 1638
    Number of Cartesian functions: 2025
    Spherical Harmonics?: true
    Max angular momentum: 4

  Minimum eigenvalue in the overlap matrix is 9.2336884282E-07.
  Using Symmetric Orthogonalization.

  SCF Guess: Superposition of Atomic Densities via on-the-fly atomic UHF.

  ==> Iterations <==

                           Total Energy        Delta E     RMS |[F,P]|

   @DF-RHF iter SAD:  -402.46905228094226   -4.02469e+02   0.00000e+00 
   @DF-RHF iter   1:  -402.59441139582469   -1.25359e-01   9.65058e-04 DIIS
   @DF-RHF iter   2:  -402.88169229657376   -2.87281e-01   4.21117e-04 DIIS
   @DF-RHF iter   3:  -402.93453324296945   -5.28409e-02   8.83062e-05 DIIS
   @DF-RHF iter   4:  -402.93841294421827   -3.87970e-03   3.10363e-05 DIIS
   @DF-RHF iter   5:  -402.93876462217366   -3.51678e-04   9.33239e-06 DIIS
   @DF-RHF iter   6:  -402.93880095662701   -3.63345e-05   2.84613e-06 DIIS
   @DF-RHF iter   7:  -402.93880577392008   -4.81729e-06   9.84335e-07 DIIS
   @DF-RHF iter   8:  -402.93880667209970   -8.98180e-07   3.69200e-07 DIIS
   @DF-RHF iter   9:  -402.93880689170589   -2.19606e-07   2.00445e-07 DIIS
   @DF-RHF iter  10:  -402.93880694537393   -5.36680e-08   8.39386e-08 DIIS
   @DF-RHF iter  11:  -402.93880695845974   -1.30858e-08   3.34038e-08 DIIS
   @DF-RHF iter  12:  -402.93880695992340   -1.46366e-09   1.53681e-08 DIIS
   @DF-RHF iter  13:  -402.93880696011183   -1.88436e-10   4.59400e-09 DIIS
   @DF-RHF iter  14:  -402.93880696013514   -2.33058e-11   1.30882e-09 DIIS
   @DF-RHF iter  15:  -402.93880696013355    1.59162e-12   4.56769e-10 DIIS
   @DF-RHF iter  16:  -402.93880696013588   -2.33058e-12   1.44846e-10 DIIS
   @DF-RHF iter  17:  -402.93880696013491    9.66338e-13   4.96507e-11 DIIS
  Energy and wave function converged.


  ==> Post-Iterations <==

    Orbital Energies [Eh]
    ---------------------

    Doubly Occupied:                                                      

       1A    -15.556224     2A    -11.265064     3A    -11.250959  
       4A    -11.235591     5A    -11.234446     6A    -11.229092  
       7A    -11.228313     8A    -11.228196     9A    -11.222236  
      10A    -11.214747    11A     -1.227935    12A     -1.129282  
      13A     -1.050974    14A     -1.010473    15A     -0.943585  
      16A     -0.920722    17A     -0.892035    18A     -0.792200  
      19A     -0.780990    20A     -0.693227    21A     -0.659865  
      22A     -0.625121    23A     -0.604409    24A     -0.592187  
      25A     -0.581471    26A     -0.568425    27A     -0.562091  
      28A     -0.553768    29A     -0.550113    30A     -0.531485  
      31A     -0.520566    32A     -0.482020    33A     -0.475741  
      34A     -0.463953    35A     -0.405544    36A     -0.316463  
      37A     -0.298852  

    Virtual:                                                              

      38A      0.027340    39A      0.032914    40A      0.033456  
      41A      0.040513    42A      0.045078    43A      0.046503  
      44A      0.052939    45A      0.059073    46A      0.063937  
      47A      0.066153    48A      0.068586    49A      0.085765  
      50A      0.087202    51A      0.093088    52A      0.099534  
      53A      0.105083    54A      0.109159    55A      0.111230  
      56A      0.113968    57A      0.117902    58A      0.121053  
      59A      0.127932    60A      0.132014    61A      0.133187  
      62A      0.135686    63A      0.136663    64A      0.144788  
      65A      0.147992    66A      0.149165    67A      0.153457  
      68A      0.156708    69A      0.159997    70A      0.166411  
      71A      0.169101    72A      0.172338    73A      0.173276  
      74A      0.177589    75A      0.181154    76A      0.184411  
      77A      0.185923    78A      0.190739    79A      0.206065  
      80A      0.206176    81A      0.213061    82A      0.219679  
      83A      0.222977    84A      0.239090    85A      0.244959  
      86A      0.250649    87A      0.252837    88A      0.257705  
      89A      0.260353    90A      0.272018    91A      0.279208  
      92A      0.280443    93A      0.286940    94A      0.290939  
      95A      0.295473    96A      0.298290    97A      0.301807  
      98A      0.308883    99A      0.314458   100A      0.315103  
     101A      0.321979   102A      0.329423   103A      0.335754  
     104A      0.341555   105A      0.344911   106A      0.348588  
     107A      0.350943   108A      0.354789   109A      0.357420  
     110A      0.362593   111A      0.364621   112A      0.368379  
     113A      0.374278   114A      0.376626   115A      0.379624  
     116A      0.382169   117A      0.388018   118A      0.396175  
     119A      0.400004   120A      0.403048   121A      0.409508  
     122A      0.412511   123A      0.415249   124A      0.421580  
     125A      0.424365   126A      0.428146   127A      0.435508  
     128A      0.436763   129A      0.440871   130A      0.443983  
     131A      0.449350   132A      0.454080   133A      0.460827  
     134A      0.462894   135A      0.464019   136A      0.467646  
     137A      0.477128   138A      0.477655   139A      0.479509  
     140A      0.486860   141A      0.487690   142A      0.492399  
     143A      0.493029   144A      0.498393   145A      0.504117  
     146A      0.505558   147A      0.511421   148A      0.516462  
     149A      0.520275   150A      0.521861   151A      0.524157  
     152A      0.527569   153A      0.536780   154A      0.541905  
     155A      0.545771   156A      0.549979   157A      0.552301  
     158A      0.556159   159A      0.558976   160A      0.562642  
     161A      0.571170   162A      0.573743   163A      0.576486  
     164A      0.581664   165A      0.588371   166A      0.590185  
     167A      0.592880   168A      0.603722   169A      0.606440  
     170A      0.607438   171A      0.613520   172A      0.620661  
     173A      0.628745   174A      0.632443   175A      0.638242  
     176A      0.645168   177A      0.650777   178A      0.657965  
     179A      0.663063   180A      0.666010   181A      0.672279  
     182A      0.687037   183A      0.701484   184A      0.702994  
     185A      0.711926   186A      0.715304   187A      0.716759  
     188A      0.721713   189A      0.730626   190A      0.740415  
     191A      0.741584   192A      0.752806   193A      0.760178  
     194A      0.763905   195A      0.769767   196A      0.773853  
     197A      0.778886   198A      0.786961   199A      0.794845  
     200A      0.798981   201A      0.803727   202A      0.811127  
     203A      0.812469   204A      0.829098   205A      0.829740  
     206A      0.840395   207A      0.844771   208A      0.850174  
     209A      0.853958   210A      0.858716   211A      0.866277  
     212A      0.871186   213A      0.873920   214A      0.875177  
     215A      0.879192   216A      0.890900   217A      0.898419  
     218A      0.903863   219A      0.908835   220A      0.913112  
     221A      0.923246   222A      0.932623   223A      0.936425  
     224A      0.938324   225A      0.942127   226A      0.948906  
     227A      0.956044   228A      0.960658   229A      0.963888  
     230A      0.968969   231A      0.973943   232A      0.976146  
     233A      0.979403   234A      0.985981   235A      0.992477  
     236A      0.996577   237A      1.000639   238A      1.003636  
     239A      1.007804   240A      1.016089   241A      1.022337  
     242A      1.024863   243A      1.027813   244A      1.035156  
     245A      1.037871   246A      1.043999   247A      1.052942  
     248A      1.057575   249A      1.063869   250A      1.066677  
     251A      1.073869   252A      1.076279   253A      1.081337  
     254A      1.082846   255A      1.092582   256A      1.094563  
     257A      1.099649   258A      1.106716   259A      1.115528  
     260A      1.120438   261A      1.124172   262A      1.125364  
     263A      1.129097   264A      1.139417   265A      1.142465  
     266A      1.146906   267A      1.150401   268A      1.154721  
     269A      1.158455   270A      1.168661   271A      1.170120  
     272A      1.181016   273A      1.189729   274A      1.193939  
     275A      1.201306   276A      1.208061   277A      1.212909  
     278A      1.215033   279A      1.221252   280A      1.227792  
     281A      1.229968   282A      1.234148   283A      1.241280  
     284A      1.246446   285A      1.250634   286A      1.260083  
     287A      1.267252   288A      1.269708   289A      1.275325  
     290A      1.277769   291A      1.284203   292A      1.286688  
     293A      1.301452   294A      1.309893   295A      1.319520  
     296A      1.320352   297A      1.328153   298A      1.341136  
     299A      1.342993   300A      1.350869   301A      1.362092  
     302A      1.365154   303A      1.373266   304A      1.376779  
     305A      1.378369   306A      1.392002   307A      1.396484  
     308A      1.402196   309A      1.414808   310A      1.425194  
     311A      1.426265   312A      1.434888   313A      1.438996  
     314A      1.442708   315A      1.454361   316A      1.461388  
     317A      1.471066   318A      1.475324   319A      1.479083  
     320A      1.485615   321A      1.489280   322A      1.500710  
     323A      1.508668   324A      1.511067   325A      1.515328  
     326A      1.526278   327A      1.535800   328A      1.544450  
     329A      1.551441   330A      1.561880   331A      1.566013  
     332A      1.578712   333A      1.586075   334A      1.592697  
     335A      1.597375   336A      1.608795   337A      1.614675  
     338A      1.617078   339A      1.627061   340A      1.637140  
     341A      1.643663   342A      1.652729   343A      1.653088  
     344A      1.661561   345A      1.673718   346A      1.677090  
     347A      1.692078   348A      1.694098   349A      1.701999  
     350A      1.709910   351A      1.713312   352A      1.726606  
     353A      1.732265   354A      1.741052   355A      1.743264  
     356A      1.749468   357A      1.752751   358A      1.759956  
     359A      1.767226   360A      1.781735   361A      1.789117  
     362A      1.793694   363A      1.797247   364A      1.807330  
     365A      1.817508   366A      1.827595   367A      1.834780  
     368A      1.842800   369A      1.849862   370A      1.853282  
     371A      1.854427   372A      1.861486   373A      1.870267  
     374A      1.875772   375A      1.879498   376A      1.899172  
     377A      1.909031   378A      1.912723   379A      1.922460  
     380A      1.933423   381A      1.940378   382A      1.946543  
     383A      1.955178   384A      1.961956   385A      1.970446  
     386A      1.972296   387A      1.987993   388A      1.998000  
     389A      2.004299   390A      2.008245   391A      2.013235  
     392A      2.021005   393A      2.022026   394A      2.048510  
     395A      2.054814   396A      2.061772   397A      2.071782  
     398A      2.085028   399A      2.087234   400A      2.104265  
     401A      2.107569   402A      2.114270   403A      2.116504  
     404A      2.130957   405A      2.135964   406A      2.142553  
     407A      2.151295   408A      2.158529   409A      2.165471  
     410A      2.175207   411A      2.183004   412A      2.185531  
     413A      2.200334   414A      2.203022   415A      2.207967  
     416A      2.211882   417A      2.228551   418A      2.239028  
     419A      2.248304   420A      2.251062   421A      2.263050  
     422A      2.272681   423A      2.278581   424A      2.289786  
     425A      2.294924   426A      2.302725   427A      2.310265  
     428A      2.316139   429A      2.322644   430A      2.337619  
     431A      2.340835   432A      2.348066   433A      2.359592  
     434A      2.362779   435A      2.371343   436A      2.394032  
     437A      2.401716   438A      2.415124   439A      2.418812  
     440A      2.423311   441A      2.440222   442A      2.446200  
     443A      2.472214   444A      2.472988   445A      2.486498  
     446A      2.496506   447A      2.513354   448A      2.524965  
     449A      2.537265   450A      2.553800   451A      2.565469  
     452A      2.586744   453A      2.590168   454A      2.604521  
     455A      2.625765   456A      2.639079   457A      2.648946  
     458A      2.672404   459A      2.686416   460A      2.701916  
     461A      2.711700   462A      2.730222   463A      2.737922  
     464A      2.748349   465A      2.762953   466A      2.803536  
     467A      2.820608   468A      2.834912   469A      2.856412  
     470A      2.883635   471A      2.895764   472A      2.906251  
     473A      2.972614   474A      3.067833   475A      3.076522  
     476A      3.114249   477A      3.133826   478A      3.147064  
     479A      3.175247   480A      3.235894   481A      3.245302  
     482A      3.264805   483A      3.298160   484A      3.308010  
     485A      3.340914   486A      3.350223   487A      3.353379  
     488A      3.386426   489A      3.392275   490A      3.399182  
     491A      3.431141   492A      3.443348   493A      3.446537  
     494A      3.466210   495A      3.481216   496A      3.482969  
     497A      3.493782   498A      3.522265   499A      3.533461  
     500A      3.538627   501A      3.554562   502A      3.560613  
     503A      3.566123   504A      3.572592   505A      3.587903  
     506A      3.593505   507A      3.602533   508A      3.621660  
     509A      3.622803   510A      3.633557   511A      3.640871  
     512A      3.655201   513A      3.668091   514A      3.676119  
     515A      3.687835   516A      3.696623   517A      3.704530  
     518A      3.708356   519A      3.717080   520A      3.725218  
     521A      3.730415   522A      3.740316   523A      3.749383  
     524A      3.757924   525A      3.764676   526A      3.779157  
     527A      3.784490   528A      3.797544   529A      3.810034  
     530A      3.817017   531A      3.819449   532A      3.827556  
     533A      3.841248   534A      3.842985   535A      3.853977  
     536A      3.860914   537A      3.867678   538A      3.887301  
     539A      3.900307   540A      3.903310   541A      3.908341  
     542A      3.925614   543A      3.931385   544A      3.937876  
     545A      3.950278   546A      3.955094   547A      3.971026  
     548A      3.974653   549A      3.978998   550A      3.992789  
     551A      3.997614   552A      4.008774   553A      4.016406  
     554A      4.020749   555A      4.029725   556A      4.037977  
     557A      4.047728   558A      4.050432   559A      4.054475  
     560A      4.062503   561A      4.071059   562A      4.079418  
     563A      4.095390   564A      4.100240   565A      4.119787  
     566A      4.124771   567A      4.138178   568A      4.152544  
     569A      4.159677   570A      4.175311   571A      4.188855  
     572A      4.190953   573A      4.203994   574A      4.209085  
     575A      4.218166   576A      4.221276   577A      4.225421  
     578A      4.245861   579A      4.252470   580A      4.270048  
     581A      4.275674   582A      4.289231   583A      4.302283  
     584A      4.306413   585A      4.311473   586A      4.318917  
     587A      4.331233   588A      4.343064   589A      4.346913  
     590A      4.360125   591A      4.372947   592A      4.383857  
     593A      4.394550   594A      4.397403   595A      4.404873  
     596A      4.410969   597A      4.414922   598A      4.436051  
     599A      4.451173   600A      4.457764   601A      4.467131  
     602A      4.477828   603A      4.486077   604A      4.500395  
     605A      4.505339   606A      4.521791   607A      4.530504  
     608A      4.538606   609A      4.553413   610A      4.565817  
     611A      4.579428   612A      4.598258   613A      4.608962  
     614A      4.617085   615A      4.625871   616A      4.636193  
     617A      4.646209   618A      4.663901   619A      4.680565  
     620A      4.688286   621A      4.694632   622A      4.711519  
     623A      4.724601   624A      4.732632   625A      4.740910  
     626A      4.768555   627A      4.777547   628A      4.790468  
     629A      4.807875   630A      4.811070   631A      4.830523  
     632A      4.835141   633A      4.843497   634A      4.856561  
     635A      4.875827   636A      4.887582   637A      4.892316  
     638A      4.902290   639A      4.916816   640A      4.924600  
     641A      4.929512   642A      4.933049   643A      4.948824  
     644A      4.953339   645A      4.971070   646A      4.987850  
     647A      4.993067   648A      5.000056   649A      5.010179  
     650A      5.021150   651A      5.044401   652A      5.055574  
     653A      5.067462   654A      5.079882   655A      5.094131  
     656A      5.107084   657A      5.114838   658A      5.125905  
     659A      5.127998   660A      5.161254   661A      5.162727  
     662A      5.176692   663A      5.187299   664A      5.202665  
     665A      5.214644   666A      5.228067   667A      5.246208  
     668A      5.259213   669A      5.269302   670A      5.279480  
     671A      5.285694   672A      5.300468   673A      5.304407  
     674A      5.312144   675A      5.322991   676A      5.356378  
     677A      5.377761   678A      5.398249   679A      5.409002  
     680A      5.431096   681A      5.441073   682A      5.450170  
     683A      5.463511   684A      5.476221   685A      5.498278  
     686A      5.518021   687A      5.526238   688A      5.534392  
     689A      5.562112   690A      5.568182   691A      5.604533  
     692A      5.611834   693A      5.626778   694A      5.653698  
     695A      5.671303   696A      5.687116   697A      5.701068  
     698A      5.713110   699A      5.723578   700A      5.749810  
     701A      5.758041   702A      5.773200   703A      5.783527  
     704A      5.821654   705A      5.833170   706A      5.851964  
     707A      5.894407   708A      5.956563   709A      5.973216  
     710A      5.992895   711A      6.007645   712A      6.022920  
     713A      6.062630   714A      6.081968   715A      6.124728  
     716A      6.154294   717A      6.176042   718A      6.196448  
     719A      6.201747   720A      6.216777   721A      6.241199  
     722A      6.242684   723A      6.258829   724A      6.296578  
     725A      6.307381   726A      6.336936   727A      6.342135  
     728A      6.361963   729A      6.405390   730A      6.455575  
     731A      6.492709   732A      6.523593   733A      6.581883  
     734A      6.632442   735A      6.753308   736A      6.776416  
     737A      6.788157   738A      6.797429   739A      6.838992  
     740A      6.847513   741A      6.873272   742A      6.903084  
     743A      6.939794   744A      6.950271   745A      7.028526  
     746A      7.065984   747A      7.088548   748A      7.164118  
     749A      7.793312   750A     16.136969   751A     16.731024  
     752A     17.371426   753A     18.414922   754A     18.592254  
     755A     18.910076   756A     19.454572   757A     19.779711  
     758A     20.955689   759A     21.257015  

    Final Occupation by Irrep:
              A 
    DOCC [    37 ]

  @DF-RHF Final Energy:  -402.93880696013491

   => Energetics <=

    Nuclear Repulsion Energy =            520.7373861577168555
    One-Electron Energy =               -1577.5556583475740808
    Two-Electron Energy =                 653.8794652297223138
    Total Energy =                       -402.9388069601349116

Computation Completed

*** tstop() called on node144.bme.utexas.edu at Sat Mar 27 23:23:51 2021
Module time:
	user time   =     684.26 seconds =      11.40 minutes
	system time =      81.34 seconds =       1.36 minutes
	total time  =        157 seconds =       2.62 minutes
Total time:
	user time   =     684.26 seconds =      11.40 minutes
	system time =      81.34 seconds =       1.36 minutes
	total time  =        157 seconds =       2.62 minutes
   => Loading Basis Set <=

    Name: (AUG-CC-PVTZ AUX)
    Role: RIFIT
    Keyword: DF_BASIS_MP2
    atoms 1     entry N          line   206 file /home/xy3866/psi4conda/share/psi4/basis/aug-cc-pvtz-ri.gbs 
    atoms 2-10  entry C          line   148 file /home/xy3866/psi4conda/share/psi4/basis/aug-cc-pvtz-ri.gbs 
    atoms 11-23 entry H          line    30 file /home/xy3866/psi4conda/share/psi4/basis/aug-cc-pvtz-ri.gbs 


*** tstart() called on node144.bme.utexas.edu
*** at Sat Mar 27 23:23:52 2021


  //>>>>>>>>>>>>>>>>>>>>>>>>>>>>>>>>>>>//
  //               DFMP2               //
  //<<<<<<<<<<<<<<<<<<<<<<<<<<<<<<<<<<<//

	 --------------------------------------------------------
	                          DF-MP2                         
	      2nd-Order Density-Fitted Moller-Plesset Theory     
	              RMP2 Wavefunction,   8 Threads             
	                                                         
	        Rob Parrish, Justin Turney, Andy Simmonett,      
	           Ed Hohenstein, and C. David Sherrill          
	 --------------------------------------------------------

   => Auxiliary Basis Set <=

  Basis Set: (AUG-CC-PVTZ AUX)
    Blend: AUG-CC-PVTZ-RI
    Number of shells: 462
    Number of basis function: 1658
    Number of Cartesian functions: 2075
    Spherical Harmonics?: true
    Max angular momentum: 4

	 --------------------------------------------------------
	                 NBF =   759, NAUX =  1658
	 --------------------------------------------------------
	   CLASS    FOCC     OCC    AOCC    AVIR     VIR    FVIR
	   PAIRS       0      37      37     722     722       0
	 --------------------------------------------------------

  DFHelper Memory: AOs need 6.849 GiB; user supplied 22.352 GiB. Using in-core AOs.


         ------------------------------------------------------------
                                     CPHF                           
                                  Rob Parrish                       
         ------------------------------------------------------------

  ==> Geometry <==

    Molecular point group: c1
    Full point group: C1

    Geometry (in Angstrom), charge = 0, multiplicity = 1:

       Center              X                  Y                   Z               Mass       
    ------------   -----------------  -----------------  -----------------  -----------------
         N            1.661888533709     0.622939114855    -0.481786612790    14.003074004430
         C            0.338154533709     0.162556114855    -0.219084612790    12.000000000000
         C           -0.735550466291     1.070079114855    -0.096654612790    12.000000000000
         C            0.157475433709    -1.214362985145     0.118589587210    12.000000000000
         C           -2.022860466291     0.572179114855     0.129210387210    12.000000000000
         C           -1.182549466291    -1.684934885145     0.121780387210    12.000000000000
         C           -2.249986466291    -0.798040885145     0.249667387210    12.000000000000
         C           -0.505636466291     2.556605114855    -0.211690612790    12.000000000000
         C            1.242284533709    -2.205803885145    -0.321719612790    12.000000000000
         C            2.537352533709     0.627160114855     0.697366387210    12.000000000000
         H           -2.853513466291     1.270034114855     0.222681387210     1.007825032230
         H           -1.358723466291    -2.757434885145     0.190580387210     1.007825032230
         H            1.626689533709     1.564097114855    -0.866455612790     1.007825032230
         H           -3.254548466291    -1.172181885145     0.432614387210     1.007825032230
         H            0.270171533709     2.902562114855     0.479967387210     1.007825032230
         H           -0.202970466291     2.850539114855    -1.224216612790     1.007825032230
         H           -1.424488466291     3.100803114855     0.021464387210     1.007825032230
         H            1.976625533709    -1.799658885145    -1.021870612790     1.007825032230
         H            1.761512533709    -2.427812885145     0.617672387210     1.007825032230
         H            0.858813533709    -3.152313885145    -0.713442612790     1.007825032230
         H            2.128597533709     1.197376114855     1.544714387210     1.007825032230
         H            3.502658533709     1.055832114855     0.414796387210     1.007825032230
         H            2.708512533709    -0.397629885145     1.029584387210     1.007825032230

  Nuclear repulsion =  520.737386157716855
  Reference energy  = -402.938806960134912

  ==> Basis Set <==

  Basis Set: AUG-CC-PVTZ
    Blend: AUG-CC-PVTZ
    Number of shells: 257
    Number of basis function: 759
    Number of Cartesian functions: 875
    Spherical Harmonics?: true
    Max angular momentum: 3

  ==> CGRSolver (by Rob Parrish) <==

   Number of roots    =         1
   Preconditioning    =    JACOBI
   Convergence cutoff =     1E-06
   Maximum iterations =       100

  ==> CPHFRHamiltonian (by Rob Parrish) <== 

  ==> MemDFJK: Density-Fitted J/K Matrices <==

    J tasked:                   Yes
    K tasked:                   Yes
    wK tasked:                   No
    OpenMP threads:               8
    Memory [MiB]:             22888
    Algorithm:                 Disk
    Schwarz Cutoff:           1E-12
    Mask sparsity (%):       4.9962
    Fitting Condition:        1E-10

   => Auxiliary Basis Set <=

  Basis Set: (AUG-CC-PVTZ AUX)
    Blend: AUG-CC-PVTZ-JKFIT
    Number of shells: 482
    Number of basis function: 1638
    Number of Cartesian functions: 2025
    Spherical Harmonics?: true
    Max angular momentum: 4

  ==> CPHF Iterations <==

  => Iterations <=

             Iter  Converged  Remaining    Residual
  CGR           1          0          1   7.868E-02
  CGR           2          0          1   1.967E-02
  CGR           3          0          1   9.372E-03
  CGR           4          0          1   4.101E-03
  CGR           5          0          1   1.912E-03
  CGR           6          0          1   1.032E-03
  CGR           7          0          1   3.349E-04
  CGR           8          0          1   1.153E-04
  CGR           9          0          1   3.747E-05
  CGR          10          0          1   1.192E-05
  CGR          11          0          1   4.840E-06
  CGR          12          0          1   1.409E-06
  CGR          13          1          0   4.885E-07

    CGRSolver converged.

	-----------------------------------------------------------
	 ==================> DF-MP2 Energies <==================== 
	-----------------------------------------------------------
	 Reference Energy          =    -402.9388069601349116 [Eh]
	 Singles Energy            =      -0.0000000000000000 [Eh]
	 Same-Spin Energy          =      -0.4491664000477674 [Eh]
	 Opposite-Spin Energy      =      -1.4690777882134758 [Eh]
	 Correlation Energy        =      -1.9182441882612431 [Eh]
	 Total Energy              =    -404.8570511483961809 [Eh]
	-----------------------------------------------------------
	 ================> DF-SCS-MP2 Energies <================== 
	-----------------------------------------------------------
	 SCS Same-Spin Scale       =       0.3333333333333333 [-]
	 SCS Opposite-Spin Scale   =       1.2000000000000000 [-]
	 SCS Same-Spin Energy      =      -0.1497221333492558 [Eh]
	 SCS Opposite-Spin Energy  =      -1.7628933458561709 [Eh]
	 SCS Correlation Energy    =      -1.9126154792054266 [Eh]
	 SCS Total Energy          =    -404.8514224393403538 [Eh]
	-----------------------------------------------------------



Properties will be evaluated at  -0.000000,  -0.000000,  -0.000000 [a0]

Properties computed using the MP2 density matrix

  Nuclear Dipole Moment: [e a0]
     X:     5.3756      Y:     2.0927      Z:     1.0589

  Electronic Dipole Moment: [e a0]
     X:    -5.1736      Y:    -1.6270      Z:    -0.8991

  Dipole Moment: [e a0]
     X:     0.2020      Y:     0.4657      Z:     0.1599     Total:     0.5322

  Dipole Moment: [D]
     X:     0.5135      Y:     1.1836      Z:     0.4064     Total:     1.3526


*** tstop() called on node144.bme.utexas.edu at Sat Mar 27 23:29:35 2021
Module time:
	user time   =    2053.85 seconds =      34.23 minutes
	system time =      87.56 seconds =       1.46 minutes
	total time  =        343 seconds =       5.72 minutes
Total time:
	user time   =    2738.37 seconds =      45.64 minutes
	system time =     168.90 seconds =       2.81 minutes
	total time  =        501 seconds =       8.35 minutes

    Psi4 stopped on: Saturday, 27 March 2021 11:29PM
    Psi4 wall time for execution: 0:08:21.16

*** Psi4 exiting successfully. Buy a developer a beer!
