061_MethylBenzene Gaussian SP Calculation on node35.bme.utexas.edu      
Freq      RMP2-FC                                                     6-31G(d)            
Number of atoms                            I               15
Info1-9                                    I   N=           9
          26          25        1002           0           0         100
           6           2           1
Charge                                     I                0
Multiplicity                               I                1
Number of electrons                        I               50
Number of alpha electrons                  I               25
Number of beta electrons                   I               25
Number of basis functions                  I              121
Number of independent functions            I              121
Number of point charges in /Mol/           I                0
Number of translation vectors              I                0
Atomic numbers                             I   N=          15
           6           6           6           6           6           6
           6           1           1           1           1           1
           1           1           1
Nuclear charges                            R   N=          15
  6.00000000E+00  6.00000000E+00  6.00000000E+00  6.00000000E+00  6.00000000E+00
  6.00000000E+00  6.00000000E+00  1.00000000E+00  1.00000000E+00  1.00000000E+00
  1.00000000E+00  1.00000000E+00  1.00000000E+00  1.00000000E+00  1.00000000E+00
Current cartesian coordinates              R   N=          45
 -4.57419168E+00 -5.48593739E-08  2.23467159E-02  3.59553234E+00 -1.15129399E-06
  1.77356053E-02  2.26699919E+00 -2.27957198E+00  3.52893297E-03  2.26700094E+00
  2.27957056E+00  3.52881865E-03 -3.70757580E-01 -2.27326968E+00 -1.55309686E-02
 -3.70756303E-01  2.27327121E+00 -1.55308319E-02 -1.72653439E+00  1.34292995E-06
 -3.12336894E-02  5.65017783E+00 -4.52510958E-07  2.73727735E-02  3.28478898E+00
 -4.06523147E+00  5.77996095E-03  3.28479217E+00  4.06522924E+00  5.77923487E-03
 -1.39297489E+00 -4.05927321E+00 -3.46336356E-02 -1.39297146E+00  4.05927586E+00
 -3.46330114E-02 -5.33614211E+00 -1.67285706E+00 -9.22726477E-01 -5.33614268E+00
  1.67289370E+00 -9.22660925E-01 -5.28528290E+00 -3.81643286E-05  1.96665458E+00
Force Field                                I                0
Int Atom Types                             I   N=          15
           0           0           0           0           0           0
           0           0           0           0           0           0
           0           0           0
MM charges                                 R   N=          15
  0.00000000E+00  0.00000000E+00  0.00000000E+00  0.00000000E+00  0.00000000E+00
  0.00000000E+00  0.00000000E+00  0.00000000E+00  0.00000000E+00  0.00000000E+00
  0.00000000E+00  0.00000000E+00  0.00000000E+00  0.00000000E+00  0.00000000E+00
Integer atomic weights                     I   N=          15
          12          12          12          12          12          12
          12           1           1           1           1           1
           1           1           1
Real atomic weights                        R   N=          15
  1.20000000E+01  1.20000000E+01  1.20000000E+01  1.20000000E+01  1.20000000E+01
  1.20000000E+01  1.20000000E+01  1.00782504E+00  1.00782504E+00  1.00782504E+00
  1.00782504E+00  1.00782504E+00  1.00782504E+00  1.00782504E+00  1.00782504E+00
Atom fragment info                         I   N=          15
           0           0           0           0           0           0
           0           0           0           0           0           0
           0           0           0
Atom residue num                           I   N=          15
           0           0           0           0           0           0
           0           0           0           0           0           0
           0           0           0
Nuclear spins                              I   N=          15
           0           0           0           0           0           0
           0           1           1           1           1           1
           1           1           1
Nuclear ZEff                               R   N=          15
 -3.60000000E+00 -3.60000000E+00 -3.60000000E+00 -3.60000000E+00 -3.60000000E+00
 -3.60000000E+00 -3.60000000E+00 -1.00000000E+00 -1.00000000E+00 -1.00000000E+00
 -1.00000000E+00 -1.00000000E+00 -1.00000000E+00 -1.00000000E+00 -1.00000000E+00
Nuclear QMom                               R   N=          15
  0.00000000E+00  0.00000000E+00  0.00000000E+00  0.00000000E+00  0.00000000E+00
  0.00000000E+00  0.00000000E+00  0.00000000E+00  0.00000000E+00  0.00000000E+00
  0.00000000E+00  0.00000000E+00  0.00000000E+00  0.00000000E+00  0.00000000E+00
Nuclear GFac                               R   N=          15
  0.00000000E+00  0.00000000E+00  0.00000000E+00  0.00000000E+00  0.00000000E+00
  0.00000000E+00  0.00000000E+00  2.79284600E+00  2.79284600E+00  2.79284600E+00
  2.79284600E+00  2.79284600E+00  2.79284600E+00  2.79284600E+00  2.79284600E+00
MicOpt                                     I   N=          15
          -1          -1          -1          -1          -1          -1
          -1          -1          -1          -1          -1          -1
          -1          -1          -1
Number of contracted shells                I               44
Number of primitive shells                 I              109
Pure/Cartesian d shells                    I                1
Pure/Cartesian f shells                    I                0
Highest angular momentum                   I                2
Largest degree of contraction              I                6
Shell types                                I   N=          44
           0          -1          -1           2           0          -1
          -1           2           0          -1          -1           2
           0          -1          -1           2           0          -1
          -1           2           0          -1          -1           2
           0          -1          -1           2           0           0
           0           0           0           0           0           0
           0           0           0           0           0           0
           0           0
Number of primitives per shell             I   N=          44
           6           3           1           1           6           3
           1           1           6           3           1           1
           6           3           1           1           6           3
           1           1           6           3           1           1
           6           3           1           1           3           1
           3           1           3           1           3           1
           3           1           3           1           3           1
           3           1
Shell to atom map                          I   N=          44
           1           1           1           1           2           2
           2           2           3           3           3           3
           4           4           4           4           5           5
           5           5           6           6           6           6
           7           7           7           7           8           8
           9           9          10          10          11          11
          12          12          13          13          14          14
          15          15
Primitive exponents                        R   N=         109
  3.04752488E+03  4.57369518E+02  1.03948685E+02  2.92101553E+01  9.28666296E+00
  3.16392696E+00  7.86827235E+00  1.88128854E+00  5.44249258E-01  1.68714478E-01
  8.00000000E-01  3.04752488E+03  4.57369518E+02  1.03948685E+02  2.92101553E+01
  9.28666296E+00  3.16392696E+00  7.86827235E+00  1.88128854E+00  5.44249258E-01
  1.68714478E-01  8.00000000E-01  3.04752488E+03  4.57369518E+02  1.03948685E+02
  2.92101553E+01  9.28666296E+00  3.16392696E+00  7.86827235E+00  1.88128854E+00
  5.44249258E-01  1.68714478E-01  8.00000000E-01  3.04752488E+03  4.57369518E+02
  1.03948685E+02  2.92101553E+01  9.28666296E+00  3.16392696E+00  7.86827235E+00
  1.88128854E+00  5.44249258E-01  1.68714478E-01  8.00000000E-01  3.04752488E+03
  4.57369518E+02  1.03948685E+02  2.92101553E+01  9.28666296E+00  3.16392696E+00
  7.86827235E+00  1.88128854E+00  5.44249258E-01  1.68714478E-01  8.00000000E-01
  3.04752488E+03  4.57369518E+02  1.03948685E+02  2.92101553E+01  9.28666296E+00
  3.16392696E+00  7.86827235E+00  1.88128854E+00  5.44249258E-01  1.68714478E-01
  8.00000000E-01  3.04752488E+03  4.57369518E+02  1.03948685E+02  2.92101553E+01
  9.28666296E+00  3.16392696E+00  7.86827235E+00  1.88128854E+00  5.44249258E-01
  1.68714478E-01  8.00000000E-01  1.87311370E+01  2.82539436E+00  6.40121692E-01
  1.61277759E-01  1.87311370E+01  2.82539436E+00  6.40121692E-01  1.61277759E-01
  1.87311370E+01  2.82539436E+00  6.40121692E-01  1.61277759E-01  1.87311370E+01
  2.82539436E+00  6.40121692E-01  1.61277759E-01  1.87311370E+01  2.82539436E+00
  6.40121692E-01  1.61277759E-01  1.87311370E+01  2.82539436E+00  6.40121692E-01
  1.61277759E-01  1.87311370E+01  2.82539436E+00  6.40121692E-01  1.61277759E-01
  1.87311370E+01  2.82539436E+00  6.40121692E-01  1.61277759E-01
Contraction coefficients                   R   N=         109
  1.83473713E-03  1.40373228E-02  6.88426223E-02  2.32184443E-01  4.67941348E-01
  3.62311985E-01 -1.19332420E-01 -1.60854152E-01  1.14345644E+00  1.00000000E+00
  1.00000000E+00  1.83473713E-03  1.40373228E-02  6.88426223E-02  2.32184443E-01
  4.67941348E-01  3.62311985E-01 -1.19332420E-01 -1.60854152E-01  1.14345644E+00
  1.00000000E+00  1.00000000E+00  1.83473713E-03  1.40373228E-02  6.88426223E-02
  2.32184443E-01  4.67941348E-01  3.62311985E-01 -1.19332420E-01 -1.60854152E-01
  1.14345644E+00  1.00000000E+00  1.00000000E+00  1.83473713E-03  1.40373228E-02
  6.88426223E-02  2.32184443E-01  4.67941348E-01  3.62311985E-01 -1.19332420E-01
 -1.60854152E-01  1.14345644E+00  1.00000000E+00  1.00000000E+00  1.83473713E-03
  1.40373228E-02  6.88426223E-02  2.32184443E-01  4.67941348E-01  3.62311985E-01
 -1.19332420E-01 -1.60854152E-01  1.14345644E+00  1.00000000E+00  1.00000000E+00
  1.83473713E-03  1.40373228E-02  6.88426223E-02  2.32184443E-01  4.67941348E-01
  3.62311985E-01 -1.19332420E-01 -1.60854152E-01  1.14345644E+00  1.00000000E+00
  1.00000000E+00  1.83473713E-03  1.40373228E-02  6.88426223E-02  2.32184443E-01
  4.67941348E-01  3.62311985E-01 -1.19332420E-01 -1.60854152E-01  1.14345644E+00
  1.00000000E+00  1.00000000E+00  3.34946043E-02  2.34726953E-01  8.13757326E-01
  1.00000000E+00  3.34946043E-02  2.34726953E-01  8.13757326E-01  1.00000000E+00
  3.34946043E-02  2.34726953E-01  8.13757326E-01  1.00000000E+00  3.34946043E-02
  2.34726953E-01  8.13757326E-01  1.00000000E+00  3.34946043E-02  2.34726953E-01
  8.13757326E-01  1.00000000E+00  3.34946043E-02  2.34726953E-01  8.13757326E-01
  1.00000000E+00  3.34946043E-02  2.34726953E-01  8.13757326E-01  1.00000000E+00
  3.34946043E-02  2.34726953E-01  8.13757326E-01  1.00000000E+00
P(S=P) Contraction coefficients            R   N=         109
  0.00000000E+00  0.00000000E+00  0.00000000E+00  0.00000000E+00  0.00000000E+00
  0.00000000E+00  6.89990666E-02  3.16423961E-01  7.44308291E-01  1.00000000E+00
  0.00000000E+00  0.00000000E+00  0.00000000E+00  0.00000000E+00  0.00000000E+00
  0.00000000E+00  0.00000000E+00  6.89990666E-02  3.16423961E-01  7.44308291E-01
  1.00000000E+00  0.00000000E+00  0.00000000E+00  0.00000000E+00  0.00000000E+00
  0.00000000E+00  0.00000000E+00  0.00000000E+00  6.89990666E-02  3.16423961E-01
  7.44308291E-01  1.00000000E+00  0.00000000E+00  0.00000000E+00  0.00000000E+00
  0.00000000E+00  0.00000000E+00  0.00000000E+00  0.00000000E+00  6.89990666E-02
  3.16423961E-01  7.44308291E-01  1.00000000E+00  0.00000000E+00  0.00000000E+00
  0.00000000E+00  0.00000000E+00  0.00000000E+00  0.00000000E+00  0.00000000E+00
  6.89990666E-02  3.16423961E-01  7.44308291E-01  1.00000000E+00  0.00000000E+00
  0.00000000E+00  0.00000000E+00  0.00000000E+00  0.00000000E+00  0.00000000E+00
  0.00000000E+00  6.89990666E-02  3.16423961E-01  7.44308291E-01  1.00000000E+00
  0.00000000E+00  0.00000000E+00  0.00000000E+00  0.00000000E+00  0.00000000E+00
  0.00000000E+00  0.00000000E+00  6.89990666E-02  3.16423961E-01  7.44308291E-01
  1.00000000E+00  0.00000000E+00  0.00000000E+00  0.00000000E+00  0.00000000E+00
  0.00000000E+00  0.00000000E+00  0.00000000E+00  0.00000000E+00  0.00000000E+00
  0.00000000E+00  0.00000000E+00  0.00000000E+00  0.00000000E+00  0.00000000E+00
  0.00000000E+00  0.00000000E+00  0.00000000E+00  0.00000000E+00  0.00000000E+00
  0.00000000E+00  0.00000000E+00  0.00000000E+00  0.00000000E+00  0.00000000E+00
  0.00000000E+00  0.00000000E+00  0.00000000E+00  0.00000000E+00  0.00000000E+00
  0.00000000E+00  0.00000000E+00  0.00000000E+00  0.00000000E+00
Coordinates of each shell                  R   N=         132
 -4.57419168E+00 -5.48593740E-08  2.23467159E-02 -4.57419168E+00 -5.48593740E-08
  2.23467159E-02 -4.57419168E+00 -5.48593740E-08  2.23467159E-02 -4.57419168E+00
 -5.48593740E-08  2.23467159E-02  3.59553234E+00 -1.15129399E-06  1.77356053E-02
  3.59553234E+00 -1.15129399E-06  1.77356053E-02  3.59553234E+00 -1.15129399E-06
  1.77356053E-02  3.59553234E+00 -1.15129399E-06  1.77356053E-02  2.26699919E+00
 -2.27957198E+00  3.52893297E-03  2.26699919E+00 -2.27957198E+00  3.52893297E-03
  2.26699919E+00 -2.27957198E+00  3.52893297E-03  2.26699919E+00 -2.27957198E+00
  3.52893297E-03  2.26700094E+00  2.27957056E+00  3.52881865E-03  2.26700094E+00
  2.27957056E+00  3.52881865E-03  2.26700094E+00  2.27957056E+00  3.52881865E-03
  2.26700094E+00  2.27957056E+00  3.52881865E-03 -3.70757580E-01 -2.27326968E+00
 -1.55309686E-02 -3.70757580E-01 -2.27326968E+00 -1.55309686E-02 -3.70757580E-01
 -2.27326968E+00 -1.55309686E-02 -3.70757580E-01 -2.27326968E+00 -1.55309686E-02
 -3.70756303E-01  2.27327121E+00 -1.55308319E-02 -3.70756303E-01  2.27327121E+00
 -1.55308319E-02 -3.70756303E-01  2.27327121E+00 -1.55308319E-02 -3.70756303E-01
  2.27327121E+00 -1.55308319E-02 -1.72653439E+00  1.34292995E-06 -3.12336894E-02
 -1.72653439E+00  1.34292995E-06 -3.12336894E-02 -1.72653439E+00  1.34292995E-06
 -3.12336894E-02 -1.72653439E+00  1.34292995E-06 -3.12336894E-02  5.65017783E+00
 -4.52510958E-07  2.73727735E-02  5.65017783E+00 -4.52510958E-07  2.73727735E-02
  3.28478898E+00 -4.06523147E+00  5.77996095E-03  3.28478898E+00 -4.06523147E+00
  5.77996095E-03  3.28479217E+00  4.06522924E+00  5.77923487E-03  3.28479217E+00
  4.06522924E+00  5.77923487E-03 -1.39297489E+00 -4.05927321E+00 -3.46336356E-02
 -1.39297489E+00 -4.05927321E+00 -3.46336356E-02 -1.39297146E+00  4.05927586E+00
 -3.46330114E-02 -1.39297146E+00  4.05927586E+00 -3.46330114E-02 -5.33614211E+00
 -1.67285706E+00 -9.22726477E-01 -5.33614211E+00 -1.67285706E+00 -9.22726477E-01
 -5.33614268E+00  1.67289370E+00 -9.22660925E-01 -5.33614268E+00  1.67289370E+00
 -9.22660925E-01 -5.28528290E+00 -3.81643286E-05  1.96665458E+00 -5.28528290E+00
 -3.81643286E-05  1.96665458E+00
Constraint Structure                       R   N=          45
 -4.57419168E+00 -5.48593740E-08  2.23467159E-02  3.59553234E+00 -1.15129399E-06
  1.77356053E-02  2.26699919E+00 -2.27957198E+00  3.52893297E-03  2.26700094E+00
  2.27957056E+00  3.52881865E-03 -3.70757580E-01 -2.27326968E+00 -1.55309686E-02
 -3.70756303E-01  2.27327121E+00 -1.55308319E-02 -1.72653439E+00  1.34292995E-06
 -3.12336894E-02  5.65017783E+00 -4.52510958E-07  2.73727735E-02  3.28478898E+00
 -4.06523147E+00  5.77996095E-03  3.28479217E+00  4.06522924E+00  5.77923487E-03
 -1.39297489E+00 -4.05927321E+00 -3.46336356E-02 -1.39297146E+00  4.05927586E+00
 -3.46330114E-02 -5.33614211E+00 -1.67285706E+00 -9.22726477E-01 -5.33614268E+00
  1.67289370E+00 -9.22660925E-01 -5.28528290E+00 -3.81643286E-05  1.96665458E+00
Num ILSW                                   I              100
ILSW                                       I   N=         100
           0           1           0           0           2           0
           0           0           0           0           0          -1
           0           0           0           0           0           0
           0           0           0           0           1           0
           1           0           0           0           0           0
           0           0      100000           0          -1           0
           0           0           0           0           0           0
           0           0           0           1           1           0
           0           0           1           0           0           0
           0           0           4          40           0           0
           0           0           0           0           0           0
           0           0           0           0           0           0
           0           0           0           0           0           0
           0           0           0           0           0           0
           0           0           0           0           0           0
           0           0           0           0           0           0
           0           0           0           0
Num RLSW                                   I               40
RLSW                                       R   N=          40
  1.00000000E+00  1.00000000E+00  1.00000000E+00  1.00000000E+00  1.00000000E+00
  0.00000000E+00  0.00000000E+00  1.00000000E+00  0.00000000E+00  0.00000000E+00
  0.00000000E+00  0.00000000E+00  1.00000000E+00  0.00000000E+00  0.00000000E+00
  0.00000000E+00  0.00000000E+00  1.00000000E+00  0.00000000E+00  0.00000000E+00
  0.00000000E+00  0.00000000E+00  1.00000000E+00  0.00000000E+00  0.00000000E+00
  0.00000000E+00  0.00000000E+00  1.00000000E+00  0.00000000E+00  0.00000000E+00
  0.00000000E+00  0.00000000E+00  0.00000000E+00  0.00000000E+00  0.00000000E+00
  0.00000000E+00  0.00000000E+00  0.00000000E+00  1.00000000E+00  1.00000000E+00
MxBond                                     I                4
NBond                                      I   N=          15
           4           3           3           3           3           3
           3           1           1           1           1           1
           1           1           1
IBond                                      I   N=          60
           7          13          14          15           3           4
           8           0           2           5           9           0
           2           6          10           0           3           7
          11           0           4           7          12           0
           1           5           6           0           2           0
           0           0           3           0           0           0
           4           0           0           0           5           0
           0           0           6           0           0           0
           1           0           0           0           1           0
           0           0           1           0           0           0
RBond                                      R   N=          60
  1.00000000E+00  1.00000000E+00  1.00000000E+00  1.00000000E+00  1.50000000E+00
  1.50000000E+00  1.00000000E+00  0.00000000E+00  1.50000000E+00  1.50000000E+00
  1.00000000E+00  0.00000000E+00  1.50000000E+00  1.50000000E+00  1.00000000E+00
  0.00000000E+00  1.50000000E+00  1.50000000E+00  1.00000000E+00  0.00000000E+00
  1.50000000E+00  1.50000000E+00  1.00000000E+00  0.00000000E+00  1.00000000E+00
  1.50000000E+00  1.50000000E+00  0.00000000E+00  1.00000000E+00  0.00000000E+00
  0.00000000E+00  0.00000000E+00  1.00000000E+00  0.00000000E+00  0.00000000E+00
  0.00000000E+00  1.00000000E+00  0.00000000E+00  0.00000000E+00  0.00000000E+00
  1.00000000E+00  0.00000000E+00  0.00000000E+00  0.00000000E+00  1.00000000E+00
  0.00000000E+00  0.00000000E+00  0.00000000E+00  1.00000000E+00  0.00000000E+00
  0.00000000E+00  0.00000000E+00  1.00000000E+00  0.00000000E+00  0.00000000E+00
  0.00000000E+00  1.00000000E+00  0.00000000E+00  0.00000000E+00  0.00000000E+00
Virial Ratio                               R      2.001879837408779E+00
SCF Energy                                 R     -2.697387352449150E+02
MP2 Energy                                 R     -2.706284402290163E+02
Total Energy                               R     -2.706284402290163E+02
Post-SCF wavefunction norm                 R      1.627957760468532E+00
RMS Force                                  R      2.132850164080844E-07
RMS Density                                R      2.690610877796137E-09
External E-field                           R   N=          35
  0.00000000E+00  0.00000000E+00  0.00000000E+00  0.00000000E+00  0.00000000E+00
  0.00000000E+00  0.00000000E+00  0.00000000E+00  0.00000000E+00  0.00000000E+00
  0.00000000E+00  0.00000000E+00  0.00000000E+00  0.00000000E+00  0.00000000E+00
  0.00000000E+00  0.00000000E+00  0.00000000E+00  0.00000000E+00  0.00000000E+00
  0.00000000E+00  0.00000000E+00  0.00000000E+00  0.00000000E+00  0.00000000E+00
  0.00000000E+00  0.00000000E+00  0.00000000E+00  0.00000000E+00  0.00000000E+00
  0.00000000E+00  0.00000000E+00  0.00000000E+00  0.00000000E+00  0.00000000E+00
IOpCl                                      I                0
IROHF                                      I                0
Alpha Orbital Energies                     R   N=         121
 -1.12386861E+01 -1.12318973E+01 -1.12317210E+01 -1.12282167E+01 -1.12274903E+01
 -1.12274157E+01 -1.12230384E+01 -1.14423698E+00 -1.03825935E+00 -1.00428918E+00
 -9.27355299E-01 -8.17930289E-01 -7.90924513E-01 -6.85487352E-01 -6.26524489E-01
 -6.25509470E-01 -5.77039605E-01 -5.72719368E-01 -5.60782802E-01 -5.35191553E-01
 -4.81841937E-01 -4.80885313E-01 -4.80195317E-01 -3.27368845E-01 -3.17170007E-01
  1.46962451E-01  1.48843687E-01  2.37290298E-01  2.62964868E-01  2.84980127E-01
  3.05430776E-01  3.21732153E-01  3.25237959E-01  3.41559329E-01  3.43472688E-01
  3.89577275E-01  4.09442768E-01  4.82038192E-01  4.90934996E-01  5.19120550E-01
  5.25912141E-01  6.43142580E-01  7.26216705E-01  7.43818591E-01  7.60382396E-01
  7.62467326E-01  7.79864056E-01  7.91399175E-01  8.34617142E-01  8.36456321E-01
  8.46538875E-01  8.47814711E-01  8.57971084E-01  8.88171922E-01  9.05870054E-01
  9.54627989E-01  9.71290438E-01  1.00169437E+00  1.02778183E+00  1.10494403E+00
  1.11211220E+00  1.12346851E+00  1.12543270E+00  1.15181096E+00  1.17506168E+00
  1.18572871E+00  1.20075997E+00  1.21412257E+00  1.23956259E+00  1.27568729E+00
  1.31527757E+00  1.35459181E+00  1.38207925E+00  1.44047770E+00  1.45177652E+00
  1.52131222E+00  1.61254446E+00  1.65137480E+00  1.70415168E+00  1.72344663E+00
  1.73994074E+00  1.76842357E+00  1.78104151E+00  1.80076851E+00  2.08701435E+00
  2.10614680E+00  2.13690414E+00  2.17663278E+00  2.19451806E+00  2.20576167E+00
  2.23989612E+00  2.30981265E+00  2.38515311E+00  2.40546039E+00  2.44178768E+00
  2.45960990E+00  2.49023343E+00  2.50720319E+00  2.59306957E+00  2.59954883E+00
  2.64302219E+00  2.66133995E+00  2.69786869E+00  2.76097697E+00  2.90698991E+00
  2.91594181E+00  3.00673592E+00  3.07756444E+00  3.10072403E+00  3.10629099E+00
  3.13605001E+00  3.21268077E+00  3.43033223E+00  3.79084906E+00  4.51819152E+00
  4.54493791E+00  4.54992092E+00  4.66460176E+00  4.75906287E+00  4.82210536E+00
  5.12454495E+00
Alpha MO coefficients                      R   N=       14641
  2.03317063E-02  7.81304382E-04 -1.19859277E-04 -4.13753719E-09  7.00000512E-05
  2.02384905E-03  1.32357404E-03  3.08310566E-08 -3.86525843E-04 -6.20239107E-04
 -1.63177318E-04 -6.71438926E-05  6.09494923E-10  1.85999054E-05 -5.19055984E-10
 -6.20160310E-04 -1.38283900E-04  2.99117497E-05  3.67925603E-10 -1.81852559E-07
  1.59537902E-03 -9.12814406E-04  3.52047580E-09 -6.63605992E-06 -9.66209657E-06
 -2.93634335E-06 -5.36988865E-05 -1.96246039E-10  7.27946886E-07 -1.48784243E-11
  3.62816542E-03  6.28529416E-05  4.03860782E-06 -2.43374510E-06  5.76075409E-07
 -1.36672613E-03  2.61235892E-04 -8.23909691E-04 -2.17971641E-06  9.33086992E-05
  2.84108829E-05  1.62071014E-06 -3.34718486E-05  9.65693712E-07 -9.78688627E-07
  3.62815683E-03  6.28534993E-05  4.03909910E-06  2.43306867E-06  5.76038813E-07
 -1.36673008E-03  2.61234316E-04  8.23920846E-04 -2.17953013E-06  9.33085006E-05
  2.84108700E-05  1.62108116E-06  3.34718913E-05  9.65635534E-07  9.78694057E-07
  5.11901591E-02  1.25051534E-03  7.46645209E-05 -1.72184719E-04  3.77048780E-06
  4.47479903E-03 -5.21819024E-04  1.92696537E-03 -3.34008955E-06 -4.51830943E-04
 -5.41910112E-04 -2.40023323E-04  1.34876786E-04 -3.69407756E-06  4.28278673E-06
  5.11903100E-02  1.25051633E-03  7.46640566E-05  1.72184874E-04  3.77068445E-06
  4.47483572E-03 -5.21834306E-04 -1.92698773E-03 -3.34102524E-06 -4.51830674E-04
 -5.41909721E-04 -2.40024213E-04 -1.34875595E-04 -3.69402269E-06 -4.28279169E-06
  9.92816043E-01  2.74663495E-02 -1.49994852E-05 -4.74716504E-10  3.03052819E-05
 -1.45162039E-02 -8.47313004E-04 -2.76660289E-08 -1.73064894E-05 -1.58557857E-03
 -1.38668002E-03 -2.20107356E-03  4.98092027E-10 -1.92763390E-05 -2.74089261E-11
  2.28444403E-05  2.30123736E-04 -3.37839472E-05 -1.16382167E-04 -3.37846255E-05
 -1.16385176E-04 -5.60237460E-05  1.06245756E-04 -5.60245547E-05  1.06250379E-04
 -9.23209025E-05  2.64369347E-05 -9.23192202E-05  2.64028689E-05 -1.58752016E-04
  6.51240157E-04 -5.41654883E-04 -1.11812406E-04 -5.51042239E-06  4.86455333E-10
 -7.40432319E-06  1.71833328E-04  1.32603159E-04 -1.99628293E-08  6.60998775E-05
  1.13668928E-05 -1.63942699E-05 -2.84259886E-05 -3.13797374E-09 -6.89745830E-07
  9.72214098E-10  2.25915820E-01  5.94015863E-03  1.31386473E-04  1.40724195E-08
 -5.14323481E-07  4.98138769E-03 -2.77168916E-03 -1.44145458E-07 -1.87924715E-05
 -7.92110696E-04 -1.00970921E-03 -7.24311658E-04 -9.00194556E-09 -7.08274032E-07
 -1.38137010E-10  6.79848591E-01  1.88508380E-02 -7.55580959E-05  7.38410755E-05
  3.81311879E-07 -1.01819657E-02  1.26231452E-03 -1.80563416E-03  5.54471677E-07
 -1.16223734E-03 -1.18708674E-03 -1.61849647E-03  8.07533200E-05  4.38893821E-06
  8.54298626E-07  6.79734918E-01  1.88476723E-02 -7.55492083E-05 -7.38163308E-05
  3.81319479E-07 -1.01805647E-02  1.26224983E-03  1.80545964E-03  5.53638530E-07
 -1.16204816E-03 -1.18687407E-03 -1.61822756E-03 -8.07395835E-05  4.38830927E-06
 -8.54125305E-07  8.80227290E-02  2.16645174E-03 -1.31934344E-04 -3.55918875E-05
 -1.53463388E-06  3.85875967E-03  1.78520991E-03  1.31318061E-03  2.42629135E-05
 -4.48874496E-04 -3.31915633E-04 -3.43202487E-04  2.63033889E-05 -8.24988103E-07
  1.03935443E-06  8.80073896E-02  2.16604049E-03 -1.31916169E-04  3.55939712E-05
 -1.53470933E-06  3.85841060E-03  1.78505095E-03 -1.31312014E-03  2.42622210E-05
 -4.48793605E-04 -3.31856330E-04 -3.43156244E-04 -2.62988370E-05 -8.24750279E-07
 -1.03930642E-06 -1.39771214E-02 -4.22267964E-04 -5.70421188E-05  8.70294719E-10
  1.95441483E-06 -1.99654342E-03 -9.56264839E-04  2.87793643E-08 -4.14841823E-05
  6.42366259E-05  4.47522320E-05  3.01822604E-05 -3.47145969E-09  2.83248240E-06
  1.75454320E-11 -5.76516360E-05  8.43024333E-04 -1.77201505E-04  8.73630783E-04
 -1.77178600E-04  8.73460116E-04 -2.63148235E-06  5.29818695E-04 -2.62315581E-06
  5.29788969E-04 -1.78011185E-05  3.35547214E-05 -1.77978618E-05  3.35652934E-05
 -2.47878495E-05 -5.06930918E-05 -4.71559169E-08 -9.21719276E-09 -3.77805099E-10
 -9.26722875E-07 -5.73775728E-10  1.55891527E-08  1.10283717E-08  1.85250259E-04
  5.17010189E-09  9.38858131E-10 -8.08609587E-10 -2.88780229E-09  3.77210438E-05
 -5.72187130E-11 -1.12169543E-05  1.93878182E-05  5.11077610E-07  1.02538751E-08
 -1.75646294E-04 -6.88371827E-11  3.85537262E-07 -2.19622614E-07  1.75876773E-03
 -1.50327298E-09 -6.59178024E-08 -8.33558296E-08 -6.11537513E-08  1.08322827E-04
 -3.50571960E-11  1.80191749E-06 -6.96818705E-01 -1.93983182E-02  5.83337935E-05
 -1.46474967E-04  4.06514589E-07  8.52167648E-03 -3.88872378E-04  1.03025368E-03
 -3.98510591E-06  1.16278438E-03  1.30269743E-03  1.64867495E-03 -8.55434985E-05
 -3.40171179E-06 -1.69149236E-06  6.96929016E-01  1.94013753E-02 -5.83467879E-05
 -1.46485630E-04 -4.06496158E-07 -8.52330256E-03  3.89072952E-04  1.03053655E-03
  3.98511528E-06 -1.16297440E-03 -1.30289097E-03 -1.64893800E-03 -8.55566156E-05
  3.40233428E-06 -1.69172382E-06 -9.98589946E-02 -2.69047383E-03  1.08582495E-04
 -1.35020006E-05 -2.40562953E-07 -1.99466755E-03 -9.57590459E-04 -3.43322322E-04
 -3.25853923E-06  5.10462663E-04  3.73280770E-04  2.96726880E-04 -2.74037643E-05
  1.43949658E-06 -1.54056015E-07  9.98742187E-02  2.69085200E-03 -1.08603456E-04
 -1.34961860E-05  2.40319203E-07  1.99526693E-03  9.57872742E-04 -3.43530420E-04
  3.26235313E-06 -5.10537328E-04 -3.73335585E-04 -2.96784809E-04 -2.74078567E-05
 -1.43961544E-06 -1.54202038E-07 -1.19157846E-06 -3.63334535E-08 -4.89307668E-09
 -1.35297747E-05  1.79938982E-10 -1.53943071E-07 -7.23656452E-08 -2.68941112E-04
 -3.37997590E-09  5.10990077E-09  3.34807499E-09  2.42290361E-09  4.26858049E-05
  2.17139569E-10 -5.95355320E-08 -4.89194046E-09  6.94913447E-08  1.39440224E-04
 -1.05450371E-03 -1.39468990E-04  1.05464736E-03  5.27110080E-05 -1.85031877E-04
 -5.27120694E-05  1.85118943E-04  1.72575620E-05  3.86361080E-05 -1.72606453E-05
 -3.86322067E-05 -1.54427632E-09 -3.24103439E-09  1.25962174E-03  6.38589472E-05
  3.11057956E-05 -1.29748040E-10  5.41626723E-06  5.12139601E-04  1.61333849E-04
  2.75228270E-09 -5.38263870E-05 -1.82521495E-05 -1.91358115E-06  9.43581668E-06
 -3.07717352E-11 -1.81568642E-07  5.17267859E-11  9.59484146E-01  2.68416277E-02
 -2.77212450E-04 -4.07934118E-10 -9.29301141E-06 -1.62526485E-02  3.56508713E-03
 -1.71358448E-09  4.10245859E-05 -1.65040925E-03 -1.30974948E-03 -2.20091913E-03
  8.32288126E-10  2.85591075E-06 -4.88745789E-11 -1.44043699E-01 -4.22518326E-03