1274251                                                                 
Freq      RMP2-FC                                                     6-31G(d)            
Number of atoms                            I               21
Info1-9                                    I   N=           9
          33          31        1002           0           0         100
           6           2           1
Charge                                     I                1
Multiplicity                               I                1
Number of electrons                        I               66
Number of alpha electrons                  I               33
Number of beta electrons                   I               33
Number of basis functions                  I              159
Number of independent functions            I              159
Number of point charges in /Mol/           I                0
Number of translation vectors              I                0
Atomic numbers                             I   N=          21
           7           6           6           6           6           6
           6           6           6           1           1           1
           1           1           1           1           1           1
           1           1           1
Nuclear charges                            R   N=          21
  7.00000000E+00  6.00000000E+00  6.00000000E+00  6.00000000E+00  6.00000000E+00
  6.00000000E+00  6.00000000E+00  6.00000000E+00  6.00000000E+00  1.00000000E+00
  1.00000000E+00  1.00000000E+00  1.00000000E+00  1.00000000E+00  1.00000000E+00
  1.00000000E+00  1.00000000E+00  1.00000000E+00  1.00000000E+00  1.00000000E+00
  1.00000000E+00
Current cartesian coordinates              R   N=          63
 -5.31735202E+00 -1.53774081E-04  2.48864859E-02 -2.50084364E+00 -6.93365959E-05
 -2.80973830E-02  1.37581892E+00  2.32487850E+00 -2.45395122E-02  1.37594378E+00
 -2.32480506E+00 -2.45256444E-02 -1.27099292E+00 -2.31762448E+00 -1.32083672E-02
 -1.27112237E+00  2.31754959E+00 -1.32222478E-02  2.64352593E+00  7.37876734E-05
 -2.03888960E-02  2.82375970E+00  4.77216879E+00  2.53811900E-02  2.82404163E+00
 -4.77200298E+00  2.53727628E-02 -2.31336439E+00 -4.09308109E+00 -2.61738149E-02
 -2.31358973E+00  4.09295051E+00 -2.61972101E-02  4.70154510E+00  1.28536309E-04
 -4.53884863E-02 -6.03896351E+00  1.56574374E+00 -8.76126420E-01 -6.03888719E+00
 -1.56581847E+00 -8.76592373E-01 -6.01456092E+00 -4.40533474E-04  1.84247344E+00
  1.65905091E+00  6.35059709E+00 -6.19111248E-01  3.46917789E+00  5.19591394E+00
  1.94438743E+00  4.49052832E+00  4.66304651E+00 -1.18866523E+00  4.49046998E+00
 -4.66296512E+00 -1.18915107E+00  1.65925214E+00 -6.35060074E+00 -6.18556118E-01
  3.47001934E+00 -5.19541079E+00  1.94426428E+00
Force Field                                I                0
Int Atom Types                             I   N=          21
           0           0           0           0           0           0
           0           0           0           0           0           0
           0           0           0           0           0           0
           0           0           0
MM charges                                 R   N=          21
  0.00000000E+00  0.00000000E+00  0.00000000E+00  0.00000000E+00  0.00000000E+00
  0.00000000E+00  0.00000000E+00  0.00000000E+00  0.00000000E+00  0.00000000E+00
  0.00000000E+00  0.00000000E+00  0.00000000E+00  0.00000000E+00  0.00000000E+00
  0.00000000E+00  0.00000000E+00  0.00000000E+00  0.00000000E+00  0.00000000E+00
  0.00000000E+00
Integer atomic weights                     I   N=          21
          14          12          12          12          12          12
          12          12          12           1           1           1
           1           1           1           1           1           1
           1           1           1
Real atomic weights                        R   N=          21
  1.40030740E+01  1.20000000E+01  1.20000000E+01  1.20000000E+01  1.20000000E+01
  1.20000000E+01  1.20000000E+01  1.20000000E+01  1.20000000E+01  1.00782504E+00
  1.00782504E+00  1.00782504E+00  1.00782504E+00  1.00782504E+00  1.00782504E+00
  1.00782504E+00  1.00782504E+00  1.00782504E+00  1.00782504E+00  1.00782504E+00
  1.00782504E+00
Atom fragment info                         I   N=          21
           0           0           0           0           0           0
           0           0           0           0           0           0
           0           0           0           0           0           0
           0           0           0
Atom residue num                           I   N=          21
           0           0           0           0           0           0
           0           0           0           0           0           0
           0           0           0           0           0           0
           0           0           0
Nuclear spins                              I   N=          21
           2           0           0           0           0           0
           0           0           0           1           1           1
           1           1           1           1           1           1
           1           1           1
Nuclear ZEff                               R   N=          21
 -4.55000000E+00 -3.60000000E+00 -3.60000000E+00 -3.60000000E+00 -3.60000000E+00
 -3.60000000E+00 -3.60000000E+00 -3.60000000E+00 -3.60000000E+00 -1.00000000E+00
 -1.00000000E+00 -1.00000000E+00 -1.00000000E+00 -1.00000000E+00 -1.00000000E+00
 -1.00000000E+00 -1.00000000E+00 -1.00000000E+00 -1.00000000E+00 -1.00000000E+00
 -1.00000000E+00
Nuclear QMom                               R   N=          21
  2.04400000E+00  0.00000000E+00  0.00000000E+00  0.00000000E+00  0.00000000E+00
  0.00000000E+00  0.00000000E+00  0.00000000E+00  0.00000000E+00  0.00000000E+00
  0.00000000E+00  0.00000000E+00  0.00000000E+00  0.00000000E+00  0.00000000E+00
  0.00000000E+00  0.00000000E+00  0.00000000E+00  0.00000000E+00  0.00000000E+00
  0.00000000E+00
Nuclear GFac                               R   N=          21
  4.03761000E-01  0.00000000E+00  0.00000000E+00  0.00000000E+00  0.00000000E+00
  0.00000000E+00  0.00000000E+00  0.00000000E+00  0.00000000E+00  2.79284600E+00
  2.79284600E+00  2.79284600E+00  2.79284600E+00  2.79284600E+00  2.79284600E+00
  2.79284600E+00  2.79284600E+00  2.79284600E+00  2.79284600E+00  2.79284600E+00
  2.79284600E+00
MicOpt                                     I   N=          21
          -1          -1          -1          -1          -1          -1
          -1          -1          -1          -1          -1          -1
          -1          -1          -1          -1          -1          -1
          -1          -1          -1
Number of contracted shells                I               60
Number of primitive shells                 I              147
Pure/Cartesian d shells                    I                1
Pure/Cartesian f shells                    I                0
Highest angular momentum                   I                2
Largest degree of contraction              I                6
Shell types                                I   N=          60
           0          -1          -1           2           0          -1
          -1           2           0          -1          -1           2
           0          -1          -1           2           0          -1
          -1           2           0          -1          -1           2
           0          -1          -1           2           0          -1
          -1           2           0          -1          -1           2
           0           0           0           0           0           0
           0           0           0           0           0           0
           0           0           0           0           0           0
           0           0           0           0           0           0
Number of primitives per shell             I   N=          60
           6           3           1           1           6           3
           1           1           6           3           1           1
           6           3           1           1           6           3
           1           1           6           3           1           1
           6           3           1           1           6           3
           1           1           6           3           1           1
           3           1           3           1           3           1
           3           1           3           1           3           1
           3           1           3           1           3           1
           3           1           3           1           3           1
Shell to atom map                          I   N=          60
           1           1           1           1           2           2
           2           2           3           3           3           3
           4           4           4           4           5           5
           5           5           6           6           6           6
           7           7           7           7           8           8
           8           8           9           9           9           9
          10          10          11          11          12          12
          13          13          14          14          15          15
          16          16          17          17          18          18
          19          19          20          20          21          21
Primitive exponents                        R   N=         147
  4.17351146E+03  6.27457911E+02  1.42902093E+02  4.02343293E+01  1.28202129E+01
  4.39043701E+00  1.16263619E+01  2.71627981E+00  7.72218397E-01  2.12031498E-01
  8.00000000E-01  3.04752488E+03  4.57369518E+02  1.03948685E+02  2.92101553E+01
  9.28666296E+00  3.16392696E+00  7.86827235E+00  1.88128854E+00  5.44249258E-01
  1.68714478E-01  8.00000000E-01  3.04752488E+03  4.57369518E+02  1.03948685E+02
  2.92101553E+01  9.28666296E+00  3.16392696E+00  7.86827235E+00  1.88128854E+00
  5.44249258E-01  1.68714478E-01  8.00000000E-01  3.04752488E+03  4.57369518E+02
  1.03948685E+02  2.92101553E+01  9.28666296E+00  3.16392696E+00  7.86827235E+00
  1.88128854E+00  5.44249258E-01  1.68714478E-01  8.00000000E-01  3.04752488E+03
  4.57369518E+02  1.03948685E+02  2.92101553E+01  9.28666296E+00  3.16392696E+00
  7.86827235E+00  1.88128854E+00  5.44249258E-01  1.68714478E-01  8.00000000E-01
  3.04752488E+03  4.57369518E+02  1.03948685E+02  2.92101553E+01  9.28666296E+00
  3.16392696E+00  7.86827235E+00  1.88128854E+00  5.44249258E-01  1.68714478E-01
  8.00000000E-01  3.04752488E+03  4.57369518E+02  1.03948685E+02  2.92101553E+01
  9.28666296E+00  3.16392696E+00  7.86827235E+00  1.88128854E+00  5.44249258E-01
  1.68714478E-01  8.00000000E-01  3.04752488E+03  4.57369518E+02  1.03948685E+02
  2.92101553E+01  9.28666296E+00  3.16392696E+00  7.86827235E+00  1.88128854E+00
  5.44249258E-01  1.68714478E-01  8.00000000E-01  3.04752488E+03  4.57369518E+02
  1.03948685E+02  2.92101553E+01  9.28666296E+00  3.16392696E+00  7.86827235E+00
  1.88128854E+00  5.44249258E-01  1.68714478E-01  8.00000000E-01  1.87311370E+01
  2.82539436E+00  6.40121692E-01  1.61277759E-01  1.87311370E+01  2.82539436E+00
  6.40121692E-01  1.61277759E-01  1.87311370E+01  2.82539436E+00  6.40121692E-01
  1.61277759E-01  1.87311370E+01  2.82539436E+00  6.40121692E-01  1.61277759E-01
  1.87311370E+01  2.82539436E+00  6.40121692E-01  1.61277759E-01  1.87311370E+01
  2.82539436E+00  6.40121692E-01  1.61277759E-01  1.87311370E+01  2.82539436E+00
  6.40121692E-01  1.61277759E-01  1.87311370E+01  2.82539436E+00  6.40121692E-01
  1.61277759E-01  1.87311370E+01  2.82539436E+00  6.40121692E-01  1.61277759E-01
  1.87311370E+01  2.82539436E+00  6.40121692E-01  1.61277759E-01  1.87311370E+01
  2.82539436E+00  6.40121692E-01  1.61277759E-01  1.87311370E+01  2.82539436E+00
  6.40121692E-01  1.61277759E-01
Contraction coefficients                   R   N=         147
  1.83477216E-03  1.39946270E-02  6.85865518E-02  2.32240873E-01  4.69069948E-01
  3.60455199E-01 -1.14961182E-01 -1.69117479E-01  1.14585195E+00  1.00000000E+00
  1.00000000E+00  1.83473713E-03  1.40373228E-02  6.88426223E-02  2.32184443E-01
  4.67941348E-01  3.62311985E-01 -1.19332420E-01 -1.60854152E-01  1.14345644E+00
  1.00000000E+00  1.00000000E+00  1.83473713E-03  1.40373228E-02  6.88426223E-02
  2.32184443E-01  4.67941348E-01  3.62311985E-01 -1.19332420E-01 -1.60854152E-01
  1.14345644E+00  1.00000000E+00  1.00000000E+00  1.83473713E-03  1.40373228E-02
  6.88426223E-02  2.32184443E-01  4.67941348E-01  3.62311985E-01 -1.19332420E-01
 -1.60854152E-01  1.14345644E+00  1.00000000E+00  1.00000000E+00  1.83473713E-03
  1.40373228E-02  6.88426223E-02  2.32184443E-01  4.67941348E-01  3.62311985E-01
 -1.19332420E-01 -1.60854152E-01  1.14345644E+00  1.00000000E+00  1.00000000E+00
  1.83473713E-03  1.40373228E-02  6.88426223E-02  2.32184443E-01  4.67941348E-01
  3.62311985E-01 -1.19332420E-01 -1.60854152E-01  1.14345644E+00  1.00000000E+00
  1.00000000E+00  1.83473713E-03  1.40373228E-02  6.88426223E-02  2.32184443E-01
  4.67941348E-01  3.62311985E-01 -1.19332420E-01 -1.60854152E-01  1.14345644E+00
  1.00000000E+00  1.00000000E+00  1.83473713E-03  1.40373228E-02  6.88426223E-02
  2.32184443E-01  4.67941348E-01  3.62311985E-01 -1.19332420E-01 -1.60854152E-01
  1.14345644E+00  1.00000000E+00  1.00000000E+00  1.83473713E-03  1.40373228E-02
  6.88426223E-02  2.32184443E-01  4.67941348E-01  3.62311985E-01 -1.19332420E-01
 -1.60854152E-01  1.14345644E+00  1.00000000E+00  1.00000000E+00  3.34946043E-02
  2.34726953E-01  8.13757326E-01  1.00000000E+00  3.34946043E-02  2.34726953E-01
  8.13757326E-01  1.00000000E+00  3.34946043E-02  2.34726953E-01  8.13757326E-01
  1.00000000E+00  3.34946043E-02  2.34726953E-01  8.13757326E-01  1.00000000E+00
  3.34946043E-02  2.34726953E-01  8.13757326E-01  1.00000000E+00  3.34946043E-02
  2.34726953E-01  8.13757326E-01  1.00000000E+00  3.34946043E-02  2.34726953E-01
  8.13757326E-01  1.00000000E+00  3.34946043E-02  2.34726953E-01  8.13757326E-01
  1.00000000E+00  3.34946043E-02  2.34726953E-01  8.13757326E-01  1.00000000E+00
  3.34946043E-02  2.34726953E-01  8.13757326E-01  1.00000000E+00  3.34946043E-02
  2.34726953E-01  8.13757326E-01  1.00000000E+00  3.34946043E-02  2.34726953E-01
  8.13757326E-01  1.00000000E+00
P(S=P) Contraction coefficients            R   N=         147
  0.00000000E+00  0.00000000E+00  0.00000000E+00  0.00000000E+00  0.00000000E+00
  0.00000000E+00  6.75797439E-02  3.23907296E-01  7.40895140E-01  1.00000000E+00
  0.00000000E+00  0.00000000E+00  0.00000000E+00  0.00000000E+00  0.00000000E+00
  0.00000000E+00  0.00000000E+00  6.89990666E-02  3.16423961E-01  7.44308291E-01
  1.00000000E+00  0.00000000E+00  0.00000000E+00  0.00000000E+00  0.00000000E+00
  0.00000000E+00  0.00000000E+00  0.00000000E+00  6.89990666E-02  3.16423961E-01
  7.44308291E-01  1.00000000E+00  0.00000000E+00  0.00000000E+00  0.00000000E+00
  0.00000000E+00  0.00000000E+00  0.00000000E+00  0.00000000E+00  6.89990666E-02
  3.16423961E-01  7.44308291E-01  1.00000000E+00  0.00000000E+00  0.00000000E+00
  0.00000000E+00  0.00000000E+00  0.00000000E+00  0.00000000E+00  0.00000000E+00
  6.89990666E-02  3.16423961E-01  7.44308291E-01  1.00000000E+00  0.00000000E+00
  0.00000000E+00  0.00000000E+00  0.00000000E+00  0.00000000E+00  0.00000000E+00
  0.00000000E+00  6.89990666E-02  3.16423961E-01  7.44308291E-01  1.00000000E+00
  0.00000000E+00  0.00000000E+00  0.00000000E+00  0.00000000E+00  0.00000000E+00
  0.00000000E+00  0.00000000E+00  6.89990666E-02  3.16423961E-01  7.44308291E-01
  1.00000000E+00  0.00000000E+00  0.00000000E+00  0.00000000E+00  0.00000000E+00
  0.00000000E+00  0.00000000E+00  0.00000000E+00  6.89990666E-02  3.16423961E-01
  7.44308291E-01  1.00000000E+00  0.00000000E+00  0.00000000E+00  0.00000000E+00
  0.00000000E+00  0.00000000E+00  0.00000000E+00  0.00000000E+00  6.89990666E-02
  3.16423961E-01  7.44308291E-01  1.00000000E+00  0.00000000E+00  0.00000000E+00
  0.00000000E+00  0.00000000E+00  0.00000000E+00  0.00000000E+00  0.00000000E+00
  0.00000000E+00  0.00000000E+00  0.00000000E+00  0.00000000E+00  0.00000000E+00
  0.00000000E+00  0.00000000E+00  0.00000000E+00  0.00000000E+00  0.00000000E+00
  0.00000000E+00  0.00000000E+00  0.00000000E+00  0.00000000E+00  0.00000000E+00
  0.00000000E+00  0.00000000E+00  0.00000000E+00  0.00000000E+00  0.00000000E+00
  0.00000000E+00  0.00000000E+00  0.00000000E+00  0.00000000E+00  0.00000000E+00
  0.00000000E+00  0.00000000E+00  0.00000000E+00  0.00000000E+00  0.00000000E+00
  0.00000000E+00  0.00000000E+00  0.00000000E+00  0.00000000E+00  0.00000000E+00
  0.00000000E+00  0.00000000E+00  0.00000000E+00  0.00000000E+00  0.00000000E+00
  0.00000000E+00  0.00000000E+00
Coordinates of each shell                  R   N=         180
 -5.31735202E+00 -1.53774081E-04  2.48864859E-02 -5.31735202E+00 -1.53774081E-04
  2.48864859E-02 -5.31735202E+00 -1.53774081E-04  2.48864859E-02 -5.31735202E+00
 -1.53774081E-04  2.48864859E-02 -2.50084364E+00 -6.93365959E-05 -2.80973830E-02
 -2.50084364E+00 -6.93365959E-05 -2.80973830E-02 -2.50084364E+00 -6.93365959E-05
 -2.80973830E-02 -2.50084364E+00 -6.93365959E-05 -2.80973830E-02  1.37581892E+00
  2.32487850E+00 -2.45395122E-02  1.37581892E+00  2.32487850E+00 -2.45395122E-02
  1.37581892E+00  2.32487850E+00 -2.45395122E-02  1.37581892E+00  2.32487850E+00
 -2.45395122E-02  1.37594378E+00 -2.32480506E+00 -2.45256444E-02  1.37594378E+00
 -2.32480506E+00 -2.45256444E-02  1.37594378E+00 -2.32480506E+00 -2.45256444E-02
  1.37594378E+00 -2.32480506E+00 -2.45256444E-02 -1.27099292E+00 -2.31762448E+00
 -1.32083672E-02 -1.27099292E+00 -2.31762448E+00 -1.32083672E-02 -1.27099292E+00
 -2.31762448E+00 -1.32083672E-02 -1.27099292E+00 -2.31762448E+00 -1.32083672E-02
 -1.27112237E+00  2.31754959E+00 -1.32222478E-02 -1.27112237E+00  2.31754959E+00
 -1.32222478E-02 -1.27112237E+00  2.31754959E+00 -1.32222478E-02 -1.27112237E+00
  2.31754959E+00 -1.32222478E-02  2.64352593E+00  7.37876734E-05 -2.03888960E-02
  2.64352593E+00  7.37876734E-05 -2.03888960E-02  2.64352593E+00  7.37876734E-05
 -2.03888960E-02  2.64352593E+00  7.37876734E-05 -2.03888960E-02  2.82375970E+00
  4.77216879E+00  2.53811900E-02  2.82375970E+00  4.77216879E+00  2.53811900E-02
  2.82375970E+00  4.77216879E+00  2.53811900E-02  2.82375970E+00  4.77216879E+00
  2.53811900E-02  2.82404163E+00 -4.77200298E+00  2.53727628E-02  2.82404163E+00
 -4.77200298E+00  2.53727628E-02  2.82404163E+00 -4.77200298E+00  2.53727628E-02
  2.82404163E+00 -4.77200298E+00  2.53727628E-02 -2.31336439E+00 -4.09308109E+00
 -2.61738149E-02 -2.31336439E+00 -4.09308109E+00 -2.61738149E-02 -2.31358973E+00
  4.09295051E+00 -2.61972101E-02 -2.31358973E+00  4.09295051E+00 -2.61972101E-02
  4.70154510E+00  1.28536309E-04 -4.53884863E-02  4.70154510E+00  1.28536309E-04
 -4.53884863E-02 -6.03896351E+00  1.56574374E+00 -8.76126420E-01 -6.03896351E+00
  1.56574374E+00 -8.76126420E-01 -6.03888719E+00 -1.56581847E+00 -8.76592373E-01
 -6.03888719E+00 -1.56581847E+00 -8.76592373E-01 -6.01456092E+00 -4.40533474E-04
  1.84247344E+00 -6.01456092E+00 -4.40533474E-04  1.84247344E+00  1.65905091E+00
  6.35059709E+00 -6.19111248E-01  1.65905091E+00  6.35059709E+00 -6.19111248E-01
  3.46917789E+00  5.19591394E+00  1.94438743E+00  3.46917789E+00  5.19591394E+00
  1.94438743E+00  4.49052832E+00  4.66304651E+00 -1.18866523E+00  4.49052832E+00
  4.66304651E+00 -1.18866523E+00  4.49046998E+00 -4.66296512E+00 -1.18915107E+00
  4.49046998E+00 -4.66296512E+00 -1.18915107E+00  1.65925214E+00 -6.35060074E+00
 -6.18556118E-01  1.65925214E+00 -6.35060074E+00 -6.18556118E-01  3.47001934E+00
 -5.19541079E+00  1.94426428E+00  3.47001934E+00 -5.19541079E+00  1.94426428E+00
Constraint Structure                       R   N=          63
 -5.31735202E+00 -1.53774081E-04  2.48864859E-02 -2.50084364E+00 -6.93365959E-05
 -2.80973830E-02  1.37581892E+00  2.32487850E+00 -2.45395122E-02  1.37594378E+00
 -2.32480506E+00 -2.45256444E-02 -1.27099292E+00 -2.31762448E+00 -1.32083672E-02
 -1.27112237E+00  2.31754959E+00 -1.32222478E-02  2.64352593E+00  7.37876734E-05
 -2.03888960E-02  2.82375970E+00  4.77216879E+00  2.53811900E-02  2.82404163E+00
 -4.77200298E+00  2.53727628E-02 -2.31336439E+00 -4.09308109E+00 -2.61738149E-02
 -2.31358973E+00  4.09295051E+00 -2.61972101E-02  4.70154510E+00  1.28536309E-04
 -4.53884863E-02 -6.03896351E+00  1.56574374E+00 -8.76126420E-01 -6.03888719E+00
 -1.56581847E+00 -8.76592373E-01 -6.01456092E+00 -4.40533474E-04  1.84247344E+00
  1.65905091E+00  6.35059709E+00 -6.19111248E-01  3.46917789E+00  5.19591394E+00
  1.94438743E+00  4.49052832E+00  4.66304651E+00 -1.18866523E+00  4.49046998E+00
 -4.66296512E+00 -1.18915107E+00  1.65925214E+00 -6.35060074E+00 -6.18556118E-01
  3.47001934E+00 -5.19541079E+00  1.94426428E+00
Num ILSW                                   I              100
ILSW                                       I   N=         100
           0           1           0           0           2           0
           0           0           0           0           0          -1
           0           0           0           0           0           0
           0           0           0           0           1           0
           1           0           0           0           0           0
           0           0      100000           0          -1           0
           0           0           0           0           0           0
           0           0           0           1           1           0
           0           0           1           0           0           0
           0           0           4          40           0           0
           0           0           0           0           0           0
           0           0           0           0           0           0
           0           0           0           0           0           0
           0           0           0           0           0           0
           0           0           0           0           0           0
           0           0           0           0           0           0
           0           0           0           0
Num RLSW                                   I               40
RLSW                                       R   N=          40
  1.00000000E+00  1.00000000E+00  1.00000000E+00  1.00000000E+00  1.00000000E+00
  0.00000000E+00  0.00000000E+00  1.00000000E+00  0.00000000E+00  0.00000000E+00
  0.00000000E+00  0.00000000E+00  1.00000000E+00  0.00000000E+00  0.00000000E+00
  0.00000000E+00  0.00000000E+00  1.00000000E+00  0.00000000E+00  0.00000000E+00
  0.00000000E+00  0.00000000E+00  1.00000000E+00  0.00000000E+00  0.00000000E+00
  0.00000000E+00  0.00000000E+00  1.00000000E+00  0.00000000E+00  0.00000000E+00
  0.00000000E+00  0.00000000E+00  0.00000000E+00  0.00000000E+00  0.00000000E+00
  0.00000000E+00  0.00000000E+00  0.00000000E+00  1.00000000E+00  1.00000000E+00
MxBond                                     I                4
NBond                                      I   N=          21
           4           3           3           3           3           3
           3           4           4           1           1           1
           1           1           1           1           1           1
           1           1           1
IBond                                      I   N=          84
           2          13          14          15           1           5
           6           0           6           7           8           0
           5           7           9           0           2           4
          10           0           2           3          11           0
           3           4          12           0           3          16
          17          18           4          19          20          21
           5           0           0           0           6           0
           0           0           7           0           0           0
           1           0           0           0           1           0
           0           0           1           0           0           0
           8           0           0           0           8           0
           0           0           8           0           0           0
           9           0           0           0           9           0
           0           0           9           0           0           0
RBond                                      R   N=          84
  1.00000000E+00  1.00000000E+00  1.00000000E+00  1.00000000E+00  1.00000000E+00
  1.50000000E+00  1.50000000E+00  0.00000000E+00  1.50000000E+00  1.50000000E+00
  1.00000000E+00  0.00000000E+00  1.50000000E+00  1.50000000E+00  1.00000000E+00
  0.00000000E+00  1.50000000E+00  1.50000000E+00  1.00000000E+00  0.00000000E+00
  1.50000000E+00  1.50000000E+00  1.00000000E+00  0.00000000E+00  1.50000000E+00
  1.50000000E+00  1.00000000E+00  0.00000000E+00  1.00000000E+00  1.00000000E+00
  1.00000000E+00  1.00000000E+00  1.00000000E+00  1.00000000E+00  1.00000000E+00
  1.00000000E+00  1.00000000E+00  0.00000000E+00  0.00000000E+00  0.00000000E+00
  1.00000000E+00  0.00000000E+00  0.00000000E+00  0.00000000E+00  1.00000000E+00
  0.00000000E+00  0.00000000E+00  0.00000000E+00  1.00000000E+00  0.00000000E+00
  0.00000000E+00  0.00000000E+00  1.00000000E+00  0.00000000E+00  0.00000000E+00
  0.00000000E+00  1.00000000E+00  0.00000000E+00  0.00000000E+00  0.00000000E+00
  1.00000000E+00  0.00000000E+00  0.00000000E+00  0.00000000E+00  1.00000000E+00
  0.00000000E+00  0.00000000E+00  0.00000000E+00  1.00000000E+00  0.00000000E+00
  0.00000000E+00  0.00000000E+00  1.00000000E+00  0.00000000E+00  0.00000000E+00
  0.00000000E+00  1.00000000E+00  0.00000000E+00  0.00000000E+00  0.00000000E+00
  1.00000000E+00  0.00000000E+00  0.00000000E+00  0.00000000E+00
Virial Ratio                               R      2.002112020630115E+00
SCF Energy                                 R     -3.641646945745502E+02
MP2 Energy                                 R     -3.653516512851485E+02
Total Energy                               R     -3.653516512851485E+02
Post-SCF wavefunction norm                 R      1.683477768108178E+00
RMS Force                                  R      3.219531142650872E-08
RMS Density                                R      1.885796047835925E-09
External E-field                           R   N=          35
  0.00000000E+00  0.00000000E+00  0.00000000E+00  0.00000000E+00  0.00000000E+00
  0.00000000E+00  0.00000000E+00  0.00000000E+00  0.00000000E+00  0.00000000E+00
  0.00000000E+00  0.00000000E+00  0.00000000E+00  0.00000000E+00  0.00000000E+00
  0.00000000E+00  0.00000000E+00  0.00000000E+00  0.00000000E+00  0.00000000E+00
  0.00000000E+00  0.00000000E+00  0.00000000E+00  0.00000000E+00  0.00000000E+00
  0.00000000E+00  0.00000000E+00  0.00000000E+00  0.00000000E+00  0.00000000E+00
  0.00000000E+00  0.00000000E+00  0.00000000E+00  0.00000000E+00  0.00000000E+00
IOpCl                                      I                0
IROHF                                      I                0
Alpha Orbital Energies                     R   N=         159
 -1.58972111E+01 -1.14615111E+01 -1.13978553E+01 -1.13978235E+01 -1.13945928E+01
 -1.13945624E+01 -1.13734814E+01 -1.13448140E+01 -1.13448131E+01 -1.50686258E+00
 -1.30869642E+00 -1.20414117E+00 -1.18234812E+00 -1.08300345E+00 -1.06936937E+00
 -9.89849260E-01 -9.68884025E-01 -9.54291553E-01 -9.09191834E-01 -8.56585101E-01
 -8.21049760E-01 -7.93851506E-01 -7.24149452E-01 -7.14500294E-01 -7.09011608E-01
 -6.89134030E-01 -6.78474485E-01 -6.56239265E-01 -6.40304556E-01 -6.33105991E-01
 -6.27234556E-01 -4.84227106E-01 -4.72391959E-01 -2.59548713E-02 -1.07078018E-02
 -9.71662389E-03  6.21769144E-02  6.58395712E-02  9.74918796E-02  1.42529972E-01
  1.49529510E-01  1.73050982E-01  1.73173497E-01  1.82471409E-01  2.08469132E-01
  2.14703087E-01  2.17345192E-01  2.33769505E-01  2.73327991E-01  2.81500835E-01
  2.93893739E-01  3.43843026E-01  3.75741545E-01  3.91167020E-01  4.31555297E-01
  4.31816926E-01  5.70061429E-01  5.80437312E-01  5.94122587E-01  6.04218964E-01
  6.20975390E-01  6.32369415E-01  6.47160165E-01  6.47333318E-01  6.65868048E-01
  6.68204983E-01  6.79772600E-01  7.11247812E-01  7.31742265E-01  7.38889283E-01
  8.04524307E-01  8.14083102E-01  8.20735855E-01  8.38647413E-01  8.50751233E-01
  8.67091456E-01  8.81488004E-01  8.86633287E-01  9.01143168E-01  9.06474432E-01
  9.27359360E-01  9.38041755E-01  9.46963029E-01  9.54265784E-01  9.81022422E-01
  1.03201142E+00  1.04155735E+00  1.05338282E+00  1.07121113E+00  1.07998796E+00
  1.08916906E+00  1.11701432E+00  1.12330637E+00  1.18466050E+00  1.18993814E+00
  1.24285828E+00  1.27563917E+00  1.28494783E+00  1.30872321E+00  1.35280320E+00
  1.41246855E+00  1.44037439E+00  1.48856248E+00  1.50275046E+00  1.51694625E+00
  1.54001412E+00  1.58759837E+00  1.62484684E+00  1.68192072E+00  1.77767906E+00
  1.89681660E+00  1.90241655E+00  1.96593472E+00  1.97800631E+00  1.98811512E+00
  2.02113764E+00  2.04724740E+00  2.04799215E+00  2.05950314E+00  2.06484299E+00
  2.07419337E+00  2.07929837E+00  2.22234179E+00  2.24444412E+00  2.27747126E+00
  2.28554822E+00  2.37206624E+00  2.38355232E+00  2.38996880E+00  2.40663955E+00
  2.44835391E+00  2.50364714E+00  2.50468155E+00  2.51910925E+00  2.53126374E+00
  2.53668406E+00  2.57254790E+00  2.60103583E+00  2.60264534E+00  2.65625567E+00
  2.83406011E+00  2.85732718E+00  2.85960835E+00  2.96519034E+00  2.97134878E+00
  3.07112977E+00  3.07808321E+00  3.12090556E+00  3.32406712E+00  3.63277967E+00
  4.00100331E+00  4.35827308E+00  4.39370982E+00  4.39782065E+00  4.52399409E+00
  4.54045734E+00  4.65288390E+00  4.70804208E+00  5.00541443E+00
Alpha MO coefficients                      R   N=       25281
  9.94963992E-01  2.53286017E-02 -1.74927561E-04 -1.45828966E-09 -1.07277032E-05