11251                                                                   
Freq      RMP2-FC                                                     6-31G(d)            
Number of atoms                            I               16
Info1-9                                    I   N=           9
          28          26        1002           0           0         100
           6           2           1
Charge                                     I                0
Multiplicity                               I                1
Number of electrons                        I               48
Number of alpha electrons                  I               24
Number of beta electrons                   I               24
Number of basis functions                  I              110
Number of independent functions            I              110
Number of point charges in /Mol/           I                0
Number of translation vectors              I                0
Atomic numbers                             I   N=          16
           8           6           6           6           6           6
           1           1           1           1           1           1
           1           1           1           1
Nuclear charges                            R   N=          16
  8.00000000E+00  6.00000000E+00  6.00000000E+00  6.00000000E+00  6.00000000E+00
  6.00000000E+00  1.00000000E+00  1.00000000E+00  1.00000000E+00  1.00000000E+00
  1.00000000E+00  1.00000000E+00  1.00000000E+00  1.00000000E+00  1.00000000E+00
  1.00000000E+00
Current cartesian coordinates              R   N=          48
  1.62262440E+00 -2.22982126E+00 -1.58529653E+00 -1.17542647E+00  4.54654408E-01
  7.71895541E-01 -2.08090826E+00  2.51240392E+00 -1.06314462E+00 -3.05144056E+00
 -1.72851198E+00  8.98219778E-01  1.40947515E+00 -4.54109099E-01 -1.03381121E-01
  3.69142170E+00  9.53140495E-01  8.89419755E-01 -9.61504298E-01  1.30441491E+00
  2.65342489E+00 -2.27948510E+00  1.71706684E+00 -2.96126655E+00 -3.91986461E+00
  3.24431745E+00 -4.66616794E-01 -7.61957138E-01  4.10243204E+00 -1.15871109E+00
 -2.41875605E+00 -3.18095958E+00  2.22545649E+00 -3.23582203E+00 -2.60798951E+00
 -9.59289067E-01 -4.90755476E+00 -1.05254451E+00  1.50823808E+00  3.42611976E+00
  2.99860545E+00  7.42626039E-01  5.37239600E+00  3.78018794E-01 -1.55414672E-01
  3.94670367E+00  5.09741702E-01  2.89586895E+00
Force Field                                I                0
Int Atom Types                             I   N=          16
           0           0           0           0           0           0
           0           0           0           0           0           0
           0           0           0           0
MM charges                                 R   N=          16
  0.00000000E+00  0.00000000E+00  0.00000000E+00  0.00000000E+00  0.00000000E+00
  0.00000000E+00  0.00000000E+00  0.00000000E+00  0.00000000E+00  0.00000000E+00
  0.00000000E+00  0.00000000E+00  0.00000000E+00  0.00000000E+00  0.00000000E+00
  0.00000000E+00
Integer atomic weights                     I   N=          16
          16          12          12          12          12          12
           1           1           1           1           1           1
           1           1           1           1
Real atomic weights                        R   N=          16
  1.59949146E+01  1.20000000E+01  1.20000000E+01  1.20000000E+01  1.20000000E+01
  1.20000000E+01  1.00782504E+00  1.00782504E+00  1.00782504E+00  1.00782504E+00
  1.00782504E+00  1.00782504E+00  1.00782504E+00  1.00782504E+00  1.00782504E+00
  1.00782504E+00
Atom fragment info                         I   N=          16
           0           0           0           0           0           0
           0           0           0           0           0           0
           0           0           0           0
Atom residue num                           I   N=          16
           0           0           0           0           0           0
           0           0           0           0           0           0
           0           0           0           0
Nuclear spins                              I   N=          16
           0           0           0           0           0           0
           1           1           1           1           1           1
           1           1           1           1
Nuclear ZEff                               R   N=          16
 -5.60000000E+00 -3.60000000E+00 -3.60000000E+00 -3.60000000E+00 -3.60000000E+00
 -3.60000000E+00 -1.00000000E+00 -1.00000000E+00 -1.00000000E+00 -1.00000000E+00
 -1.00000000E+00 -1.00000000E+00 -1.00000000E+00 -1.00000000E+00 -1.00000000E+00
 -1.00000000E+00
Nuclear QMom                               R   N=          16
  0.00000000E+00  0.00000000E+00  0.00000000E+00  0.00000000E+00  0.00000000E+00
  0.00000000E+00  0.00000000E+00  0.00000000E+00  0.00000000E+00  0.00000000E+00
  0.00000000E+00  0.00000000E+00  0.00000000E+00  0.00000000E+00  0.00000000E+00
  0.00000000E+00
Nuclear GFac                               R   N=          16
  0.00000000E+00  0.00000000E+00  0.00000000E+00  0.00000000E+00  0.00000000E+00
  0.00000000E+00  2.79284600E+00  2.79284600E+00  2.79284600E+00  2.79284600E+00
  2.79284600E+00  2.79284600E+00  2.79284600E+00  2.79284600E+00  2.79284600E+00
  2.79284600E+00
MicOpt                                     I   N=          16
          -1          -1          -1          -1          -1          -1
          -1          -1          -1          -1          -1          -1
          -1          -1          -1          -1
Number of contracted shells                I               44
Number of primitive shells                 I              106
Pure/Cartesian d shells                    I                1
Pure/Cartesian f shells                    I                0
Highest angular momentum                   I                2
Largest degree of contraction              I                6
Shell types                                I   N=          44
           0          -1          -1           2           0          -1
          -1           2           0          -1          -1           2
           0          -1          -1           2           0          -1
          -1           2           0          -1          -1           2
           0           0           0           0           0           0
           0           0           0           0           0           0
           0           0           0           0           0           0
           0           0
Number of primitives per shell             I   N=          44
           6           3           1           1           6           3
           1           1           6           3           1           1
           6           3           1           1           6           3
           1           1           6           3           1           1
           3           1           3           1           3           1
           3           1           3           1           3           1
           3           1           3           1           3           1
           3           1
Shell to atom map                          I   N=          44
           1           1           1           1           2           2
           2           2           3           3           3           3
           4           4           4           4           5           5
           5           5           6           6           6           6
           7           7           8           8           9           9
          10          10          11          11          12          12
          13          13          14          14          15          15
          16          16
Primitive exponents                        R   N=         106
  5.48467166E+03  8.25234946E+02  1.88046958E+02  5.29645000E+01  1.68975704E+01
  5.79963534E+00  1.55396162E+01  3.59993359E+00  1.01376175E+00  2.70005823E-01
  8.00000000E-01  3.04752488E+03  4.57369518E+02  1.03948685E+02  2.92101553E+01
  9.28666296E+00  3.16392696E+00  7.86827235E+00  1.88128854E+00  5.44249258E-01
  1.68714478E-01  8.00000000E-01  3.04752488E+03  4.57369518E+02  1.03948685E+02
  2.92101553E+01  9.28666296E+00  3.16392696E+00  7.86827235E+00  1.88128854E+00
  5.44249258E-01  1.68714478E-01  8.00000000E-01  3.04752488E+03  4.57369518E+02
  1.03948685E+02  2.92101553E+01  9.28666296E+00  3.16392696E+00  7.86827235E+00
  1.88128854E+00  5.44249258E-01  1.68714478E-01  8.00000000E-01  3.04752488E+03
  4.57369518E+02  1.03948685E+02  2.92101553E+01  9.28666296E+00  3.16392696E+00
  7.86827235E+00  1.88128854E+00  5.44249258E-01  1.68714478E-01  8.00000000E-01
  3.04752488E+03  4.57369518E+02  1.03948685E+02  2.92101553E+01  9.28666296E+00
  3.16392696E+00  7.86827235E+00  1.88128854E+00  5.44249258E-01  1.68714478E-01
  8.00000000E-01  1.87311370E+01  2.82539436E+00  6.40121692E-01  1.61277759E-01
  1.87311370E+01  2.82539436E+00  6.40121692E-01  1.61277759E-01  1.87311370E+01
  2.82539436E+00  6.40121692E-01  1.61277759E-01  1.87311370E+01  2.82539436E+00
  6.40121692E-01  1.61277759E-01  1.87311370E+01  2.82539436E+00  6.40121692E-01
  1.61277759E-01  1.87311370E+01  2.82539436E+00  6.40121692E-01  1.61277759E-01
  1.87311370E+01  2.82539436E+00  6.40121692E-01  1.61277759E-01  1.87311370E+01
  2.82539436E+00  6.40121692E-01  1.61277759E-01  1.87311370E+01  2.82539436E+00
  6.40121692E-01  1.61277759E-01  1.87311370E+01  2.82539436E+00  6.40121692E-01
  1.61277759E-01
Contraction coefficients                   R   N=         106
  1.83107443E-03  1.39501722E-02  6.84450781E-02  2.32714336E-01  4.70192898E-01
  3.58520853E-01 -1.10777550E-01 -1.48026263E-01  1.13076702E+00  1.00000000E+00
  1.00000000E+00  1.83473713E-03  1.40373228E-02  6.88426223E-02  2.32184443E-01
  4.67941348E-01  3.62311985E-01 -1.19332420E-01 -1.60854152E-01  1.14345644E+00
  1.00000000E+00  1.00000000E+00  1.83473713E-03  1.40373228E-02  6.88426223E-02
  2.32184443E-01  4.67941348E-01  3.62311985E-01 -1.19332420E-01 -1.60854152E-01
  1.14345644E+00  1.00000000E+00  1.00000000E+00  1.83473713E-03  1.40373228E-02
  6.88426223E-02  2.32184443E-01  4.67941348E-01  3.62311985E-01 -1.19332420E-01
 -1.60854152E-01  1.14345644E+00  1.00000000E+00  1.00000000E+00  1.83473713E-03
  1.40373228E-02  6.88426223E-02  2.32184443E-01  4.67941348E-01  3.62311985E-01
 -1.19332420E-01 -1.60854152E-01  1.14345644E+00  1.00000000E+00  1.00000000E+00
  1.83473713E-03  1.40373228E-02  6.88426223E-02  2.32184443E-01  4.67941348E-01
  3.62311985E-01 -1.19332420E-01 -1.60854152E-01  1.14345644E+00  1.00000000E+00
  1.00000000E+00  3.34946043E-02  2.34726953E-01  8.13757326E-01  1.00000000E+00
  3.34946043E-02  2.34726953E-01  8.13757326E-01  1.00000000E+00  3.34946043E-02
  2.34726953E-01  8.13757326E-01  1.00000000E+00  3.34946043E-02  2.34726953E-01
  8.13757326E-01  1.00000000E+00  3.34946043E-02  2.34726953E-01  8.13757326E-01
  1.00000000E+00  3.34946043E-02  2.34726953E-01  8.13757326E-01  1.00000000E+00
  3.34946043E-02  2.34726953E-01  8.13757326E-01  1.00000000E+00  3.34946043E-02
  2.34726953E-01  8.13757326E-01  1.00000000E+00  3.34946043E-02  2.34726953E-01
  8.13757326E-01  1.00000000E+00  3.34946043E-02  2.34726953E-01  8.13757326E-01
  1.00000000E+00
P(S=P) Contraction coefficients            R   N=         106
  0.00000000E+00  0.00000000E+00  0.00000000E+00  0.00000000E+00  0.00000000E+00
  0.00000000E+00  7.08742682E-02  3.39752839E-01  7.27158577E-01  1.00000000E+00
  0.00000000E+00  0.00000000E+00  0.00000000E+00  0.00000000E+00  0.00000000E+00
  0.00000000E+00  0.00000000E+00  6.89990666E-02  3.16423961E-01  7.44308291E-01
  1.00000000E+00  0.00000000E+00  0.00000000E+00  0.00000000E+00  0.00000000E+00
  0.00000000E+00  0.00000000E+00  0.00000000E+00  6.89990666E-02  3.16423961E-01
  7.44308291E-01  1.00000000E+00  0.00000000E+00  0.00000000E+00  0.00000000E+00
  0.00000000E+00  0.00000000E+00  0.00000000E+00  0.00000000E+00  6.89990666E-02
  3.16423961E-01  7.44308291E-01  1.00000000E+00  0.00000000E+00  0.00000000E+00
  0.00000000E+00  0.00000000E+00  0.00000000E+00  0.00000000E+00  0.00000000E+00
  6.89990666E-02  3.16423961E-01  7.44308291E-01  1.00000000E+00  0.00000000E+00
  0.00000000E+00  0.00000000E+00  0.00000000E+00  0.00000000E+00  0.00000000E+00
  0.00000000E+00  6.89990666E-02  3.16423961E-01  7.44308291E-01  1.00000000E+00
  0.00000000E+00  0.00000000E+00  0.00000000E+00  0.00000000E+00  0.00000000E+00
  0.00000000E+00  0.00000000E+00  0.00000000E+00  0.00000000E+00  0.00000000E+00
  0.00000000E+00  0.00000000E+00  0.00000000E+00  0.00000000E+00  0.00000000E+00
  0.00000000E+00  0.00000000E+00  0.00000000E+00  0.00000000E+00  0.00000000E+00
  0.00000000E+00  0.00000000E+00  0.00000000E+00  0.00000000E+00  0.00000000E+00
  0.00000000E+00  0.00000000E+00  0.00000000E+00  0.00000000E+00  0.00000000E+00
  0.00000000E+00  0.00000000E+00  0.00000000E+00  0.00000000E+00  0.00000000E+00
  0.00000000E+00  0.00000000E+00  0.00000000E+00  0.00000000E+00  0.00000000E+00
  0.00000000E+00
Coordinates of each shell                  R   N=         132
  1.62262440E+00 -2.22982126E+00 -1.58529653E+00  1.62262440E+00 -2.22982126E+00
 -1.58529653E+00  1.62262440E+00 -2.22982126E+00 -1.58529653E+00  1.62262440E+00
 -2.22982126E+00 -1.58529653E+00 -1.17542647E+00  4.54654408E-01  7.71895541E-01
 -1.17542647E+00  4.54654408E-01  7.71895541E-01 -1.17542647E+00  4.54654408E-01
  7.71895541E-01 -1.17542647E+00  4.54654408E-01  7.71895541E-01 -2.08090826E+00
  2.51240392E+00 -1.06314462E+00 -2.08090826E+00  2.51240392E+00 -1.06314462E+00
 -2.08090826E+00  2.51240392E+00 -1.06314462E+00 -2.08090826E+00  2.51240392E+00
 -1.06314462E+00 -3.05144056E+00 -1.72851198E+00  8.98219778E-01 -3.05144056E+00
 -1.72851198E+00  8.98219778E-01 -3.05144056E+00 -1.72851198E+00  8.98219778E-01
 -3.05144056E+00 -1.72851198E+00  8.98219778E-01  1.40947515E+00 -4.54109099E-01
 -1.03381121E-01  1.40947515E+00 -4.54109099E-01 -1.03381121E-01  1.40947515E+00
 -4.54109099E-01 -1.03381121E-01  1.40947515E+00 -4.54109099E-01 -1.03381121E-01
  3.69142170E+00  9.53140495E-01  8.89419755E-01  3.69142170E+00  9.53140495E-01
  8.89419755E-01  3.69142170E+00  9.53140495E-01  8.89419755E-01  3.69142170E+00
  9.53140495E-01  8.89419755E-01 -9.61504298E-01  1.30441491E+00  2.65342489E+00
 -9.61504298E-01  1.30441491E+00  2.65342489E+00 -2.27948510E+00  1.71706684E+00
 -2.96126655E+00 -2.27948510E+00  1.71706684E+00 -2.96126655E+00 -3.91986461E+00
  3.24431745E+00 -4.66616794E-01 -3.91986461E+00  3.24431745E+00 -4.66616794E-01
 -7.61957138E-01  4.10243204E+00 -1.15871109E+00 -7.61957138E-01  4.10243204E+00
 -1.15871109E+00 -2.41875605E+00 -3.18095958E+00  2.22545649E+00 -2.41875605E+00
 -3.18095958E+00  2.22545649E+00 -3.23582203E+00 -2.60798951E+00 -9.59289067E-01
 -3.23582203E+00 -2.60798951E+00 -9.59289067E-01 -4.90755476E+00 -1.05254451E+00
  1.50823808E+00 -4.90755476E+00 -1.05254451E+00  1.50823808E+00  3.42611976E+00
  2.99860545E+00  7.42626039E-01  3.42611976E+00  2.99860545E+00  7.42626039E-01
  5.37239600E+00  3.78018794E-01 -1.55414672E-01  5.37239600E+00  3.78018794E-01
 -1.55414672E-01  3.94670367E+00  5.09741702E-01  2.89586895E+00  3.94670367E+00
  5.09741702E-01  2.89586895E+00
Constraint Structure                       R   N=          48
  1.62262440E+00 -2.22982126E+00 -1.58529653E+00 -1.17542647E+00  4.54654408E-01
  7.71895541E-01 -2.08090826E+00  2.51240392E+00 -1.06314462E+00 -3.05144056E+00
 -1.72851198E+00  8.98219778E-01  1.40947515E+00 -4.54109099E-01 -1.03381121E-01
  3.69142170E+00  9.53140495E-01  8.89419755E-01 -9.61504298E-01  1.30441491E+00
  2.65342489E+00 -2.27948510E+00  1.71706684E+00 -2.96126655E+00 -3.91986461E+00
  3.24431745E+00 -4.66616794E-01 -7.61957138E-01  4.10243204E+00 -1.15871109E+00
 -2.41875605E+00 -3.18095958E+00  2.22545649E+00 -3.23582203E+00 -2.60798951E+00
 -9.59289067E-01 -4.90755476E+00 -1.05254451E+00  1.50823808E+00  3.42611976E+00
  2.99860545E+00  7.42626039E-01  5.37239600E+00  3.78018794E-01 -1.55414672E-01
  3.94670367E+00  5.09741702E-01  2.89586895E+00
Num ILSW                                   I              100
ILSW                                       I   N=         100
           0           1           0           0           2           0
           0           0           0           0           0          -1
           0           0           0           0           0           0
           0           0           0           0           1           0
           1           0           0           0           0           0
           0           0      100000           0          -1           0
           0           0           0           0           0           0
           0           0           0           1           1           0
           0           0           1           0           0           0
           0           0           4          40           0           0
           0           0           0           0           0           0
           0           0           0           0           0           0
           0           0           0           0           0           0
           0           0           0           0           0           0
           0           0           0           0           0           0
           0           0           0           0           0           0
           0           0           0           0
Num RLSW                                   I               40
RLSW                                       R   N=          40
  1.00000000E+00  1.00000000E+00  1.00000000E+00  1.00000000E+00  1.00000000E+00
  0.00000000E+00  0.00000000E+00  1.00000000E+00  0.00000000E+00  0.00000000E+00
  0.00000000E+00  0.00000000E+00  1.00000000E+00  0.00000000E+00  0.00000000E+00
  0.00000000E+00  0.00000000E+00  1.00000000E+00  0.00000000E+00  0.00000000E+00
  0.00000000E+00  0.00000000E+00  1.00000000E+00  0.00000000E+00  0.00000000E+00
  0.00000000E+00  0.00000000E+00  1.00000000E+00  0.00000000E+00  0.00000000E+00
  0.00000000E+00  0.00000000E+00  0.00000000E+00  0.00000000E+00  0.00000000E+00
  0.00000000E+00  0.00000000E+00  0.00000000E+00  1.00000000E+00  1.00000000E+00
MxBond                                     I                4
NBond                                      I   N=          16
           1           4           4           4           3           4
           1           1           1           1           1           1
           1           1           1           1
IBond                                      I   N=          64
           5           0           0           0           3           4
           5           7           2           8           9          10
           2          11          12          13           1           2
           6           0           5          14          15          16
           2           0           0           0           3           0
           0           0           3           0           0           0
           3           0           0           0           4           0
           0           0           4           0           0           0
           4           0           0           0           6           0
           0           0           6           0           0           0
           6           0           0           0
RBond                                      R   N=          64
  2.00000000E+00  0.00000000E+00  0.00000000E+00  0.00000000E+00  1.00000000E+00
  1.00000000E+00  1.00000000E+00  1.00000000E+00  1.00000000E+00  1.00000000E+00
  1.00000000E+00  1.00000000E+00  1.00000000E+00  1.00000000E+00  1.00000000E+00
  1.00000000E+00  2.00000000E+00  1.00000000E+00  1.00000000E+00  0.00000000E+00
  1.00000000E+00  1.00000000E+00  1.00000000E+00  1.00000000E+00  1.00000000E+00
  0.00000000E+00  0.00000000E+00  0.00000000E+00  1.00000000E+00  0.00000000E+00
  0.00000000E+00  0.00000000E+00  1.00000000E+00  0.00000000E+00  0.00000000E+00
  0.00000000E+00  1.00000000E+00  0.00000000E+00  0.00000000E+00  0.00000000E+00
  1.00000000E+00  0.00000000E+00  0.00000000E+00  0.00000000E+00  1.00000000E+00
  0.00000000E+00  0.00000000E+00  0.00000000E+00  1.00000000E+00  0.00000000E+00
  0.00000000E+00  0.00000000E+00  1.00000000E+00  0.00000000E+00  0.00000000E+00
  0.00000000E+00  1.00000000E+00  0.00000000E+00  0.00000000E+00  0.00000000E+00
  1.00000000E+00  0.00000000E+00  0.00000000E+00  0.00000000E+00
Virial Ratio                               R      2.001961182079704E+00
SCF Energy                                 R     -2.700283655666926E+02
MP2 Energy                                 R     -2.708576166923794E+02
Total Energy                               R     -2.708576166923794E+02
Post-SCF wavefunction norm                 R      1.594310108699970E+00
RMS Force                                  R      6.733192828412699E-08
RMS Density                                R      1.800777412426196E-09
External E-field                           R   N=          35
  0.00000000E+00  0.00000000E+00  0.00000000E+00  0.00000000E+00  0.00000000E+00
  0.00000000E+00  0.00000000E+00  0.00000000E+00  0.00000000E+00  0.00000000E+00
  0.00000000E+00  0.00000000E+00  0.00000000E+00  0.00000000E+00  0.00000000E+00
  0.00000000E+00  0.00000000E+00  0.00000000E+00  0.00000000E+00  0.00000000E+00
  0.00000000E+00  0.00000000E+00  0.00000000E+00  0.00000000E+00  0.00000000E+00
  0.00000000E+00  0.00000000E+00  0.00000000E+00  0.00000000E+00  0.00000000E+00
  0.00000000E+00  0.00000000E+00  0.00000000E+00  0.00000000E+00  0.00000000E+00
IOpCl                                      I                0
IROHF                                      I                0
Alpha Orbital Energies                     R   N=         110
 -2.05495568E+01 -1.13296714E+01 -1.12425104E+01 -1.12352248E+01 -1.12304279E+01
 -1.12164465E+01 -1.37109858E+00 -1.08988866E+00 -1.00426098E+00 -9.37809794E-01
 -8.49928227E-01 -7.21269357E-01 -6.62173177E-01 -6.31542990E-01 -6.10560693E-01
 -5.92359196E-01 -5.71077689E-01 -5.54323082E-01 -5.44218064E-01 -5.14609085E-01
 -4.98779369E-01 -4.84318565E-01 -4.67381795E-01 -4.00988413E-01  1.57959446E-01
  2.13654815E-01  2.63252263E-01  2.73937453E-01  2.94527211E-01  3.00412577E-01
  3.03762897E-01  3.21491998E-01  3.36243084E-01  3.48073595E-01  3.67719665E-01
  3.86906612E-01  3.97101195E-01  4.30071339E-01  4.83099198E-01  5.20405088E-01
  6.94101141E-01  7.16353986E-01  7.38458240E-01  7.56986744E-01  7.84298748E-01
  8.07935806E-01  8.44438299E-01  8.83320742E-01  9.32689642E-01  9.46832405E-01
  9.59813811E-01  9.75036458E-01  1.01343551E+00  1.04825683E+00  1.06630025E+00
  1.11437491E+00  1.12523233E+00  1.14091143E+00  1.14912597E+00  1.16814454E+00
  1.17453803E+00  1.18642119E+00  1.20907807E+00  1.21747987E+00  1.23439906E+00
  1.26428959E+00  1.30989909E+00  1.32993619E+00  1.40932386E+00  1.43326749E+00
  1.52271821E+00  1.63953395E+00  1.66802934E+00  1.75666206E+00  1.80743824E+00
  1.90247310E+00  1.93746743E+00  2.01279174E+00  2.05512938E+00  2.08962574E+00
  2.12479867E+00  2.15148087E+00  2.20442264E+00  2.24193303E+00  2.25250124E+00
  2.30327763E+00  2.32303111E+00  2.40166899E+00  2.43610480E+00  2.46405241E+00
  2.51150702E+00  2.57984859E+00  2.58853720E+00  2.63118680E+00  2.67486504E+00
  2.73313728E+00  2.75794569E+00  2.82601862E+00  2.89737056E+00  2.98126086E+00
  3.04897279E+00  3.12734872E+00  3.34073223E+00  3.35889507E+00  4.43747003E+00
  4.54221809E+00  4.64085616E+00  4.73387133E+00  4.84109103E+00  5.02467243E+00
Alpha MO coefficients                      R   N=       12100
  9.94699889E-01  2.09336949E-02 -1.43490639E-04  1.13982626E-03  9.45371870E-04
  4.48977126E-03  7.79187837E-06 -4.82916471E-05 -2.34478544E-05 -3.87302389E-03
 -3.84984016E-03 -3.94748356E-03 -1.98819799E-07 -3.68659983E-05  3.05603568E-04
 -5.04509242E-06 -4.45850470E-06 -1.99477077E-05  2.28116743E-05  2.19256523E-05
 -1.00239321E-05 -1.85862103E-04 -1.23030326E-05 -6.25462192E-05 -7.52291726E-07
 -3.22910392E-05 -3.49379270E-05  3.06841804E-05  2.04121198E-05 -1.92451600E-05
  8.22043735E-06  2.53375434E-05  1.71864930E-05 -7.56873763E-06 -1.35326047E-06
 -1.71246508E-04 -8.13824368E-05  8.08333126E-05 -8.42384966E-06  1.41489015E-05
  1.20964316E-05  1.74848732E-05 -1.80024450E-06 -3.45107496E-06  5.00629605E-06
  2.09179706E-06  1.29276172E-05  1.57577973E-05 -9.52957857E-06  2.16899370E-06
 -4.18388913E-05 -9.27027942E-05 -3.50974280E-05 -2.82606585E-06  4.67572629E-06
 -1.04911988E-05  4.61636593E-07 -4.03047594E-06  5.08676552E-06  1.93458773E-06
 -1.09605376E-05  4.36748684E-04  1.05484694E-05  1.01618453E-05  1.43728037E-05
 -8.85396559E-06 -9.10560102E-05  5.19567054E-04  4.08104775E-04 -6.54017622E-05
 -4.56385128E-04 -3.33586694E-04  5.08228991E-05  4.40440331E-05 -3.85808140E-04
  5.99131164E-07  1.99221463E-05  4.60958118E-06  2.07683610E-05  1.74921138E-05
 -1.69999808E-04  1.64967279E-04  1.13966032E-05  5.57830863E-06  1.95172491E-05
 -3.72621944E-05 -2.99817193E-05 -1.13848052E-05 -1.52830228E-05 -1.68906443E-05
  6.01323919E-06  9.30222220E-06  1.75939783E-05  2.57836883E-05 -1.68251773E-06
 -4.02042563E-05  1.34233333E-05  1.37297440E-05  1.33024974E-05  7.64899843E-06
  2.78281720E-05 -8.71953495E-05 -5.27997371E-06 -4.31397229E-05  1.27885585E-05
 -3.77630821E-06  6.61778845E-06 -6.75223695E-05  1.50698669E-05 -2.60355953E-05
 -2.68206045E-04  6.07929406E-04 -8.02499475E-06  1.54030059E-04  1.59134460E-04
 -3.08182145E-03  1.52055963E-04 -1.20146394E-03 -1.18571728E-03  1.79957697E-04
  1.11693345E-04  1.61147512E-04 -4.59617594E-06  4.00378807E-05 -3.27469220E-04
  3.52316719E-03  5.19491570E-04  8.99333525E-06 -1.97886997E-05 -9.95920710E-05
  1.43317918E-03  2.24696378E-03  4.79245245E-05  1.52200016E-03 -3.02628592E-04
 -1.95662885E-04 -1.03378784E-04  1.62003096E-04  1.67227717E-04 -1.87727000E-05
 -1.18421608E-04 -4.52489250E-04 -1.58316185E-04  5.59393641E-05  5.56262615E-05
  2.05612727E-03  1.10476813E-03 -1.19992624E-03 -1.25452633E-04 -6.62756805E-05
 -2.43323049E-06 -1.41669866E-04 -7.40178566E-05  2.84063272E-05 -4.82737873E-05
 -4.17992938E-05 -1.48084102E-04 -4.03227310E-05  3.13372497E-05  3.11184042E-06
  8.20893621E-04  2.88358909E-04  3.56439733E-04 -4.84561383E-04  7.24722505E-06
  2.60317128E-05 -1.93033444E-05  2.30236950E-05 -7.25842517E-05 -3.55316959E-05
  9.95905873E-01  2.67937873E-02  6.46001803E-05 -2.97230961E-04 -3.84115314E-04
 -1.01234256E-02 -6.80705500E-05 -3.91316553E-03 -2.86179263E-03 -1.49805887E-03
 -1.18043479E-03 -1.50990079E-03 -6.32744559E-05 -5.57517142E-05  8.88691398E-04
  3.21197218E-03  1.17342196E-04  2.81695604E-05  4.00919870E-05  6.17190650E-05
  4.33413651E-03 -2.15540726E-03 -3.63925539E-04 -5.18448520E-04 -3.42581611E-04
 -2.99144505E-04 -2.30359179E-04 -2.24943825E-04 -1.22952235E-04 -2.01683276E-04
 -1.92666799E-04 -6.79392995E-04 -2.02812191E-04 -4.07593451E-04  2.31415208E-05
  6.18266481E-04 -1.78210426E-04 -2.73768668E-05 -6.24616677E-05  1.87727920E-04
 -6.48701447E-05 -2.01642298E-04 -5.49912847E-06  1.37082399E-04 -1.80030683E-04
 -2.44680652E-04 -9.22603239E-05  2.17603013E-04 -1.98384479E-04  3.04423946E-04
 -5.21156752E-05 -2.99449806E-04  3.12236564E-05 -6.56208148E-05 -2.14667398E-05
  1.01723967E-03  3.98524697E-04  4.28939030E-04  2.11078528E-04 -1.20547166E-04
 -1.23174543E-04 -2.07671432E-04  2.34934349E-05  4.69432476E-05  1.54325181E-04
  9.95633219E-01  2.89980138E-02  1.23731023E-04  1.05725866E-05 -2.11663291E-04
 -2.11983760E-02 -4.56326971E-04  6.55723353E-04  1.76512147E-03 -1.36716921E-03
 -1.38223290E-03 -1.33081142E-03  3.79894958E-05  1.63336718E-05  2.96101551E-05
  2.37396651E-02  6.91775665E-04  6.96651451E-05 -1.54211154E-04  8.65603402E-05
  4.78639167E-03  6.67528660E-04 -1.62316700E-03  1.22566674E-03 -2.07540539E-04
 -2.76803358E-04 -3.33782393E-04  8.08674372E-05 -8.43047686E-05  2.22045222E-04
  1.15191772E-02  3.81891262E-04  1.29420128E-04  1.14725737E-04 -5.05808123E-05
  4.54509639E-03  1.28835170E-03  1.58479516E-03 -2.54274794E-04 -2.70421941E-04
 -3.34357573E-04 -6.83696282E-05 -1.90352650E-04 -3.12254469E-05 -2.73407608E-05
 -3.73838954E-03  4.69098276E-05 -8.07571735E-05  1.35343059E-04  7.86885883E-05
  3.60186892E-03 -3.73964115E-03  6.07835374E-04  6.68221678E-04 -3.70172940E-04
 -1.61549236E-04 -1.68848309E-04  1.22223435E-04  1.47925053E-04 -7.63745439E-05
 -1.85365046E-03 -3.87857862E-04  9.60928312E-05  3.75822646E-06 -5.11248564E-05
  1.90584361E-03 -5.20371530E-04 -5.74318369E-04 -1.80811995E-04 -7.64452858E-05
 -5.70517813E-05 -8.52430043E-05  1.93485857E-05  2.92827331E-05  8.29498869E-05
  3.00430035E-04  2.54538491E-03 -1.84488292E-04 -5.58194291E-05 -1.63801009E-04
 -1.17598253E-04 -1.63682408E-04 -8.07602366E-05 -1.42989379E-04 -3.82159140E-05
 -1.76322612E-04  8.10891419E-06 -1.50575664E-04 -1.52077517E-04 -7.96513229E-05
  1.02529973E-06 -7.20529453E-05  8.82963008E-05 -5.68180317E-05 -3.55180411E-04
 -1.69815513E-05 -1.46970028E-04 -2.04459876E-05 -1.76473494E-05 -1.95400516E-05
  3.58049680E-04 -3.79659193E-04  9.23930787E-05  1.38412136E-04 -2.50459725E-05
 -5.06755295E-05 -6.61512930E-05 -3.97504727E-05 -3.89633204E-05  1.12697013E-04
  1.72345070E-03 -2.77661233E-04 -1.24740585E-04 -5.94926996E-05  1.15360153E-05
  1.46273212E-03  7.96000023E-04  3.14362497E-04 -5.58106991E-04 -4.98110298E-05
 -9.98359905E-05 -7.18152026E-05 -5.82975558E-05 -2.18138064E-05  4.44340262E-05
 -5.00214643E-05  9.14086445E-05 -4.16198390E-05  1.11047793E-05 -4.80357751E-06
 -6.84171110E-04 -2.02058465E-04  2.51643584E-04 -2.09053353E-04 -2.70025170E-05
  2.24236886E-05  2.01769998E-05  2.50587564E-05 -4.45963935E-05  1.49545150E-06
  3.78401086E-05 -9.95039526E-05  1.15316070E-06  1.57370113E-06  2.00844138E-05
  5.26930648E-04  2.19145873E-04  1.55123970E-04 -4.58264281E-05  7.90922620E-08
 -1.37125608E-06 -2.93569161E-05  1.73386958E-05 -1.10088989E-05  1.59236190E-05