
    -----------------------------------------------------------------------
          Psi4: An Open-Source Ab Initio Electronic Structure Package
                               Psi4 1.4a3.dev225 

                         Git: Rev {master} 7105e37 


    D. G. A. Smith, L. A. Burns, A. C. Simmonett, R. M. Parrish,
    M. C. Schieber, R. Galvelis, P. Kraus, H. Kruse, R. Di Remigio,
    A. Alenaizan, A. M. James, S. Lehtola, J. P. Misiewicz, M. Scheurer,
    R. A. Shaw, J. B. Schriber, Y. Xie, Z. L. Glick, D. A. Sirianni,
    J. S. O'Brien, J. M. Waldrop, A. Kumar, E. G. Hohenstein,
    B. P. Pritchard, B. R. Brooks, H. F. Schaefer III, A. Yu. Sokolov,
    K. Patkowski, A. E. DePrince III, U. Bozkaya, R. A. King,
    F. A. Evangelista, J. M. Turney, T. D. Crawford, C. D. Sherrill,
    J. Chem. Phys. 152(18) 184108 (2020). https://doi.org/10.1063/5.0006002

                            Additional Code Authors
    E. T. Seidl, C. L. Janssen, E. F. Valeev, M. L. Leininger,
    J. F. Gonthier, R. M. Richard, H. R. McAlexander, M. Saitow, X. Wang,
    P. Verma, and M. H. Lechner

             Previous Authors, Complete List of Code Contributors,
                       and Citations for Specific Modules
    https://github.com/psi4/psi4/blob/master/codemeta.json
    https://github.com/psi4/psi4/graphs/contributors
    http://psicode.org/psi4manual/master/introduction.html#citing-psifour

    -----------------------------------------------------------------------


    Psi4 started on: Saturday, 06 March 2021 03:25PM

    Process ID: 27497
    Host:       c459-073.stampede2.tacc.utexas.edu
    PSIDATADIR: /home1/07844/xy3866/miniconda3/envs/p4env/share/psi4
    Memory:     500.0 MiB
    Threads:    32
    
  ==> Input File <==

--------------------------------------------------------------------------
#psi4
#
memory 32 gb

molecule  {
-1 1
  O        1.1351350    -0.6918790     0.0330860
  O        0.1531200     1.3913640    -0.1728610
  O        2.4463690    -0.1041220     0.2385550
  C       -1.1465760    -0.6228910    -0.4018730
  C       -2.2980290    -0.0223870     0.3984860
  C        0.1501230     0.1562480    -0.1588130
  H       -1.3573008    -0.5670024    -1.3758925
  H       -0.9935530    -1.6784970    -0.1594820
  H       -3.2561770    -0.4998690     0.1615910
  H       -2.3644390     1.0456200     0.1820980
  H       -2.1175180    -0.1345730     1.4722280
units angstrom
no_reorient  #important for SAPT in psi4, default
symmetry c1  #important for SAPT in psi4, default
}

set PROPERTIES_ORIGIN ["COM"]
properties('MP2/aug-cc-pvtz', properties = ['dipole'])
--------------------------------------------------------------------------

  Memory set to  29.802 GiB by Python driver.
    SCF Algorithm Type (re)set to DF.

*** tstart() called on c459-073.stampede2.tacc.utexas.edu
*** at Sat Mar  6 15:25:51 2021

   => Loading Basis Set <=

    Name: AUG-CC-PVTZ
    Role: ORBITAL
    Keyword: BASIS
    atoms 1-3  entry O          line   331 file /home1/07844/xy3866/miniconda3/envs/p4env/share/psi4/basis/aug-cc-pvtz.gbs 
    atoms 4-6  entry C          line   239 file /home1/07844/xy3866/miniconda3/envs/p4env/share/psi4/basis/aug-cc-pvtz.gbs 
    atoms 7-11 entry H          line    40 file /home1/07844/xy3866/miniconda3/envs/p4env/share/psi4/basis/aug-cc-pvtz.gbs 


         ---------------------------------------------------------
                                   SCF
               by Justin Turney, Rob Parrish, Andy Simmonett
                          and Daniel G. A. Smith
                              RHF Reference
                       32 Threads,  30517 MiB Core
         ---------------------------------------------------------

  ==> Geometry <==

    Molecular point group: c1
    Full point group: C1

    Geometry (in Angstrom), charge = -1, multiplicity = 1:

       Center              X                  Y                   Z               Mass       
    ------------   -----------------  -----------------  -----------------  -----------------
         O            1.022431815203    -0.712162833408     0.034026024071    15.994914619570
         O            0.040416815203     1.371080166592    -0.171920975929    15.994914619570
         O            2.333665815203    -0.124405833408     0.239495024071    15.994914619570
         C           -1.259279184797    -0.643174833408    -0.400932975929    12.000000000000
         C           -2.410732184797    -0.042670833408     0.399426024071    12.000000000000
         C            0.037419815203     0.135964166592    -0.157872975929    12.000000000000
         H           -1.470003984797    -0.587286233408    -1.374952475929     1.007825032230
         H           -1.106256184797    -1.698780833408    -0.158541975929     1.007825032230
         H           -3.368880184797    -0.520152833408     0.162531024071     1.007825032230
         H           -2.477142184797     1.025336166592     0.183038024071     1.007825032230
         H           -2.230221184797    -0.154856833408     1.473168024071     1.007825032230

  Running in c1 symmetry.

  Rotational constants: A =      0.29096  B =      0.07380  C =      0.06314 [cm^-1]
  Rotational constants: A =   8722.71128  B =   2212.55088  C =   1892.97095 [MHz]
  Nuclear repulsion =  231.978719484570973

  Charge       = -1
  Multiplicity = 1
  Electrons    = 48
  Nalpha       = 24
  Nbeta        = 24

  ==> Algorithm <==

  SCF Algorithm Type is DF.
  DIIS enabled.
  MOM disabled.
  Fractional occupation disabled.
  Guess Type is SAD.
  Energy threshold   = 1.00e-10
  Density threshold  = 1.00e-10
  Integral threshold = 1.00e-12

  ==> Primary Basis <==

  Basis Set: AUG-CC-PVTZ
    Blend: AUG-CC-PVTZ
    Number of shells: 129
    Number of basis functions: 391
    Number of Cartesian functions: 455
    Spherical Harmonics?: true
    Max angular momentum: 3

   => Loading Basis Set <=

    Name: (AUG-CC-PVTZ AUX)
    Role: JKFIT
    Keyword: DF_BASIS_SCF
    atoms 1-3  entry O          line   286 file /home1/07844/xy3866/miniconda3/envs/p4env/share/psi4/basis/aug-cc-pvtz-jkfit.gbs 
    atoms 4-6  entry C          line   162 file /home1/07844/xy3866/miniconda3/envs/p4env/share/psi4/basis/aug-cc-pvtz-jkfit.gbs 
    atoms 7-11 entry H          line    70 file /home1/07844/xy3866/miniconda3/envs/p4env/share/psi4/basis/aug-cc-pvtz-jkfit.gbs 

  ==> Integral Setup <==

  DFHelper Memory: AOs need 1.001 GiB; user supplied 22.352 GiB. Using in-core AOs.

  ==> MemDFJK: Density-Fitted J/K Matrices <==

    J tasked:                   Yes
    K tasked:                   Yes
    wK tasked:                   No
    OpenMP threads:              32
    Memory [MiB]:             22888
    Algorithm:                 Core
    Schwarz Cutoff:           1E-12
    Mask sparsity (%):       4.5879
    Fitting Condition:        1E-10

   => Auxiliary Basis Set <=

  Basis Set: (AUG-CC-PVTZ AUX)
    Blend: AUG-CC-PVTZ-JKFIT
    Number of shells: 250
    Number of basis functions: 854
    Number of Cartesian functions: 1061
    Spherical Harmonics?: true
    Max angular momentum: 4

  Minimum eigenvalue in the overlap matrix is 1.5407188029E-05.
  Reciprocal condition number of the overlap matrix is 9.9435806494E-07.
    Using symmetric orthogonalization.

  ==> Pre-Iterations <==

  SCF Guess: Superposition of Atomic Densities via on-the-fly atomic UHF (no occupation information).

   -------------------------
    Irrep   Nso     Nmo    
   -------------------------
     A        391     391 
   -------------------------
    Total     391     391
   -------------------------

  ==> Iterations <==

                           Total Energy        Delta E     RMS |[F,P]|

   @DF-RHF iter SAD:  -339.70182460162169   -3.39702e+02   0.00000e+00 
   @DF-RHF iter   1:  -340.87362027960756   -1.17180e+00   1.87405e-03 DIIS
   @DF-RHF iter   2:  -341.04067226251965   -1.67052e-01   1.29818e-03 DIIS
   @DF-RHF iter   3:  -341.12761720550725   -8.69449e-02   2.37875e-04 DIIS
   @DF-RHF iter   4:  -341.13240468596916   -4.78748e-03   1.05169e-04 DIIS
   @DF-RHF iter   5:  -341.13353867981129   -1.13399e-03   2.55407e-05 DIIS
   @DF-RHF iter   6:  -341.13367025063411   -1.31571e-04   1.36908e-05 DIIS
   @DF-RHF iter   7:  -341.13369801560714   -2.77650e-05   4.44671e-06 DIIS
   @DF-RHF iter   8:  -341.13370196912490   -3.95352e-06   1.33965e-06 DIIS
   @DF-RHF iter   9:  -341.13370232021617   -3.51091e-07   4.24156e-07 DIIS
   @DF-RHF iter  10:  -341.13370234296451   -2.27483e-08   1.50392e-07 DIIS
   @DF-RHF iter  11:  -341.13370234604696   -3.08245e-09   4.36131e-08 DIIS
   @DF-RHF iter  12:  -341.13370234642264   -3.75678e-10   2.06652e-08 DIIS
   @DF-RHF iter  13:  -341.13370234653240   -1.09765e-10   8.85905e-09 DIIS
   @DF-RHF iter  14:  -341.13370234656327   -3.08660e-11   3.69348e-09 DIIS
   @DF-RHF iter  15:  -341.13370234656890   -5.62750e-12   1.51518e-09 DIIS
   @DF-RHF iter  16:  -341.13370234657009   -1.19371e-12   8.42187e-10 DIIS
   @DF-RHF iter  17:  -341.13370234657026   -1.70530e-13   2.99647e-10 DIIS
   @DF-RHF iter  18:  -341.13370234657026    0.00000e+00   1.70441e-10 DIIS
   @DF-RHF iter  19:  -341.13370234656963    6.25278e-13   6.45019e-11 DIIS
  Energy and wave function converged.


  ==> Post-Iterations <==

    Orbital Energies [Eh]
    ---------------------

    Doubly Occupied:                                                      

       1A    -20.411699     2A    -20.347216     3A    -20.300182  
       4A    -11.186100     5A    -11.094054     6A    -11.079353  
       7A     -1.256441     8A     -1.159295     9A     -0.940586  
      10A     -0.895066    11A     -0.738673    12A     -0.572177  
      13A     -0.506375    14A     -0.499251    15A     -0.453403  
      16A     -0.435231    17A     -0.411561    18A     -0.379303  
      19A     -0.366969    20A     -0.311117    21A     -0.290944  
      22A     -0.250966    23A     -0.189935    24A     -0.165446  

    Virtual:                                                              

      25A      0.108019    26A      0.126455    27A      0.130605  
      28A      0.139506    29A      0.150274    30A      0.192018  
      31A      0.195198    32A      0.208399    33A      0.214741  
      34A      0.228454    35A      0.233839    36A      0.247445  
      37A      0.252726    38A      0.257978    39A      0.263127  
      40A      0.285995    41A      0.299587    42A      0.317701  
      43A      0.333868    44A      0.339499    45A      0.344431  
      46A      0.353999    47A      0.358471    48A      0.383587  
      49A      0.389436    50A      0.392002    51A      0.399731  
      52A      0.404415    53A      0.408946    54A      0.414757  
      55A      0.424774    56A      0.444110    57A      0.448715  
      58A      0.460516    59A      0.472468    60A      0.474278  
      61A      0.482165    62A      0.488439    63A      0.499896  
      64A      0.502123    65A      0.507943    66A      0.513831  
      67A      0.518237    68A      0.530554    69A      0.544087  
      70A      0.551076    71A      0.556405    72A      0.569827  
      73A      0.579914    74A      0.588989    75A      0.599394  
      76A      0.610447    77A      0.617378    78A      0.627401  
      79A      0.632126    80A      0.641833    81A      0.651183  
      82A      0.655254    83A      0.675569    84A      0.682925  
      85A      0.702358    86A      0.713343    87A      0.721509  
      88A      0.728656    89A      0.749084    90A      0.760816  
      91A      0.774538    92A      0.789848    93A      0.842420  
      94A      0.858835    95A      0.872281    96A      0.890450  
      97A      0.904290    98A      0.917926    99A      0.933122  
     100A      0.946103   101A      0.954476   102A      0.958097  
     103A      0.972727   104A      0.985347   105A      0.987951  
     106A      1.001176   107A      1.008329   108A      1.016201  
     109A      1.023336   110A      1.028757   111A      1.041940  
     112A      1.052102   113A      1.067477   114A      1.071420  
     115A      1.078305   116A      1.089514   117A      1.091487  
     118A      1.098622   119A      1.106787   120A      1.109453  
     121A      1.122343   122A      1.137441   123A      1.144820  
     124A      1.149383   125A      1.163680   126A      1.189022  
     127A      1.198087   128A      1.205434   129A      1.215231  
     130A      1.230128   131A      1.245513   132A      1.249884  
     133A      1.261299   134A      1.268459   135A      1.277349  
     136A      1.292179   137A      1.300783   138A      1.319126  
     139A      1.336134   140A      1.346737   141A      1.358728  
     142A      1.371336   143A      1.383162   144A      1.396753  
     145A      1.401290   146A      1.409978   147A      1.434124  
     148A      1.453606   149A      1.463850   150A      1.476146  
     151A      1.499653   152A      1.526187   153A      1.535222  
     154A      1.566678   155A      1.580911   156A      1.591443  
     157A      1.602200   158A      1.615450   159A      1.630657  
     160A      1.646818   161A      1.658815   162A      1.671263  
     163A      1.689158   164A      1.706062   165A      1.725716  
     166A      1.742735   167A      1.747603   168A      1.768734  
     169A      1.781224   170A      1.798491   171A      1.806473  
     172A      1.812269   173A      1.832607   174A      1.847198  
     175A      1.855596   176A      1.865633   177A      1.882502  
     178A      1.899136   179A      1.925414   180A      1.942339  
     181A      1.949052   182A      1.958383   183A      1.994291  
     184A      2.013867   185A      2.036496   186A      2.066541  
     187A      2.080155   188A      2.086581   189A      2.103716  
     190A      2.118105   191A      2.130200   192A      2.151779  
     193A      2.158615   194A      2.170668   195A      2.187978  
     196A      2.218183   197A      2.261118   198A      2.302966  
     199A      2.307189   200A      2.341966   201A      2.352356  
     202A      2.368818   203A      2.381801   204A      2.405883  
     205A      2.415587   206A      2.447351   207A      2.452069  
     208A      2.458928   209A      2.465149   210A      2.501019  
     211A      2.513905   212A      2.529330   213A      2.549470  
     214A      2.555439   215A      2.588359   216A      2.622284  
     217A      2.645558   218A      2.655498   219A      2.685251  
     220A      2.696547   221A      2.703124   222A      2.745601  
     223A      2.770771   224A      2.787181   225A      2.793091  
     226A      2.824858   227A      2.844311   228A      2.907714  
     229A      2.911279   230A      2.958928   231A      2.967227  
     232A      2.990873   233A      3.022722   234A      3.039786  
     235A      3.054005   236A      3.088612   237A      3.099857  
     238A      3.146783   239A      3.164397   240A      3.198288  
     241A      3.255549   242A      3.281211   243A      3.322844  
     244A      3.329324   245A      3.362876   246A      3.411244  
     247A      3.469821   248A      3.509239   249A      3.521941  
     250A      3.554995   251A      3.579282   252A      3.589824  
     253A      3.632455   254A      3.635573   255A      3.667737  
     256A      3.695283   257A      3.706497   258A      3.732901  
     259A      3.753073   260A      3.768427   261A      3.803701  
     262A      3.818083   263A      3.842069   264A      3.867728  
     265A      3.879874   266A      3.908935   267A      3.921768  
     268A      3.929715   269A      3.971714   270A      4.002802  
     271A      4.036170   272A      4.046233   273A      4.065735  
     274A      4.081766   275A      4.108344   276A      4.114039  
     277A      4.137558   278A      4.176752   279A      4.187067  
     280A      4.214835   281A      4.239313   282A      4.267001  
     283A      4.272073   284A      4.322255   285A      4.331669  
     286A      4.368776   287A      4.382217   288A      4.406796  
     289A      4.421398   290A      4.470946   291A      4.517684  
     292A      4.549570   293A      4.589955   294A      4.595469  
     295A      4.656662   296A      4.675807   297A      4.707787  
     298A      4.736288   299A      4.769464   300A      4.773956  
     301A      4.818219   302A      4.830491   303A      4.878975  
     304A      4.892018   305A      4.946627   306A      4.959535  
     307A      4.994299   308A      5.007271   309A      5.035136  
     310A      5.092216   311A      5.104408   312A      5.140147  
     313A      5.164777   314A      5.182161   315A      5.194947  
     316A      5.211824   317A      5.263471   318A      5.285635  
     319A      5.344776   320A      5.349051   321A      5.391665  
     322A      5.446874   323A      5.453233   324A      5.530554  
     325A      5.554744   326A      5.580592   327A      5.619885  
     328A      5.653944   329A      5.701230   330A      5.733313  
     331A      5.799497   332A      5.870219   333A      5.900596  
     334A      5.910417   335A      5.970010   336A      6.067933  
     337A      6.111318   338A      6.176408   339A      6.240417  
     340A      6.300280   341A      6.317503   342A      6.423227  
     343A      6.449183   344A      6.537309   345A      6.585464  
     346A      6.625258   347A      6.738939   348A      6.799415  
     349A      6.841133   350A      6.862518   351A      6.865365  
     352A      6.889540   353A      6.916131   354A      6.946894  
     355A      6.987051   356A      7.000150   357A      7.013064  
     358A      7.030464   359A      7.124520   360A      7.129591  
     361A      7.160211   362A      7.233367   363A      7.311165  
     364A      7.364696   365A      7.440719   366A      7.450345  
     367A      7.471573   368A      7.488510   369A      7.532441  
     370A      7.551834   371A      7.582750   372A      7.591512  
     373A      7.651454   374A      7.706420   375A      7.752885  
     376A      7.822984   377A      7.866316   378A      7.892079  
     379A      7.962683   380A      8.026330   381A      8.111637  
     382A      8.188859   383A      8.296664   384A      8.444562  
     385A      9.008384   386A     13.322110   387A     15.044800  
     388A     15.863858   389A     17.689850   390A     18.196209  
     391A     19.515246  

    Final Occupation by Irrep:
              A 
    DOCC [    24 ]

  @DF-RHF Final Energy:  -341.13370234656963

   => Energetics <=

    Nuclear Repulsion Energy =            231.9787194845709735
    One-Electron Energy =                -937.7421585456738740
    Two-Electron Energy =                 364.6297367145332373
    Total Energy =                       -341.1337023465696348

Computation Completed

*** tstop() called on c459-073.stampede2.tacc.utexas.edu at Sat Mar  6 15:26:04 2021
Module time:
	user time   =     207.35 seconds =       3.46 minutes
	system time =      17.50 seconds =       0.29 minutes
	total time  =         13 seconds =       0.22 minutes
Total time:
	user time   =     207.35 seconds =       3.46 minutes
	system time =      17.50 seconds =       0.29 minutes
	total time  =         13 seconds =       0.22 minutes
   => Loading Basis Set <=

    Name: (AUG-CC-PVTZ AUX)
    Role: RIFIT
    Keyword: DF_BASIS_MP2
    atoms 1-3  entry O          line   264 file /home1/07844/xy3866/miniconda3/envs/p4env/share/psi4/basis/aug-cc-pvtz-ri.gbs 
    atoms 4-6  entry C          line   148 file /home1/07844/xy3866/miniconda3/envs/p4env/share/psi4/basis/aug-cc-pvtz-ri.gbs 
    atoms 7-11 entry H          line    30 file /home1/07844/xy3866/miniconda3/envs/p4env/share/psi4/basis/aug-cc-pvtz-ri.gbs 


*** tstart() called on c459-073.stampede2.tacc.utexas.edu
*** at Sat Mar  6 15:26:05 2021


  //>>>>>>>>>>>>>>>>>>>>>>>>>>>>>>>>>>>//
  //               DFMP2               //
  //<<<<<<<<<<<<<<<<<<<<<<<<<<<<<<<<<<<//

	 --------------------------------------------------------
	                          DF-MP2                         
	      2nd-Order Density-Fitted Moller-Plesset Theory     
	              RMP2 Wavefunction,  32 Threads             
	                                                         
	        Rob Parrish, Justin Turney, Andy Simmonett,      
	           Ed Hohenstein, and C. David Sherrill          
	 --------------------------------------------------------

   => Auxiliary Basis Set <=

  Basis Set: (AUG-CC-PVTZ AUX)
    Blend: AUG-CC-PVTZ-RI
    Number of shells: 238
    Number of basis functions: 866
    Number of Cartesian functions: 1091
    Spherical Harmonics?: true
    Max angular momentum: 4

	 --------------------------------------------------------
	                 NBF =   391, NAUX =   866
	 --------------------------------------------------------
	   CLASS    FOCC     OCC    AOCC    AVIR     VIR    FVIR
	   PAIRS       0      24      24     367     367       0
	 --------------------------------------------------------

  DFHelper Memory: AOs need 1.018 GiB; user supplied 22.352 GiB. Using in-core AOs.


         ------------------------------------------------------------
                                     CPHF                           
                                  Rob Parrish                       
         ------------------------------------------------------------

  ==> Geometry <==

    Molecular point group: c1
    Full point group: C1

    Geometry (in Angstrom), charge = -1, multiplicity = 1:

       Center              X                  Y                   Z               Mass       
    ------------   -----------------  -----------------  -----------------  -----------------
         O            1.022431815203    -0.712162833408     0.034026024071    15.994914619570
         O            0.040416815203     1.371080166592    -0.171920975929    15.994914619570
         O            2.333665815203    -0.124405833408     0.239495024071    15.994914619570
         C           -1.259279184797    -0.643174833408    -0.400932975929    12.000000000000
         C           -2.410732184797    -0.042670833408     0.399426024071    12.000000000000
         C            0.037419815203     0.135964166592    -0.157872975929    12.000000000000
         H           -1.470003984797    -0.587286233408    -1.374952475929     1.007825032230
         H           -1.106256184797    -1.698780833408    -0.158541975929     1.007825032230
         H           -3.368880184797    -0.520152833408     0.162531024071     1.007825032230
         H           -2.477142184797     1.025336166592     0.183038024071     1.007825032230
         H           -2.230221184797    -0.154856833408     1.473168024071     1.007825032230

  Nuclear repulsion =  231.978719484570973
  Reference energy  = -341.133702346569635

  ==> Basis Set <==

  Basis Set: AUG-CC-PVTZ
    Blend: AUG-CC-PVTZ
    Number of shells: 129
    Number of basis functions: 391
    Number of Cartesian functions: 455
    Spherical Harmonics?: true
    Max angular momentum: 3

  ==> CGRSolver (by Rob Parrish) <==

   Number of roots    =         1
   Preconditioning    =    JACOBI
   Convergence cutoff =     1E-06
   Maximum iterations =       100

  ==> CPHFRHamiltonian (by Rob Parrish) <== 

  ==> MemDFJK: Density-Fitted J/K Matrices <==

    J tasked:                   Yes
    K tasked:                   Yes
    wK tasked:                   No
    OpenMP threads:              32
    Memory [MiB]:             22888
    Algorithm:                 Core
    Schwarz Cutoff:           1E-12
    Mask sparsity (%):       2.8179
    Fitting Condition:        1E-10

   => Auxiliary Basis Set <=

  Basis Set: (AUG-CC-PVTZ AUX)
    Blend: AUG-CC-PVTZ-JKFIT
    Number of shells: 250
    Number of basis functions: 854
    Number of Cartesian functions: 1061
    Spherical Harmonics?: true
    Max angular momentum: 4

  ==> CPHF Iterations <==

  => Iterations <=

             Iter  Converged  Remaining    Residual
  CGR           1          0          1   1.535E-01
  CGR           2          0          1   4.458E-02
  CGR           3          0          1   1.851E-02
  CGR           4          0          1   5.472E-03
  CGR           5          0          1   2.362E-03
  CGR           6          0          1   1.005E-03
  CGR           7          0          1   5.202E-04
  CGR           8          0          1   2.993E-04
  CGR           9          0          1   9.768E-05
  CGR          10          0          1   3.655E-05
  CGR          11          0          1   1.173E-05
  CGR          12          0          1   4.488E-06
  CGR          13          0          1   1.457E-06
  CGR          14          1          0   4.554E-07

    CGRSolver converged.

	-----------------------------------------------------------
	 ==================> DF-MP2 Energies <==================== 
	-----------------------------------------------------------
	 Reference Energy          =    -341.1337023465696348 [Eh]
	 Singles Energy            =      -0.0000000000000000 [Eh]
	 Same-Spin Energy          =      -0.3295579471748853 [Eh]
	 Opposite-Spin Energy      =      -1.0180983555258112 [Eh]
	 Correlation Energy        =      -1.3476563027006965 [Eh]
	 Total Energy              =    -342.4813586492703052 [Eh]
	-----------------------------------------------------------
	 ================> DF-SCS-MP2 Energies <================== 
	-----------------------------------------------------------
	 SCS Same-Spin Scale       =       0.3333333333333333 [-]
	 SCS Opposite-Spin Scale   =       1.2000000000000000 [-]
	 SCS Same-Spin Energy      =      -0.1098526490582951 [Eh]
	 SCS Opposite-Spin Energy  =      -1.2217180266309733 [Eh]
	 SCS Correlation Energy    =      -1.3315706756892685 [Eh]
	 SCS Total Energy          =    -342.4652730222588843 [Eh]
	-----------------------------------------------------------



Properties will be evaluated at   0.000000,   0.000000,  -0.000000 [a0]

Properties computed using the MP2 density matrix

  Nuclear Dipole Moment: [e a0]
     X:    -9.9701      Y:    -1.8121      Z:     0.2679

  Electronic Dipole Moment: [e a0]
     X:     6.8901      Y:     1.0946      Z:    -0.5765

  Dipole Moment: [e a0]
     X:    -3.0800      Y:    -0.7175      Z:    -0.3086     Total:     3.1774

  Dipole Moment: [D]
     X:    -7.8285      Y:    -1.8237      Z:    -0.7844     Total:     8.0763


*** tstop() called on c459-073.stampede2.tacc.utexas.edu at Sat Mar  6 15:27:11 2021
Module time:
	user time   =     445.91 seconds =       7.43 minutes
	system time =      17.19 seconds =       0.29 minutes
	total time  =         66 seconds =       1.10 minutes
Total time:
	user time   =     654.70 seconds =      10.91 minutes
	system time =      34.80 seconds =       0.58 minutes
	total time  =         80 seconds =       1.33 minutes

    Psi4 stopped on: Saturday, 06 March 2021 03:27PM
    Psi4 wall time for execution: 0:01:19.85

*** Psi4 exiting successfully. Buy a developer a beer!
