
    -----------------------------------------------------------------------
          Psi4: An Open-Source Ab Initio Electronic Structure Package
                               Psi4 1.4a3.dev225 

                         Git: Rev {master} 7105e37 


    D. G. A. Smith, L. A. Burns, A. C. Simmonett, R. M. Parrish,
    M. C. Schieber, R. Galvelis, P. Kraus, H. Kruse, R. Di Remigio,
    A. Alenaizan, A. M. James, S. Lehtola, J. P. Misiewicz, M. Scheurer,
    R. A. Shaw, J. B. Schriber, Y. Xie, Z. L. Glick, D. A. Sirianni,
    J. S. O'Brien, J. M. Waldrop, A. Kumar, E. G. Hohenstein,
    B. P. Pritchard, B. R. Brooks, H. F. Schaefer III, A. Yu. Sokolov,
    K. Patkowski, A. E. DePrince III, U. Bozkaya, R. A. King,
    F. A. Evangelista, J. M. Turney, T. D. Crawford, C. D. Sherrill,
    J. Chem. Phys. 152(18) 184108 (2020). https://doi.org/10.1063/5.0006002

                            Additional Code Authors
    E. T. Seidl, C. L. Janssen, E. F. Valeev, M. L. Leininger,
    J. F. Gonthier, R. M. Richard, H. R. McAlexander, M. Saitow, X. Wang,
    P. Verma, and M. H. Lechner

             Previous Authors, Complete List of Code Contributors,
                       and Citations for Specific Modules
    https://github.com/psi4/psi4/blob/master/codemeta.json
    https://github.com/psi4/psi4/graphs/contributors
    http://psicode.org/psi4manual/master/introduction.html#citing-psifour

    -----------------------------------------------------------------------


    Psi4 started on: Saturday, 06 March 2021 03:06PM

    Process ID: 18856
    Host:       c459-073.stampede2.tacc.utexas.edu
    PSIDATADIR: /home1/07844/xy3866/miniconda3/envs/p4env/share/psi4
    Memory:     500.0 MiB
    Threads:    32
    
  ==> Input File <==

--------------------------------------------------------------------------
#psi4
#
memory 32 gb

molecule  {
-1 1
  O        1.1351350    -0.6918790     0.0330860
  O        0.1531200     1.3913640    -0.1728610
  O        2.4463690    -0.1041220     0.2385550
  C       -1.2259028    -0.5787143    -0.5332162
  C       -2.2980290    -0.0223870     0.3984860
  C        0.1501230     0.1562480    -0.1588130
  H       -1.3784130    -0.5614030    -1.4734780
  H       -0.9935530    -1.6784970    -0.1594820
  H       -3.2561770    -0.4998690     0.1615910
  H       -2.3644390     1.0456200     0.1820980
  H       -2.1175180    -0.1345730     1.4722280
units angstrom
no_reorient  #important for SAPT in psi4, default
symmetry c1  #important for SAPT in psi4, default
}

set PROPERTIES_ORIGIN ["COM"]
properties('MP2/aug-cc-pvtz', properties = ['dipole'])
--------------------------------------------------------------------------

  Memory set to  29.802 GiB by Python driver.
    SCF Algorithm Type (re)set to DF.

*** tstart() called on c459-073.stampede2.tacc.utexas.edu
*** at Sat Mar  6 15:06:05 2021

   => Loading Basis Set <=

    Name: AUG-CC-PVTZ
    Role: ORBITAL
    Keyword: BASIS
    atoms 1-3  entry O          line   331 file /home1/07844/xy3866/miniconda3/envs/p4env/share/psi4/basis/aug-cc-pvtz.gbs 
    atoms 4-6  entry C          line   239 file /home1/07844/xy3866/miniconda3/envs/p4env/share/psi4/basis/aug-cc-pvtz.gbs 
    atoms 7-11 entry H          line    40 file /home1/07844/xy3866/miniconda3/envs/p4env/share/psi4/basis/aug-cc-pvtz.gbs 


         ---------------------------------------------------------
                                   SCF
               by Justin Turney, Rob Parrish, Andy Simmonett
                          and Daniel G. A. Smith
                              RHF Reference
                       32 Threads,  30517 MiB Core
         ---------------------------------------------------------

  ==> Geometry <==

    Molecular point group: c1
    Full point group: C1

    Geometry (in Angstrom), charge = -1, multiplicity = 1:

       Center              X                  Y                   Z               Mass       
    ------------   -----------------  -----------------  -----------------  -----------------
         O            1.033363703632    -0.718181035284     0.052835221291    15.994914619570
         O            0.051348703632     1.365061964716    -0.153111778709    15.994914619570
         O            2.344597703632    -0.130424035284     0.258304221291    15.994914619570
         C           -1.327674096368    -0.605016335284    -0.513466978709    12.000000000000
         C           -2.399800296368    -0.048689035284     0.418235221291    12.000000000000
         C            0.048351703632     0.129945964716    -0.139063778709    12.000000000000
         H           -1.480184296368    -0.587705035284    -1.453728778709     1.007825032230
         H           -1.095324296368    -1.704799035284    -0.139732778709     1.007825032230
         H           -3.357948296368    -0.526171035284     0.181340221291     1.007825032230
         H           -2.466210296368     1.019317964716     0.201847221291     1.007825032230
         H           -2.219289296368    -0.160875035284     1.491977221291     1.007825032230

  Running in c1 symmetry.

  Rotational constants: A =      0.28615  B =      0.07245  C =      0.06269 [cm^-1]
  Rotational constants: A =   8578.65522  B =   2171.92555  C =   1879.54200 [MHz]
  Nuclear repulsion =  230.389896207854207

  Charge       = -1
  Multiplicity = 1
  Electrons    = 48
  Nalpha       = 24
  Nbeta        = 24

  ==> Algorithm <==

  SCF Algorithm Type is DF.
  DIIS enabled.
  MOM disabled.
  Fractional occupation disabled.
  Guess Type is SAD.
  Energy threshold   = 1.00e-10
  Density threshold  = 1.00e-10
  Integral threshold = 1.00e-12

  ==> Primary Basis <==

  Basis Set: AUG-CC-PVTZ
    Blend: AUG-CC-PVTZ
    Number of shells: 129
    Number of basis functions: 391
    Number of Cartesian functions: 455
    Spherical Harmonics?: true
    Max angular momentum: 3

   => Loading Basis Set <=

    Name: (AUG-CC-PVTZ AUX)
    Role: JKFIT
    Keyword: DF_BASIS_SCF
    atoms 1-3  entry O          line   286 file /home1/07844/xy3866/miniconda3/envs/p4env/share/psi4/basis/aug-cc-pvtz-jkfit.gbs 
    atoms 4-6  entry C          line   162 file /home1/07844/xy3866/miniconda3/envs/p4env/share/psi4/basis/aug-cc-pvtz-jkfit.gbs 
    atoms 7-11 entry H          line    70 file /home1/07844/xy3866/miniconda3/envs/p4env/share/psi4/basis/aug-cc-pvtz-jkfit.gbs 

  ==> Integral Setup <==

  DFHelper Memory: AOs need 1.000 GiB; user supplied 22.352 GiB. Using in-core AOs.

  ==> MemDFJK: Density-Fitted J/K Matrices <==

    J tasked:                   Yes
    K tasked:                   Yes
    wK tasked:                   No
    OpenMP threads:              32
    Memory [MiB]:             22888
    Algorithm:                 Core
    Schwarz Cutoff:           1E-12
    Mask sparsity (%):       4.6324
    Fitting Condition:        1E-10

   => Auxiliary Basis Set <=

  Basis Set: (AUG-CC-PVTZ AUX)
    Blend: AUG-CC-PVTZ-JKFIT
    Number of shells: 250
    Number of basis functions: 854
    Number of Cartesian functions: 1061
    Spherical Harmonics?: true
    Max angular momentum: 4

  Minimum eigenvalue in the overlap matrix is 1.6084597773E-05.
  Reciprocal condition number of the overlap matrix is 1.0448190857E-06.
    Using symmetric orthogonalization.

  ==> Pre-Iterations <==

  SCF Guess: Superposition of Atomic Densities via on-the-fly atomic UHF (no occupation information).

   -------------------------
    Irrep   Nso     Nmo    
   -------------------------
     A        391     391 
   -------------------------
    Total     391     391
   -------------------------

  ==> Iterations <==

                           Total Energy        Delta E     RMS |[F,P]|

   @DF-RHF iter SAD:  -339.57349620667901   -3.39573e+02   0.00000e+00 
   @DF-RHF iter   1:  -340.84476139868991   -1.27127e+00   1.88883e-03 DIIS
   @DF-RHF iter   2:  -341.00956383772711   -1.64802e-01   1.34033e-03 DIIS
   @DF-RHF iter   3:  -341.10310604062948   -9.35422e-02   2.35627e-04 DIIS
   @DF-RHF iter   4:  -341.10789737395766   -4.79133e-03   1.05504e-04 DIIS
   @DF-RHF iter   5:  -341.10904228242305   -1.14491e-03   2.57975e-05 DIIS
   @DF-RHF iter   6:  -341.10917454949214   -1.32267e-04   1.35865e-05 DIIS
   @DF-RHF iter   7:  -341.10920176654315   -2.72171e-05   4.41840e-06 DIIS
   @DF-RHF iter   8:  -341.10920559281283   -3.82627e-06   1.38571e-06 DIIS
   @DF-RHF iter   9:  -341.10920597106502   -3.78252e-07   4.46286e-07 DIIS
   @DF-RHF iter  10:  -341.10920599828722   -2.72222e-08   1.58300e-07 DIIS
   @DF-RHF iter  11:  -341.10920600222403   -3.93680e-09   5.47653e-08 DIIS
   @DF-RHF iter  12:  -341.10920600288995   -6.65921e-10   2.90466e-08 DIIS
   @DF-RHF iter  13:  -341.10920600315728   -2.67335e-10   1.35897e-08 DIIS
   @DF-RHF iter  14:  -341.10920600324289   -8.56062e-11   5.30011e-09 DIIS
   @DF-RHF iter  15:  -341.10920600325557   -1.26761e-11   2.04747e-09 DIIS
   @DF-RHF iter  16:  -341.10920600325613   -5.68434e-13   1.03274e-09 DIIS
   @DF-RHF iter  17:  -341.10920600325693   -7.95808e-13   3.21319e-10 DIIS
   @DF-RHF iter  18:  -341.10920600325670    2.27374e-13   2.00903e-10 DIIS
   @DF-RHF iter  19:  -341.10920600325653    1.70530e-13   6.83949e-11 DIIS
  Energy and wave function converged.


  ==> Post-Iterations <==

    Orbital Energies [Eh]
    ---------------------

    Doubly Occupied:                                                      

       1A    -20.413909     2A    -20.347196     3A    -20.302650  
       4A    -11.190185     5A    -11.095894     6A    -11.091054  
       7A     -1.256009     8A     -1.159523     9A     -0.934984  
      10A     -0.894837    11A     -0.734915    12A     -0.571365  
      13A     -0.508885    14A     -0.487754    15A     -0.450495  
      16A     -0.438179    17A     -0.412010    18A     -0.399913  
      19A     -0.343968    20A     -0.309939    21A     -0.291780  
      22A     -0.240982    23A     -0.191999    24A     -0.167426  

    Virtual:                                                              

      25A      0.108497    26A      0.125482    27A      0.131672  
      28A      0.138533    29A      0.150522    30A      0.192282  
      31A      0.194913    32A      0.207881    33A      0.214977  
      34A      0.228128    35A      0.233395    36A      0.247390  
      37A      0.252521    38A      0.255828    39A      0.263515  
      40A      0.287490    41A      0.296094    42A      0.316917  
      43A      0.333254    44A      0.337613    45A      0.345331  
      46A      0.355035    47A      0.360667    48A      0.381080  
      49A      0.385979    50A      0.392504    51A      0.398255  
      52A      0.403852    53A      0.406795    54A      0.415480  
      55A      0.421318    56A      0.443552    57A      0.448589  
      58A      0.461296    59A      0.468789    60A      0.476961  
      61A      0.480510    62A      0.485391    63A      0.497746  
      64A      0.500899    65A      0.503718    66A      0.512527  
      67A      0.514230    68A      0.524668    69A      0.532555  
      70A      0.553449    71A      0.556373    72A      0.567996  
      73A      0.571563    74A      0.586495    75A      0.596999  
      76A      0.611357    77A      0.617727    78A      0.627971  
      79A      0.629951    80A      0.639367    81A      0.651157  
      82A      0.653399    83A      0.673069    84A      0.685265  
      85A      0.696022    86A      0.708812    87A      0.718161  
      88A      0.721831    89A      0.740441    90A      0.757770  
      91A      0.775513    92A      0.790215    93A      0.824815  
      94A      0.865296    95A      0.874091    96A      0.888858  
      97A      0.896720    98A      0.916076    99A      0.927493  
     100A      0.935461   101A      0.951566   102A      0.954486  
     103A      0.967955   104A      0.982678   105A      0.985462  
     106A      0.998443   107A      1.005305   108A      1.008048  
     109A      1.022867   110A      1.029887   111A      1.036906  
     112A      1.047060   113A      1.058151   114A      1.061097  
     115A      1.073047   116A      1.081158   117A      1.089115  
     118A      1.094115   119A      1.103289   120A      1.113228  
     121A      1.123902   122A      1.136253   123A      1.141529  
     124A      1.150009   125A      1.156202   126A      1.190360  
     127A      1.200019   128A      1.204506   129A      1.214420  
     130A      1.222405   131A      1.244737   132A      1.249550  
     133A      1.254151   134A      1.266822   135A      1.278025  
     136A      1.292118   137A      1.304108   138A      1.316932  
     139A      1.332714   140A      1.344663   141A      1.351984  
     142A      1.361014   143A      1.377828   144A      1.390790  
     145A      1.395981   146A      1.406074   147A      1.424948  
     148A      1.456996   149A      1.465383   150A      1.478594  
     151A      1.495921   152A      1.529034   153A      1.534456  
     154A      1.552004   155A      1.571614   156A      1.578179  
     157A      1.596796   158A      1.621806   159A      1.625688  
     160A      1.644590   161A      1.656043   162A      1.658472  
     163A      1.685879   164A      1.698553   165A      1.719447  
     166A      1.737987   167A      1.744675   168A      1.761410  
     169A      1.784465   170A      1.796704   171A      1.805752  
     172A      1.818435   173A      1.828836   174A      1.850154  
     175A      1.856053   176A      1.861782   177A      1.881452  
     178A      1.892662   179A      1.912607   180A      1.944599  
     181A      1.952183   182A      1.961036   183A      1.996604  
     184A      1.999806   185A      2.025211   186A      2.037010  
     187A      2.058465   188A      2.077197   189A      2.085755  
     190A      2.104534   191A      2.123039   192A      2.143883  
     193A      2.150528   194A      2.172094   195A      2.190068  
     196A      2.213941   197A      2.244275   198A      2.283714  
     199A      2.295960   200A      2.318966   201A      2.333897  
     202A      2.356526   203A      2.371129   204A      2.381783  
     205A      2.399016   206A      2.424457   207A      2.445150  
     208A      2.450385   209A      2.469606   210A      2.503285  
     211A      2.508696   212A      2.522525   213A      2.533793  
     214A      2.553094   215A      2.595041   216A      2.617170  
     217A      2.658525   218A      2.665390   219A      2.678116  
     220A      2.685292   221A      2.703512   222A      2.714617  
     223A      2.750983   224A      2.773141   225A      2.781866  
     226A      2.810959   227A      2.826451   228A      2.868707  
     229A      2.905628   230A      2.926355   231A      2.949467  
     232A      2.972101   233A      2.995936   234A      3.041277  
     235A      3.051006   236A      3.074060   237A      3.089852  
     238A      3.121012   239A      3.154628   240A      3.182656  
     241A      3.251027   242A      3.260142   243A      3.303305  
     244A      3.358674   245A      3.370374   246A      3.391416  
     247A      3.455004   248A      3.494645   249A      3.507058  
     250A      3.545323   251A      3.571708   252A      3.581924  
     253A      3.603690   254A      3.648523   255A      3.662509  
     256A      3.693525   257A      3.704782   258A      3.731420  
     259A      3.751837   260A      3.780243   261A      3.803572  
     262A      3.815371   263A      3.845660   264A      3.859361  
     265A      3.865674   266A      3.901143   267A      3.917996  
     268A      3.953419   269A      3.974652   270A      3.991171  
     271A      3.993833   272A      4.016781   273A      4.057371  
     274A      4.074682   275A      4.097400   276A      4.109784  
     277A      4.119381   278A      4.168481   279A      4.182705  
     280A      4.207664   281A      4.229943   282A      4.263592  
     283A      4.268406   284A      4.318284   285A      4.340616  
     286A      4.359070   287A      4.372864   288A      4.383893  
     289A      4.417453   290A      4.456062   291A      4.488416  
     292A      4.514976   293A      4.555459   294A      4.576911  
     295A      4.596072   296A      4.647655   297A      4.678999  
     298A      4.702867   299A      4.730878   300A      4.751882  
     301A      4.788363   302A      4.800480   303A      4.819828  
     304A      4.856806   305A      4.914233   306A      4.949275  
     307A      4.963744   308A      4.996233   309A      5.018140  
     310A      5.032809   311A      5.065037   312A      5.113832  
     313A      5.130109   314A      5.158673   315A      5.192622  
     316A      5.208605   317A      5.233629   318A      5.248203  
     319A      5.314781   320A      5.340208   321A      5.377007  
     322A      5.407227   323A      5.432964   324A      5.459170  
     325A      5.499223   326A      5.527478   327A      5.623710  
     328A      5.634575   329A      5.663993   330A      5.713010  
     331A      5.727892   332A      5.807326   333A      5.882017  
     334A      5.909158   335A      5.936784   336A      6.041383  
     337A      6.111939   338A      6.144973   339A      6.205881  
     340A      6.292183   341A      6.309327   342A      6.356596  
     343A      6.381252   344A      6.559847   345A      6.595070  
     346A      6.705375   347A      6.722818   348A      6.806914  
     349A      6.840425   350A      6.857896   351A      6.866856  
     352A      6.888376   353A      6.917828   354A      6.944492  
     355A      6.972120   356A      6.987147   357A      7.009721  
     358A      7.027126   359A      7.121570   360A      7.126752  
     361A      7.156303   362A      7.228862   363A      7.306347  
     364A      7.358662   365A      7.432682   366A      7.441696  
     367A      7.466018   368A      7.484223   369A      7.523041  
     370A      7.548635   371A      7.562943   372A      7.584302  
     373A      7.631613   374A      7.683760   375A      7.739565  
     376A      7.816135   377A      7.854350   378A      7.883276  
     379A      7.930469   380A      8.022081   381A      8.100338  
     382A      8.174693   383A      8.293068   384A      8.421230  
     385A      8.981246   386A     13.311955   387A     14.783666  
     388A     15.731088   389A     17.446277   390A     18.031791  
     391A     19.429760  

    Final Occupation by Irrep:
              A 
    DOCC [    24 ]

  @DF-RHF Final Energy:  -341.10920600325653

   => Energetics <=

    Nuclear Repulsion Energy =            230.3898962078542070
    One-Electron Energy =                -934.5265048504660399
    Two-Electron Energy =                 363.0274026393552731
    Total Energy =                       -341.1092060032565314

Computation Completed

*** tstop() called on c459-073.stampede2.tacc.utexas.edu at Sat Mar  6 15:06:18 2021
Module time:
	user time   =     205.75 seconds =       3.43 minutes
	system time =      16.98 seconds =       0.28 minutes
	total time  =         13 seconds =       0.22 minutes
Total time:
	user time   =     205.75 seconds =       3.43 minutes
	system time =      16.98 seconds =       0.28 minutes
	total time  =         13 seconds =       0.22 minutes
   => Loading Basis Set <=

    Name: (AUG-CC-PVTZ AUX)
    Role: RIFIT
    Keyword: DF_BASIS_MP2
    atoms 1-3  entry O          line   264 file /home1/07844/xy3866/miniconda3/envs/p4env/share/psi4/basis/aug-cc-pvtz-ri.gbs 
    atoms 4-6  entry C          line   148 file /home1/07844/xy3866/miniconda3/envs/p4env/share/psi4/basis/aug-cc-pvtz-ri.gbs 
    atoms 7-11 entry H          line    30 file /home1/07844/xy3866/miniconda3/envs/p4env/share/psi4/basis/aug-cc-pvtz-ri.gbs 


*** tstart() called on c459-073.stampede2.tacc.utexas.edu
*** at Sat Mar  6 15:06:19 2021


  //>>>>>>>>>>>>>>>>>>>>>>>>>>>>>>>>>>>//
  //               DFMP2               //
  //<<<<<<<<<<<<<<<<<<<<<<<<<<<<<<<<<<<//

	 --------------------------------------------------------
	                          DF-MP2                         
	      2nd-Order Density-Fitted Moller-Plesset Theory     
	              RMP2 Wavefunction,  32 Threads             
	                                                         
	        Rob Parrish, Justin Turney, Andy Simmonett,      
	           Ed Hohenstein, and C. David Sherrill          
	 --------------------------------------------------------

   => Auxiliary Basis Set <=

  Basis Set: (AUG-CC-PVTZ AUX)
    Blend: AUG-CC-PVTZ-RI
    Number of shells: 238
    Number of basis functions: 866
    Number of Cartesian functions: 1091
    Spherical Harmonics?: true
    Max angular momentum: 4

	 --------------------------------------------------------
	                 NBF =   391, NAUX =   866
	 --------------------------------------------------------
	   CLASS    FOCC     OCC    AOCC    AVIR     VIR    FVIR
	   PAIRS       0      24      24     367     367       0
	 --------------------------------------------------------

  DFHelper Memory: AOs need 1.018 GiB; user supplied 22.352 GiB. Using in-core AOs.


         ------------------------------------------------------------
                                     CPHF                           
                                  Rob Parrish                       
         ------------------------------------------------------------

  ==> Geometry <==

    Molecular point group: c1
    Full point group: C1

    Geometry (in Angstrom), charge = -1, multiplicity = 1:

       Center              X                  Y                   Z               Mass       
    ------------   -----------------  -----------------  -----------------  -----------------
         O            1.033363703632    -0.718181035284     0.052835221291    15.994914619570
         O            0.051348703632     1.365061964716    -0.153111778709    15.994914619570
         O            2.344597703632    -0.130424035284     0.258304221291    15.994914619570
         C           -1.327674096368    -0.605016335284    -0.513466978709    12.000000000000
         C           -2.399800296368    -0.048689035284     0.418235221291    12.000000000000
         C            0.048351703632     0.129945964716    -0.139063778709    12.000000000000
         H           -1.480184296368    -0.587705035284    -1.453728778709     1.007825032230
         H           -1.095324296368    -1.704799035284    -0.139732778709     1.007825032230
         H           -3.357948296368    -0.526171035284     0.181340221291     1.007825032230
         H           -2.466210296368     1.019317964716     0.201847221291     1.007825032230
         H           -2.219289296368    -0.160875035284     1.491977221291     1.007825032230

  Nuclear repulsion =  230.389896207854179
  Reference energy  = -341.109206003256531

  ==> Basis Set <==

  Basis Set: AUG-CC-PVTZ
    Blend: AUG-CC-PVTZ
    Number of shells: 129
    Number of basis functions: 391
    Number of Cartesian functions: 455
    Spherical Harmonics?: true
    Max angular momentum: 3

  ==> CGRSolver (by Rob Parrish) <==

   Number of roots    =         1
   Preconditioning    =    JACOBI
   Convergence cutoff =     1E-06
   Maximum iterations =       100

  ==> CPHFRHamiltonian (by Rob Parrish) <== 

  ==> MemDFJK: Density-Fitted J/K Matrices <==

    J tasked:                   Yes
    K tasked:                   Yes
    wK tasked:                   No
    OpenMP threads:              32
    Memory [MiB]:             22888
    Algorithm:                 Core
    Schwarz Cutoff:           1E-12
    Mask sparsity (%):       2.8375
    Fitting Condition:        1E-10

   => Auxiliary Basis Set <=

  Basis Set: (AUG-CC-PVTZ AUX)
    Blend: AUG-CC-PVTZ-JKFIT
    Number of shells: 250
    Number of basis functions: 854
    Number of Cartesian functions: 1061
    Spherical Harmonics?: true
    Max angular momentum: 4

  ==> CPHF Iterations <==

  => Iterations <=

             Iter  Converged  Remaining    Residual
  CGR           1          0          1   1.532E-01
  CGR           2          0          1   4.431E-02
  CGR           3          0          1   1.854E-02
  CGR           4          0          1   5.473E-03
  CGR           5          0          1   2.386E-03
  CGR           6          0          1   1.070E-03
  CGR           7          0          1   5.518E-04
  CGR           8          0          1   3.217E-04
  CGR           9          0          1   1.028E-04
  CGR          10          0          1   3.787E-05
  CGR          11          0          1   1.238E-05
  CGR          12          0          1   4.912E-06
  CGR          13          0          1   1.637E-06
  CGR          14          1          0   5.464E-07

    CGRSolver converged.

	-----------------------------------------------------------
	 ==================> DF-MP2 Energies <==================== 
	-----------------------------------------------------------
	 Reference Energy          =    -341.1092060032565314 [Eh]
	 Singles Energy            =      -0.0000000000000000 [Eh]
	 Same-Spin Energy          =      -0.3295489630554401 [Eh]
	 Opposite-Spin Energy      =      -1.0193362625489628 [Eh]
	 Correlation Energy        =      -1.3488852256044028 [Eh]
	 Total Energy              =    -342.4580912288609511 [Eh]
	-----------------------------------------------------------
	 ================> DF-SCS-MP2 Energies <================== 
	-----------------------------------------------------------
	 SCS Same-Spin Scale       =       0.3333333333333333 [-]
	 SCS Opposite-Spin Scale   =       1.2000000000000000 [-]
	 SCS Same-Spin Energy      =      -0.1098496543518133 [Eh]
	 SCS Opposite-Spin Energy  =      -1.2232035150587552 [Eh]
	 SCS Correlation Energy    =      -1.3330531694105685 [Eh]
	 SCS Total Energy          =    -342.4422591726670930 [Eh]
	-----------------------------------------------------------



Properties will be evaluated at   0.000000,  -0.000000,   0.000000 [a0]

Properties computed using the MP2 density matrix

  Nuclear Dipole Moment: [e a0]
     X:    -9.9385      Y:    -1.8352      Z:     0.2648

  Electronic Dipole Moment: [e a0]
     X:     6.8942      Y:     1.1866      Z:    -0.5981

  Dipole Moment: [e a0]
     X:    -3.0442      Y:    -0.6485      Z:    -0.3333     Total:     3.1303

  Dipole Moment: [D]
     X:    -7.7376      Y:    -1.6484      Z:    -0.8470     Total:     7.9565


*** tstop() called on c459-073.stampede2.tacc.utexas.edu at Sat Mar  6 15:07:25 2021
Module time:
	user time   =     447.10 seconds =       7.45 minutes
	system time =      16.54 seconds =       0.28 minutes
	total time  =         66 seconds =       1.10 minutes
Total time:
	user time   =     654.19 seconds =      10.90 minutes
	system time =      33.60 seconds =       0.56 minutes
	total time  =         80 seconds =       1.33 minutes

    Psi4 stopped on: Saturday, 06 March 2021 03:07PM
    Psi4 wall time for execution: 0:01:20.34

*** Psi4 exiting successfully. Buy a developer a beer!
