102_Dimethylformamide Gaussian SP Calculation on node144.bme.utexas.edu 
Freq      RMP2-FC                                                     6-31G(d)            
Number of atoms                            I               12
Info1-9                                    I   N=           9
          23          22        1002           0           0         100
           6           2           1
Charge                                     I                0
Multiplicity                               I                1
Number of electrons                        I               40
Number of alpha electrons                  I               20
Number of beta electrons                   I               20
Number of basis functions                  I               89
Number of independent functions            I               89
Number of point charges in /Mol/           I                0
Number of translation vectors              I                0
Atomic numbers                             I   N=          12
           8           7           6           6           6           1
           1           1           1           1           1           1
Nuclear charges                            R   N=          12
  8.00000000E+00  7.00000000E+00  6.00000000E+00  6.00000000E+00  6.00000000E+00
  1.00000000E+00  1.00000000E+00  1.00000000E+00  1.00000000E+00  1.00000000E+00
  1.00000000E+00  1.00000000E+00
Current cartesian coordinates              R   N=          36
 -3.69528236E+00 -1.89429344E-01 -6.54447700E-05  6.61284716E-01 -3.84043898E-02
  9.90675698E-06  7.73778001E-01  2.69963460E+00 -2.88146629E-07  3.02317905E+00
 -1.41631181E+00  6.25163964E-05 -1.62145622E+00 -1.23624184E+00 -2.10235872E-05
  1.76760931E+00  3.38175969E+00 -1.68280789E+00  1.76759775E+00  3.38177000E+00
  1.68280979E+00 -1.15917440E+00  3.40792262E+00 -9.78002803E-06  4.14233404E+00
 -9.55335662E-01 -1.68041466E+00  2.63685653E+00 -3.44379092E+00  4.48969176E-05
  4.14225530E+00 -9.55348278E-01  1.68059584E+00 -1.41721757E+00 -3.31519764E+00
 -1.12156693E-05
Force Field                                I                0
Int Atom Types                             I   N=          12
           0           0           0           0           0           0
           0           0           0           0           0           0
MM charges                                 R   N=          12
  0.00000000E+00  0.00000000E+00  0.00000000E+00  0.00000000E+00  0.00000000E+00
  0.00000000E+00  0.00000000E+00  0.00000000E+00  0.00000000E+00  0.00000000E+00
  0.00000000E+00  0.00000000E+00
Integer atomic weights                     I   N=          12
          16          14          12          12          12           1
           1           1           1           1           1           1
Real atomic weights                        R   N=          12
  1.59949146E+01  1.40030740E+01  1.20000000E+01  1.20000000E+01  1.20000000E+01
  1.00782504E+00  1.00782504E+00  1.00782504E+00  1.00782504E+00  1.00782504E+00
  1.00782504E+00  1.00782504E+00
Atom fragment info                         I   N=          12
           0           0           0           0           0           0
           0           0           0           0           0           0
Atom residue num                           I   N=          12
           0           0           0           0           0           0
           0           0           0           0           0           0
Nuclear spins                              I   N=          12
           0           2           0           0           0           1
           1           1           1           1           1           1
Nuclear ZEff                               R   N=          12
 -5.60000000E+00 -4.55000000E+00 -3.60000000E+00 -3.60000000E+00 -3.60000000E+00
 -1.00000000E+00 -1.00000000E+00 -1.00000000E+00 -1.00000000E+00 -1.00000000E+00
 -1.00000000E+00 -1.00000000E+00
Nuclear QMom                               R   N=          12
  0.00000000E+00  2.04400000E+00  0.00000000E+00  0.00000000E+00  0.00000000E+00
  0.00000000E+00  0.00000000E+00  0.00000000E+00  0.00000000E+00  0.00000000E+00
  0.00000000E+00  0.00000000E+00
Nuclear GFac                               R   N=          12
  0.00000000E+00  4.03761000E-01  0.00000000E+00  0.00000000E+00  0.00000000E+00
  2.79284600E+00  2.79284600E+00  2.79284600E+00  2.79284600E+00  2.79284600E+00
  2.79284600E+00  2.79284600E+00
MicOpt                                     I   N=          12
          -1          -1          -1          -1          -1          -1
          -1          -1          -1          -1          -1          -1
Number of contracted shells                I               34
Number of primitive shells                 I               83
Pure/Cartesian d shells                    I                1
Pure/Cartesian f shells                    I                0
Highest angular momentum                   I                2
Largest degree of contraction              I                6
Shell types                                I   N=          34
           0          -1          -1           2           0          -1
          -1           2           0          -1          -1           2
           0          -1          -1           2           0          -1
          -1           2           0           0           0           0
           0           0           0           0           0           0
           0           0           0           0
Number of primitives per shell             I   N=          34
           6           3           1           1           6           3
           1           1           6           3           1           1
           6           3           1           1           6           3
           1           1           3           1           3           1
           3           1           3           1           3           1
           3           1           3           1
Shell to atom map                          I   N=          34
           1           1           1           1           2           2
           2           2           3           3           3           3
           4           4           4           4           5           5
           5           5           6           6           7           7
           8           8           9           9          10          10
          11          11          12          12
Primitive exponents                        R   N=          83
  5.48467166E+03  8.25234946E+02  1.88046958E+02  5.29645000E+01  1.68975704E+01
  5.79963534E+00  1.55396162E+01  3.59993359E+00  1.01376175E+00  2.70005823E-01
  8.00000000E-01  4.17351146E+03  6.27457911E+02  1.42902093E+02  4.02343293E+01
  1.28202129E+01  4.39043701E+00  1.16263619E+01  2.71627981E+00  7.72218397E-01
  2.12031498E-01  8.00000000E-01  3.04752488E+03  4.57369518E+02  1.03948685E+02
  2.92101553E+01  9.28666296E+00  3.16392696E+00  7.86827235E+00  1.88128854E+00
  5.44249258E-01  1.68714478E-01  8.00000000E-01  3.04752488E+03  4.57369518E+02
  1.03948685E+02  2.92101553E+01  9.28666296E+00  3.16392696E+00  7.86827235E+00
  1.88128854E+00  5.44249258E-01  1.68714478E-01  8.00000000E-01  3.04752488E+03
  4.57369518E+02  1.03948685E+02  2.92101553E+01  9.28666296E+00  3.16392696E+00
  7.86827235E+00  1.88128854E+00  5.44249258E-01  1.68714478E-01  8.00000000E-01
  1.87311370E+01  2.82539436E+00  6.40121692E-01  1.61277759E-01  1.87311370E+01
  2.82539436E+00  6.40121692E-01  1.61277759E-01  1.87311370E+01  2.82539436E+00
  6.40121692E-01  1.61277759E-01  1.87311370E+01  2.82539436E+00  6.40121692E-01
  1.61277759E-01  1.87311370E+01  2.82539436E+00  6.40121692E-01  1.61277759E-01
  1.87311370E+01  2.82539436E+00  6.40121692E-01  1.61277759E-01  1.87311370E+01
  2.82539436E+00  6.40121692E-01  1.61277759E-01
Contraction coefficients                   R   N=          83
  1.83107443E-03  1.39501722E-02  6.84450781E-02  2.32714336E-01  4.70192898E-01
  3.58520853E-01 -1.10777550E-01 -1.48026263E-01  1.13076702E+00  1.00000000E+00
  1.00000000E+00  1.83477216E-03  1.39946270E-02  6.85865518E-02  2.32240873E-01
  4.69069948E-01  3.60455199E-01 -1.14961182E-01 -1.69117479E-01  1.14585195E+00
  1.00000000E+00  1.00000000E+00  1.83473713E-03  1.40373228E-02  6.88426223E-02
  2.32184443E-01  4.67941348E-01  3.62311985E-01 -1.19332420E-01 -1.60854152E-01
  1.14345644E+00  1.00000000E+00  1.00000000E+00  1.83473713E-03  1.40373228E-02
  6.88426223E-02  2.32184443E-01  4.67941348E-01  3.62311985E-01 -1.19332420E-01
 -1.60854152E-01  1.14345644E+00  1.00000000E+00  1.00000000E+00  1.83473713E-03
  1.40373228E-02  6.88426223E-02  2.32184443E-01  4.67941348E-01  3.62311985E-01
 -1.19332420E-01 -1.60854152E-01  1.14345644E+00  1.00000000E+00  1.00000000E+00
  3.34946043E-02  2.34726953E-01  8.13757326E-01  1.00000000E+00  3.34946043E-02
  2.34726953E-01  8.13757326E-01  1.00000000E+00  3.34946043E-02  2.34726953E-01
  8.13757326E-01  1.00000000E+00  3.34946043E-02  2.34726953E-01  8.13757326E-01
  1.00000000E+00  3.34946043E-02  2.34726953E-01  8.13757326E-01  1.00000000E+00
  3.34946043E-02  2.34726953E-01  8.13757326E-01  1.00000000E+00  3.34946043E-02
  2.34726953E-01  8.13757326E-01  1.00000000E+00
P(S=P) Contraction coefficients            R   N=          83
  0.00000000E+00  0.00000000E+00  0.00000000E+00  0.00000000E+00  0.00000000E+00
  0.00000000E+00  7.08742682E-02  3.39752839E-01  7.27158577E-01  1.00000000E+00
  0.00000000E+00  0.00000000E+00  0.00000000E+00  0.00000000E+00  0.00000000E+00
  0.00000000E+00  0.00000000E+00  6.75797439E-02  3.23907296E-01  7.40895140E-01
  1.00000000E+00  0.00000000E+00  0.00000000E+00  0.00000000E+00  0.00000000E+00
  0.00000000E+00  0.00000000E+00  0.00000000E+00  6.89990666E-02  3.16423961E-01
  7.44308291E-01  1.00000000E+00  0.00000000E+00  0.00000000E+00  0.00000000E+00
  0.00000000E+00  0.00000000E+00  0.00000000E+00  0.00000000E+00  6.89990666E-02
  3.16423961E-01  7.44308291E-01  1.00000000E+00  0.00000000E+00  0.00000000E+00
  0.00000000E+00  0.00000000E+00  0.00000000E+00  0.00000000E+00  0.00000000E+00
  6.89990666E-02  3.16423961E-01  7.44308291E-01  1.00000000E+00  0.00000000E+00
  0.00000000E+00  0.00000000E+00  0.00000000E+00  0.00000000E+00  0.00000000E+00
  0.00000000E+00  0.00000000E+00  0.00000000E+00  0.00000000E+00  0.00000000E+00
  0.00000000E+00  0.00000000E+00  0.00000000E+00  0.00000000E+00  0.00000000E+00
  0.00000000E+00  0.00000000E+00  0.00000000E+00  0.00000000E+00  0.00000000E+00
  0.00000000E+00  0.00000000E+00  0.00000000E+00  0.00000000E+00  0.00000000E+00
  0.00000000E+00  0.00000000E+00  0.00000000E+00
Coordinates of each shell                  R   N=         102
 -3.69528236E+00 -1.89429344E-01 -6.54447700E-05 -3.69528236E+00 -1.89429344E-01
 -6.54447700E-05 -3.69528236E+00 -1.89429344E-01 -6.54447700E-05 -3.69528236E+00
 -1.89429344E-01 -6.54447700E-05  6.61284716E-01 -3.84043898E-02  9.90675698E-06
  6.61284716E-01 -3.84043898E-02  9.90675698E-06  6.61284716E-01 -3.84043898E-02
  9.90675698E-06  6.61284716E-01 -3.84043898E-02  9.90675698E-06  7.73778001E-01
  2.69963460E+00 -2.88146629E-07  7.73778001E-01  2.69963460E+00 -2.88146629E-07
  7.73778001E-01  2.69963460E+00 -2.88146629E-07  7.73778001E-01  2.69963460E+00
 -2.88146629E-07  3.02317905E+00 -1.41631181E+00  6.25163964E-05  3.02317905E+00
 -1.41631181E+00  6.25163964E-05  3.02317905E+00 -1.41631181E+00  6.25163964E-05
  3.02317905E+00 -1.41631181E+00  6.25163964E-05 -1.62145622E+00 -1.23624184E+00
 -2.10235872E-05 -1.62145622E+00 -1.23624184E+00 -2.10235872E-05 -1.62145622E+00
 -1.23624184E+00 -2.10235872E-05 -1.62145622E+00 -1.23624184E+00 -2.10235872E-05
  1.76760931E+00  3.38175969E+00 -1.68280789E+00  1.76760931E+00  3.38175969E+00
 -1.68280789E+00  1.76759775E+00  3.38177000E+00  1.68280979E+00  1.76759775E+00
  3.38177000E+00  1.68280979E+00 -1.15917440E+00  3.40792262E+00 -9.78002803E-06
 -1.15917440E+00  3.40792262E+00 -9.78002803E-06  4.14233404E+00 -9.55335662E-01
 -1.68041466E+00  4.14233404E+00 -9.55335662E-01 -1.68041466E+00  2.63685653E+00
 -3.44379092E+00  4.48969176E-05  2.63685653E+00 -3.44379092E+00  4.48969176E-05
  4.14225530E+00 -9.55348278E-01  1.68059584E+00  4.14225530E+00 -9.55348278E-01
  1.68059584E+00 -1.41721757E+00 -3.31519764E+00 -1.12156693E-05 -1.41721757E+00
 -3.31519764E+00 -1.12156693E-05
Constraint Structure                       R   N=          36
 -3.69528236E+00 -1.89429344E-01 -6.54447700E-05  6.61284716E-01 -3.84043898E-02
  9.90675698E-06  7.73778001E-01  2.69963460E+00 -2.88146629E-07  3.02317905E+00
 -1.41631181E+00  6.25163964E-05 -1.62145622E+00 -1.23624184E+00 -2.10235872E-05
  1.76760931E+00  3.38175969E+00 -1.68280789E+00  1.76759775E+00  3.38177000E+00
  1.68280979E+00 -1.15917440E+00  3.40792262E+00 -9.78002803E-06  4.14233404E+00
 -9.55335662E-01 -1.68041466E+00  2.63685653E+00 -3.44379092E+00  4.48969176E-05
  4.14225530E+00 -9.55348278E-01  1.68059584E+00 -1.41721757E+00 -3.31519764E+00
 -1.12156693E-05
Num ILSW                                   I              100
ILSW                                       I   N=         100
           0           1           0           0           2           0
           0           0           0           0           0          -1
           0           0           0           0           0           0
           0           0           0           0           1           0
           1           0           0           0           0           0
           0           0      100000           0          -1           0
           0           0           0           0           0           0
           0           0           0           1           1           0
           0           0           1           0           0           0
           0           0           4          40           0           0
           0           0           0           0           0           0
           0           0           0           0           0           0
           0           0           0           0           0           0
           0           0           0           0           0           0
           0           0           0           0           0           0
           0           0           0           0           0           0
           0           0           0           0
Num RLSW                                   I               40
RLSW                                       R   N=          40
  1.00000000E+00  1.00000000E+00  1.00000000E+00  1.00000000E+00  1.00000000E+00
  0.00000000E+00  0.00000000E+00  1.00000000E+00  0.00000000E+00  0.00000000E+00
  0.00000000E+00  0.00000000E+00  1.00000000E+00  0.00000000E+00  0.00000000E+00
  0.00000000E+00  0.00000000E+00  1.00000000E+00  0.00000000E+00  0.00000000E+00
  0.00000000E+00  0.00000000E+00  1.00000000E+00  0.00000000E+00  0.00000000E+00
  0.00000000E+00  0.00000000E+00  1.00000000E+00  0.00000000E+00  0.00000000E+00
  0.00000000E+00  0.00000000E+00  0.00000000E+00  0.00000000E+00  0.00000000E+00
  0.00000000E+00  0.00000000E+00  0.00000000E+00  1.00000000E+00  1.00000000E+00
MxBond                                     I                4
NBond                                      I   N=          12
           1           3           4           4           3           1
           1           1           1           1           1           1
IBond                                      I   N=          48
           5           0           0           0           3           4
           5           0           2           6           7           8
           2           9          10          11           1           2
          12           0           3           0           0           0
           3           0           0           0           3           0
           0           0           4           0           0           0
           4           0           0           0           4           0
           0           0           5           0           0           0
RBond                                      R   N=          48
  2.00000000E+00  0.00000000E+00  0.00000000E+00  0.00000000E+00  1.00000000E+00
  1.00000000E+00  1.00000000E+00  0.00000000E+00  1.00000000E+00  1.00000000E+00
  1.00000000E+00  1.00000000E+00  1.00000000E+00  1.00000000E+00  1.00000000E+00
  1.00000000E+00  2.00000000E+00  1.00000000E+00  1.00000000E+00  0.00000000E+00
  1.00000000E+00  0.00000000E+00  0.00000000E+00  0.00000000E+00  1.00000000E+00
  0.00000000E+00  0.00000000E+00  0.00000000E+00  1.00000000E+00  0.00000000E+00
  0.00000000E+00  0.00000000E+00  1.00000000E+00  0.00000000E+00  0.00000000E+00
  0.00000000E+00  1.00000000E+00  0.00000000E+00  0.00000000E+00  0.00000000E+00
  1.00000000E+00  0.00000000E+00  0.00000000E+00  0.00000000E+00  1.00000000E+00
  0.00000000E+00  0.00000000E+00  0.00000000E+00
Virial Ratio                               R      2.002752895160385E+00
SCF Energy                                 R     -2.469880528931965E+02
MP2 Energy                                 R     -2.477175296949281E+02
Total Energy                               R     -2.477175296949281E+02
Post-SCF wavefunction norm                 R      1.568535425697816E+00
RMS Force                                  R      2.493072678049432E-06
RMS Density                                R      1.554944760310296E-09
External E-field                           R   N=          35
  0.00000000E+00  0.00000000E+00  0.00000000E+00  0.00000000E+00  0.00000000E+00
  0.00000000E+00  0.00000000E+00  0.00000000E+00  0.00000000E+00  0.00000000E+00
  0.00000000E+00  0.00000000E+00  0.00000000E+00  0.00000000E+00  0.00000000E+00
  0.00000000E+00  0.00000000E+00  0.00000000E+00  0.00000000E+00  0.00000000E+00
  0.00000000E+00  0.00000000E+00  0.00000000E+00  0.00000000E+00  0.00000000E+00
  0.00000000E+00  0.00000000E+00  0.00000000E+00  0.00000000E+00  0.00000000E+00
  0.00000000E+00  0.00000000E+00  0.00000000E+00  0.00000000E+00  0.00000000E+00
IOpCl                                      I                0
IROHF                                      I                0
Alpha Orbital Energies                     R   N=          89
 -2.05254810E+01 -1.55984167E+01 -1.13508263E+01 -1.12782574E+01 -1.12600711E+01
 -1.36800454E+00 -1.25106022E+00 -9.85471479E-01 -9.47915351E-01 -7.79823313E-01
 -7.00565332E-01 -6.56908619E-01 -6.49369878E-01 -5.79247125E-01 -5.67309673E-01
 -5.66830522E-01 -5.39206177E-01 -5.22613118E-01 -4.21746774E-01 -3.71064938E-01
  1.98632762E-01  2.22186828E-01  2.60180718E-01  2.86695640E-01  3.02040709E-01
  3.03321536E-01  3.26034419E-01  3.27411903E-01  3.60624278E-01  4.12737800E-01
  4.55491991E-01  5.58806263E-01  6.84946886E-01  6.91832186E-01  7.44846239E-01
  7.69543281E-01  7.86078589E-01  8.68214161E-01  8.80820975E-01  9.34288197E-01
  9.72027413E-01  1.01927656E+00  1.06703828E+00  1.08169532E+00  1.10054389E+00
  1.12614661E+00  1.14139519E+00  1.14255096E+00  1.17278080E+00  1.19574583E+00
  1.22753489E+00  1.23264004E+00  1.32334494E+00  1.32794431E+00  1.42856172E+00
  1.56029791E+00  1.58610736E+00  1.61887178E+00  1.65687923E+00  1.67881111E+00
  1.83106845E+00  1.84541639E+00  2.07070925E+00  2.08419690E+00  2.14004872E+00
  2.21445353E+00  2.24207396E+00  2.28581927E+00  2.30527298E+00  2.36580936E+00
  2.41435837E+00  2.43414488E+00  2.51907369E+00  2.58432426E+00  2.65192172E+00
  2.65366905E+00  2.72532421E+00  2.79155372E+00  2.89687249E+00  2.94089587E+00
  3.00226343E+00  3.21626121E+00  3.31753333E+00  3.48507641E+00  4.27906761E+00
  4.39500257E+00  4.61332545E+00  4.69374639E+00  4.78703774E+00
Alpha MO coefficients                      R   N=        7921
  9.94693277E-01  2.09612298E-02  1.40836052E-03 -6.64554925E-04  3.07812501E-08
  4.49618169E-03 -4.80518760E-05  2.23126935E-05 -1.23282806E-09 -3.69788943E-03
 -3.84298951E-03 -4.11132874E-03 -1.33450735E-04  9.34980927E-09 -4.23050154E-09
 -5.10898431E-06 -2.53816274E-05  1.83001304E-05 -5.12225411E-06  4.87834438E-10
  5.22398810E-05 -1.76229304E-05 -7.34928861E-05 -4.92562794E-10 -6.26858796E-05
  8.09563643E-05 -4.24297426E-05  7.41257643E-05 -9.96233489E-10  1.61222219E-10
 -5.87367219E-06 -1.09600245E-05  2.87005845E-06  8.66755280E-06 -4.15286881E-10
  2.02001246E-04 -6.29304372E-05  3.67409316E-05  1.51204023E-09 -8.28435949E-06
 -4.47082022E-05 -6.98933218E-06  2.84781581E-06 -2.74911922E-12  2.18514671E-10
  5.64495189E-06  2.83753034E-05 -1.21113766E-05  8.39157550E-06 -2.23651015E-10
 -1.35556206E-04  9.47946863E-05  5.32627028E-05  1.25147705E-09 -6.73419484E-06
  2.23016766E-05  1.65081244E-05 -2.82394609E-05 -4.32079892E-10 -7.48790777E-10
 -2.32925126E-06  5.19577389E-04  1.67003137E-05 -1.69483970E-05  4.90802421E-10
 -4.02593863E-04  4.32606010E-04 -2.37195594E-04  9.57817040E-09 -6.55531131E-04
 -1.86122078E-04 -4.00036882E-05  3.27631946E-04 -1.49754260E-08  7.04214669E-09
 -9.21219342E-06 -1.26910453E-05 -9.21239629E-06 -1.26932610E-05  8.66653424E-06
 -1.79339440E-04  1.46201071E-06 -7.48609706E-06  1.78704460E-05  3.15833655E-05
  1.46226807E-06 -7.48535032E-06 -1.87875843E-05 -1.01225232E-04  1.88039520E-05
  5.07629259E-05 -5.28348523E-06  1.38998359E-06 -1.09509521E-10 -3.50999249E-04
 -2.11680202E-04 -1.21507412E-04 -3.06775429E-09 -7.61897408E-06  8.98755222E-05
  9.29447508E-06 -2.62622107E-05 -1.63018375E-10 -1.08915845E-09  9.94976097E-01
  2.52429718E-02  1.61218810E-05 -5.86156240E-05  6.61538572E-09 -3.08806279E-03
  1.24864942E-04  6.85292240E-05 -4.53355479E-09 -3.41090135E-03 -3.46429449E-03
 -3.26444908E-03  6.43518172E-05 -3.08898297E-09  2.36585910E-09 -8.00025751E-07
  1.78893878E-04  4.69297477E-06 -2.59129930E-04  4.77482114E-10  1.00698652E-03
 -9.43016935E-05 -3.60657042E-04  5.76652440E-09 -8.14291288E-05 -9.68499304E-05
 -4.90366338E-05  4.45897594E-06 -5.78259047E-10  1.49438676E-10 -5.80696641E-06
  1.70761963E-04 -2.12906282E-04  1.40233239E-04 -4.16084274E-09  1.13078282E-03
 -3.81594988E-04  7.33219432E-05 -9.42883343E-09 -1.04239108E-04 -1.06095857E-04
 -5.77665029E-05  2.55084217E-05 -1.27743480E-09  1.08298484E-09  2.80291898E-05
  2.21088275E-04  1.75961401E-04  1.14486716E-04  2.53501267E-09  1.31071288E-03
  5.24050920E-04  4.91552963E-04  6.75041927E-09 -1.34135383E-04 -5.66498670E-05
 -4.37140105E-05 -3.96014115E-05 -1.22094294E-09 -5.00803198E-10 -7.49283812E-05
 -4.28719116E-05 -7.49282403E-05 -4.28783295E-05 -6.91690598E-05 -1.75203779E-04
 -8.12387876E-05 -4.62808121E-05 -6.35160008E-05 -2.43490013E-04 -8.12397104E-05
 -4.62772908E-05 -5.70819875E-05  1.94725820E-05 -2.63802199E-04  5.80319000E-04
  2.60056304E-04 -9.34662243E-05  5.17604845E-09 -2.88175516E-03 -1.64640815E-03
  5.02708521E-04 -3.50511706E-08 -1.68624938E-08  1.61197109E-04  3.58978822E-04
  8.15329834E-05 -8.99687552E-09  3.13002289E-09 -2.52319216E-04  4.27023821E-04
 -7.30835254E-05  8.39805042E-05 -1.43598769E-09 -6.46016383E-04  1.88284635E-03
 -3.02954459E-04  3.00384588E-08 -5.55133314E-04 -3.28254613E-04  1.79413476E-04
 -3.08483642E-04 -1.18120810E-08 -1.61400043E-09 -1.01642211E-04 -2.23029301E-04
 -9.04137931E-06 -8.44131837E-05  3.80081935E-10  6.76618746E-04 -6.45804946E-04
 -3.97556571E-04 -9.29476856E-09  3.94788937E-05  1.89345276E-04 -6.90090736E-05
  1.40925807E-04 -7.85499580E-11  9.23242793E-10 -2.23655868E-04 -3.33772739E-04
  1.30809353E-04 -7.28621093E-06  1.93499029E-09  1.63380151E-04 -5.36462032E-04
 -7.84110278E-04  2.01027637E-10  1.28315133E-04 -8.86655688E-05 -1.81312992E-04
  6.06777858E-05  7.01662739E-09  2.68716421E-09  9.95782063E-01  2.60922638E-02
  2.89830116E-04  6.31760300E-04  8.57917819E-10 -4.60857481E-03 -1.54296114E-03
  2.52973216E-03 -3.84027889E-08 -6.86022764E-04 -1.52996217E-03 -2.49149904E-03
 -1.90559180E-04  3.79302697E-08 -9.40260370E-09 -8.50922454E-06  1.17681318E-04
 -8.50888972E-06  1.17690984E-04 -1.21709094E-04 -2.41993122E-04  2.59663479E-05
  1.68828756E-04 -1.16778744E-04 -4.88587941E-04  2.59637673E-05  1.68815410E-04
 -7.49816234E-05  2.62265742E-03 -6.84618500E-05 -3.02982717E-04 -4.01589111E-07
  1.80094506E-05  2.58666810E-11  2.04471076E-03  5.09697085E-04 -1.76589027E-04
  1.01011417E-08 -1.37658216E-04 -2.12717837E-04 -1.74807461E-04 -2.05984813E-05
  8.93773296E-10 -1.96457978E-10 -2.17490831E-04  1.95329533E-04  1.28404628E-04
 -1.02454405E-04  2.69658371E-09  1.78421195E-03 -3.63109293E-04  4.07081439E-04
 -5.80072948E-09 -5.65651988E-04 -3.15342141E-04 -4.41360427E-05  2.97359778E-04
 -1.28220160E-08  7.80120660E-09 -6.76264635E-04 -3.57195261E-04 -7.94828535E-05
  1.20894423E-04 -3.90397926E-10  5.37651840E-04  8.67863047E-04 -3.14461065E-04
  6.80909107E-09 -7.48526780E-05  1.07121456E-05 -1.00532182E-04 -7.94975716E-05
  3.56635493E-09 -2.58812692E-09  9.95770590E-01  2.79907556E-02 -6.70337484E-04
  3.87127392E-04 -1.45870418E-08 -1.29243252E-02 -9.55688396E-06 -1.57558979E-04
 -5.16427091E-09 -1.66306992E-03 -1.71468942E-03 -1.74643561E-03 -6.74129273E-05
  2.45262914E-09 -1.35931238E-09  1.14178213E-04 -3.21735584E-04 -3.65517928E-05
  6.62880016E-05 -1.11253267E-09 -1.06211261E-04  1.36485009E-03 -1.49249236E-03
  3.27920218E-08 -9.29895820E-06 -4.97109391E-05 -1.25499920E-04  4.93592444E-05
  1.98050721E-09  5.93368406E-10 -8.03996015E-05 -2.67201077E-04 -8.04033524E-05
 -2.67191255E-04  3.52386893E-05  5.32274437E-04  1.16023989E-04  2.51928666E-03
  1.06143546E-04  2.29318566E-03  1.16022990E-04  2.51929679E-03 -1.75035380E-04
 -8.31151004E-04  4.99480197E-05  2.15532660E-04 -2.54092301E-05  1.87739495E-05
  5.59085362E-10 -1.62816485E-03 -4.27628724E-04 -1.13887347E-04 -1.19525634E-08
  1.05547280E-04  1.54706045E-04  9.81571836E-05 -6.41795593E-06 -7.94421156E-10
 -9.69078973E-10 -1.99436261E-04  2.76316650E-04 -7.85917684E-06  1.56227102E-04
 -3.16047527E-10  1.35809388E-03  4.32401606E-04 -2.88814876E-04  2.55191144E-09
 -1.67725155E-04 -7.10474676E-04 -1.17774150E-06 -3.47009774E-05 -3.41441225E-09
  2.41906276E-09  9.95762382E-01  2.80481065E-02  1.12665937E-04 -8.61069665E-04
  4.56590732E-09 -1.29868891E-02 -2.97005608E-04  2.48410596E-04  1.99433932E-09
 -1.74155616E-03 -1.65812451E-03 -1.76550471E-03 -8.62428062E-06 -4.65999443E-10
 -8.65782448E-10  5.57981845E-04 -3.38247941E-04  4.41913011E-05 -1.36796609E-04
 -1.69226951E-10  6.40772066E-04  2.16195026E-04  8.75006857E-04  1.25732769E-08
 -8.02550019E-05  1.46457574E-06 -1.06914112E-04 -8.06235645E-05  2.36180454E-10
 -3.65227761E-09  6.27181311E-05 -2.46607946E-04 -1.63506986E-05 -1.15158681E-04
  3.26695133E-10  9.23627436E-04 -4.74946543E-04  1.77924050E-03 -1.46527235E-08
  9.32362531E-05  9.59216638E-05 -1.17067471E-04  4.58259726E-05  3.61296733E-09
 -7.42801834E-10  1.09644457E-04  2.54769474E-03  1.09645106E-04  2.54768532E-03
  1.12388021E-04  2.15637360E-03 -8.83213995E-05 -2.79698290E-04  4.38393153E-05
  4.04062107E-04 -8.83181733E-05 -2.79715671E-04  1.27352344E-04  7.58812447E-04
 -1.76459626E-01  3.86965238E-01  1.13572127E-01 -5.13420775E-02  2.36909743E-06
  3.62984475E-01  5.02882512E-02 -1.69657986E-02  1.03531137E-06  1.40951789E-02
  2.23369411E-04 -2.43963454E-03 -8.40767020E-03  4.04287099E-07 -1.70124130E-07
 -6.79404154E-02  1.39675721E-01 -3.81502205E-02 -1.00613901E-02 -5.31490080E-07
  1.39315099E-01 -2.31099516E-02 -3.01660611E-03 -3.01097754E-07  1.01827631E-02
  2.03526160E-03 -3.93403692E-03  3.12160190E-03  2.58193066E-07  1.69564984E-08
 -2.10817883E-02  3.82355038E-02 -6.14175014E-03 -2.62533804E-02  4.33880194E-08
  1.41722872E-02  1.50286285E-03 -5.21439416E-04 -3.69801868E-08 -2.96417363E-05
  6.06622069E-03 -1.56218483E-03  1.12615492E-03  1.80762888E-08 -2.23823136E-08
 -1.75144820E-02  3.50901721E-02 -2.16951301E-02  1.00084952E-02 -4.66483093E-07
  1.00022346E-02  6.00984982E-03  3.37011755E-03  5.21388585E-08  3.66703889E-03
  7.34981537E-04 -4.58118227E-04 -2.81632045E-03  1.04088938E-07 -6.60665634E-08
 -1.22893855E-01  2.39103365E-01 -1.04083067E-01  8.80195253E-02 -2.49236510E-06
  5.78239358E-02  9.44627317E-03 -2.86301544E-02  3.36326703E-07  2.18392221E-02
 -4.19998337E-03 -1.86595338E-02 -1.65588006E-02  9.45079831E-07 -3.90542803E-07
  6.87683761E-03 -1.18891999E-04  6.87684373E-03 -1.18860343E-04  1.15153824E-02
  5.47069437E-03  6.10625742E-03 -1.35216955E-03  8.12623951E-03  2.91115460E-03
  6.10626907E-03 -1.35209740E-03  3.24903883E-02 -1.16900073E-02  8.89978450E-02
 -1.97643027E-01 -3.14737385E-02  2.93738258E-02 -7.66043299E-07 -1.85534505E-01
 -9.07391553E-03  1.19893439E-02 -2.38457085E-07 -3.55193477E-03 -2.79398108E-03
  5.79431789E-04  3.76931007E-03 -1.12302651E-07  9.48991977E-08 -1.68000092E-01
  3.47029170E-01  9.42161844E-03 -7.97151792E-03  4.56482088E-07  3.62898242E-01
  5.92776271E-03 -3.50369158E-03  2.89465700E-07  9.08596367E-03  1.10129523E-02
 -9.38523996E-03 -3.18723138E-04  3.81229209E-07 -1.36815297E-07 -6.42902850E-02
  1.20611835E-01 -5.45946592E-04 -7.39688548E-02  3.82787504E-07  5.73998784E-02
  1.82776500E-03  4.62428942E-03 -3.36317811E-08 -1.89218212E-03  1.59981490E-02
 -2.61515214E-03  5.85806670E-04  1.38375153E-08 -9.33182570E-08 -7.29394630E-02
  1.36588025E-01 -6.95732780E-02  3.88907753E-02 -1.57106114E-06  6.69071307E-02
  2.02746950E-03 -8.74284201E-04  1.14708108E-07  1.28983508E-02  2.91882519E-03
 -3.07564660E-03 -9.33459308E-03  4.02650497E-07 -2.13621710E-07 -1.64510183E-02
  3.57626885E-02  1.78448294E-01  3.75994817E-03  3.12331374E-06 -1.13312365E-03
 -1.28451717E-03 -8.48302245E-03  1.56504448E-08  2.71641224E-03  2.14617052E-03
 -6.53980710E-04  2.19921993E-02 -8.82550192E-08  3.76450975E-07  2.67614577E-02
  9.77667919E-04  2.67615466E-02  9.77788758E-04  2.50957559E-02  4.37546085E-04
  3.02309447E-02  1.67762907E-03  3.15511213E-02  6.18630253E-03  3.02308953E-02
  1.67750339E-03  1.26022226E-02  1.03445318E-03  5.34543062E-03 -1.22571714E-02
  8.10002967E-03  1.84693801E-02  6.48137596E-08 -1.11543776E-02  3.54792625E-03