21365232                                                                
Freq      RMP2-FC                                                     6-31G(d)            
Number of atoms                            I               19
Info1-9                                    I   N=           9
          31          29        1002           0           0         100
           6           2           1
Charge                                     I                0
Multiplicity                               I                1
Number of electrons                        I               74
Number of alpha electrons                  I               37
Number of beta electrons                   I               37
Number of basis functions                  I              168
Number of independent functions            I              168
Number of point charges in /Mol/           I                0
Number of translation vectors              I                0
Atomic numbers                             I   N=          19
           8           7           7           7           6           6
           6           6           6           6           1           1
           1           1           1           1           1           1
           1
Nuclear charges                            R   N=          19
  8.00000000E+00  7.00000000E+00  7.00000000E+00  7.00000000E+00  6.00000000E+00
  6.00000000E+00  6.00000000E+00  6.00000000E+00  6.00000000E+00  6.00000000E+00
  1.00000000E+00  1.00000000E+00  1.00000000E+00  1.00000000E+00  1.00000000E+00
  1.00000000E+00  1.00000000E+00  1.00000000E+00  1.00000000E+00
Current cartesian coordinates              R   N=          57
 -2.35881166E+00  2.89251190E+00  4.96358269E-06  2.76666104E+00  9.38860699E-01
 -1.34470025E-05  1.14388880E+00 -2.97300419E+00  1.91576017E-05 -3.77658346E+00
 -1.22905747E+00 -1.35260043E-06  6.15936538E-01 -4.96496422E-01  1.85617013E-05
  4.76462225E+00 -7.15471729E-01 -1.92501815E-05  2.96895544E+00  3.69373041E+00
  4.54977231E-06 -1.96216237E+00  5.79526808E-01  4.24864293E-06  3.72095815E+00
 -3.10982016E+00 -5.67517657E-07 -6.44458490E+00 -6.26439756E-01 -1.13328483E-05
  6.69855848E+00 -5.68868552E-02 -2.20309209E-05  2.04892150E+00  4.46610924E+00
 -1.67034904E+00  2.04900750E+00  4.46608205E+00  1.67041908E+00  4.97429619E+00
  4.17018523E+00 -4.14270047E-05  4.69906017E+00 -4.90568076E+00 -8.60006498E-06
 -3.16194848E+00 -3.04593193E+00 -1.34727007E-06 -7.37486225E+00 -1.38427950E+00
  1.68337109E+00 -7.37485088E+00 -1.38428578E+00 -1.68339762E+00 -6.60780435E+00
  1.42682499E+00 -1.75758148E-05
Force Field                                I                0
Int Atom Types                             I   N=          19
           0           0           0           0           0           0
           0           0           0           0           0           0
           0           0           0           0           0           0
           0
MM charges                                 R   N=          19
  0.00000000E+00  0.00000000E+00  0.00000000E+00  0.00000000E+00  0.00000000E+00
  0.00000000E+00  0.00000000E+00  0.00000000E+00  0.00000000E+00  0.00000000E+00
  0.00000000E+00  0.00000000E+00  0.00000000E+00  0.00000000E+00  0.00000000E+00
  0.00000000E+00  0.00000000E+00  0.00000000E+00  0.00000000E+00
Integer atomic weights                     I   N=          19
          16          14          14          14          12          12
          12          12          12          12           1           1
           1           1           1           1           1           1
           1
Real atomic weights                        R   N=          19
  1.59949146E+01  1.40030740E+01  1.40030740E+01  1.40030740E+01  1.20000000E+01
  1.20000000E+01  1.20000000E+01  1.20000000E+01  1.20000000E+01  1.20000000E+01
  1.00782504E+00  1.00782504E+00  1.00782504E+00  1.00782504E+00  1.00782504E+00
  1.00782504E+00  1.00782504E+00  1.00782504E+00  1.00782504E+00
Atom fragment info                         I   N=          19
           0           0           0           0           0           0
           0           0           0           0           0           0
           0           0           0           0           0           0
           0
Atom residue num                           I   N=          19
           0           0           0           0           0           0
           0           0           0           0           0           0
           0           0           0           0           0           0
           0
Nuclear spins                              I   N=          19
           0           2           2           2           0           0
           0           0           0           0           1           1
           1           1           1           1           1           1
           1
Nuclear ZEff                               R   N=          19
 -5.60000000E+00 -4.55000000E+00 -4.55000000E+00 -4.55000000E+00 -3.60000000E+00
 -3.60000000E+00 -3.60000000E+00 -3.60000000E+00 -3.60000000E+00 -3.60000000E+00
 -1.00000000E+00 -1.00000000E+00 -1.00000000E+00 -1.00000000E+00 -1.00000000E+00
 -1.00000000E+00 -1.00000000E+00 -1.00000000E+00 -1.00000000E+00
Nuclear QMom                               R   N=          19
  0.00000000E+00  2.04400000E+00  2.04400000E+00  2.04400000E+00  0.00000000E+00
  0.00000000E+00  0.00000000E+00  0.00000000E+00  0.00000000E+00  0.00000000E+00
  0.00000000E+00  0.00000000E+00  0.00000000E+00  0.00000000E+00  0.00000000E+00
  0.00000000E+00  0.00000000E+00  0.00000000E+00  0.00000000E+00
Nuclear GFac                               R   N=          19
  0.00000000E+00  4.03761000E-01  4.03761000E-01  4.03761000E-01  0.00000000E+00
  0.00000000E+00  0.00000000E+00  0.00000000E+00  0.00000000E+00  0.00000000E+00
  2.79284600E+00  2.79284600E+00  2.79284600E+00  2.79284600E+00  2.79284600E+00
  2.79284600E+00  2.79284600E+00  2.79284600E+00  2.79284600E+00
MicOpt                                     I   N=          19
          -1          -1          -1          -1          -1          -1
          -1          -1          -1          -1          -1          -1
          -1          -1          -1          -1          -1          -1
          -1
Number of contracted shells                I               58
Number of primitive shells                 I              146
Pure/Cartesian d shells                    I                1
Pure/Cartesian f shells                    I                0
Highest angular momentum                   I                2
Largest degree of contraction              I                6
Shell types                                I   N=          58
           0          -1          -1           2           0          -1
          -1           2           0          -1          -1           2
           0          -1          -1           2           0          -1
          -1           2           0          -1          -1           2
           0          -1          -1           2           0          -1
          -1           2           0          -1          -1           2
           0          -1          -1           2           0           0
           0           0           0           0           0           0
           0           0           0           0           0           0
           0           0           0           0
Number of primitives per shell             I   N=          58
           6           3           1           1           6           3
           1           1           6           3           1           1
           6           3           1           1           6           3
           1           1           6           3           1           1
           6           3           1           1           6           3
           1           1           6           3           1           1
           6           3           1           1           3           1
           3           1           3           1           3           1
           3           1           3           1           3           1
           3           1           3           1
Shell to atom map                          I   N=          58
           1           1           1           1           2           2
           2           2           3           3           3           3
           4           4           4           4           5           5
           5           5           6           6           6           6
           7           7           7           7           8           8
           8           8           9           9           9           9
          10          10          10          10          11          11
          12          12          13          13          14          14
          15          15          16          16          17          17
          18          18          19          19
Primitive exponents                        R   N=         146
  5.48467166E+03  8.25234946E+02  1.88046958E+02  5.29645000E+01  1.68975704E+01
  5.79963534E+00  1.55396162E+01  3.59993359E+00  1.01376175E+00  2.70005823E-01
  8.00000000E-01  4.17351146E+03  6.27457911E+02  1.42902093E+02  4.02343293E+01
  1.28202129E+01  4.39043701E+00  1.16263619E+01  2.71627981E+00  7.72218397E-01
  2.12031498E-01  8.00000000E-01  4.17351146E+03  6.27457911E+02  1.42902093E+02
  4.02343293E+01  1.28202129E+01  4.39043701E+00  1.16263619E+01  2.71627981E+00
  7.72218397E-01  2.12031498E-01  8.00000000E-01  4.17351146E+03  6.27457911E+02
  1.42902093E+02  4.02343293E+01  1.28202129E+01  4.39043701E+00  1.16263619E+01
  2.71627981E+00  7.72218397E-01  2.12031498E-01  8.00000000E-01  3.04752488E+03
  4.57369518E+02  1.03948685E+02  2.92101553E+01  9.28666296E+00  3.16392696E+00
  7.86827235E+00  1.88128854E+00  5.44249258E-01  1.68714478E-01  8.00000000E-01
  3.04752488E+03  4.57369518E+02  1.03948685E+02  2.92101553E+01  9.28666296E+00
  3.16392696E+00  7.86827235E+00  1.88128854E+00  5.44249258E-01  1.68714478E-01
  8.00000000E-01  3.04752488E+03  4.57369518E+02  1.03948685E+02  2.92101553E+01
  9.28666296E+00  3.16392696E+00  7.86827235E+00  1.88128854E+00  5.44249258E-01
  1.68714478E-01  8.00000000E-01  3.04752488E+03  4.57369518E+02  1.03948685E+02
  2.92101553E+01  9.28666296E+00  3.16392696E+00  7.86827235E+00  1.88128854E+00
  5.44249258E-01  1.68714478E-01  8.00000000E-01  3.04752488E+03  4.57369518E+02
  1.03948685E+02  2.92101553E+01  9.28666296E+00  3.16392696E+00  7.86827235E+00
  1.88128854E+00  5.44249258E-01  1.68714478E-01  8.00000000E-01  3.04752488E+03
  4.57369518E+02  1.03948685E+02  2.92101553E+01  9.28666296E+00  3.16392696E+00
  7.86827235E+00  1.88128854E+00  5.44249258E-01  1.68714478E-01  8.00000000E-01
  1.87311370E+01  2.82539436E+00  6.40121692E-01  1.61277759E-01  1.87311370E+01
  2.82539436E+00  6.40121692E-01  1.61277759E-01  1.87311370E+01  2.82539436E+00
  6.40121692E-01  1.61277759E-01  1.87311370E+01  2.82539436E+00  6.40121692E-01
  1.61277759E-01  1.87311370E+01  2.82539436E+00  6.40121692E-01  1.61277759E-01
  1.87311370E+01  2.82539436E+00  6.40121692E-01  1.61277759E-01  1.87311370E+01
  2.82539436E+00  6.40121692E-01  1.61277759E-01  1.87311370E+01  2.82539436E+00
  6.40121692E-01  1.61277759E-01  1.87311370E+01  2.82539436E+00  6.40121692E-01
  1.61277759E-01
Contraction coefficients                   R   N=         146
  1.83107443E-03  1.39501722E-02  6.84450781E-02  2.32714336E-01  4.70192898E-01
  3.58520853E-01 -1.10777550E-01 -1.48026263E-01  1.13076702E+00  1.00000000E+00
  1.00000000E+00  1.83477216E-03  1.39946270E-02  6.85865518E-02  2.32240873E-01
  4.69069948E-01  3.60455199E-01 -1.14961182E-01 -1.69117479E-01  1.14585195E+00
  1.00000000E+00  1.00000000E+00  1.83477216E-03  1.39946270E-02  6.85865518E-02
  2.32240873E-01  4.69069948E-01  3.60455199E-01 -1.14961182E-01 -1.69117479E-01
  1.14585195E+00  1.00000000E+00  1.00000000E+00  1.83477216E-03  1.39946270E-02
  6.85865518E-02  2.32240873E-01  4.69069948E-01  3.60455199E-01 -1.14961182E-01
 -1.69117479E-01  1.14585195E+00  1.00000000E+00  1.00000000E+00  1.83473713E-03
  1.40373228E-02  6.88426223E-02  2.32184443E-01  4.67941348E-01  3.62311985E-01
 -1.19332420E-01 -1.60854152E-01  1.14345644E+00  1.00000000E+00  1.00000000E+00
  1.83473713E-03  1.40373228E-02  6.88426223E-02  2.32184443E-01  4.67941348E-01
  3.62311985E-01 -1.19332420E-01 -1.60854152E-01  1.14345644E+00  1.00000000E+00
  1.00000000E+00  1.83473713E-03  1.40373228E-02  6.88426223E-02  2.32184443E-01
  4.67941348E-01  3.62311985E-01 -1.19332420E-01 -1.60854152E-01  1.14345644E+00
  1.00000000E+00  1.00000000E+00  1.83473713E-03  1.40373228E-02  6.88426223E-02
  2.32184443E-01  4.67941348E-01  3.62311985E-01 -1.19332420E-01 -1.60854152E-01
  1.14345644E+00  1.00000000E+00  1.00000000E+00  1.83473713E-03  1.40373228E-02
  6.88426223E-02  2.32184443E-01  4.67941348E-01  3.62311985E-01 -1.19332420E-01
 -1.60854152E-01  1.14345644E+00  1.00000000E+00  1.00000000E+00  1.83473713E-03
  1.40373228E-02  6.88426223E-02  2.32184443E-01  4.67941348E-01  3.62311985E-01
 -1.19332420E-01 -1.60854152E-01  1.14345644E+00  1.00000000E+00  1.00000000E+00
  3.34946043E-02  2.34726953E-01  8.13757326E-01  1.00000000E+00  3.34946043E-02
  2.34726953E-01  8.13757326E-01  1.00000000E+00  3.34946043E-02  2.34726953E-01
  8.13757326E-01  1.00000000E+00  3.34946043E-02  2.34726953E-01  8.13757326E-01
  1.00000000E+00  3.34946043E-02  2.34726953E-01  8.13757326E-01  1.00000000E+00
  3.34946043E-02  2.34726953E-01  8.13757326E-01  1.00000000E+00  3.34946043E-02
  2.34726953E-01  8.13757326E-01  1.00000000E+00  3.34946043E-02  2.34726953E-01
  8.13757326E-01  1.00000000E+00  3.34946043E-02  2.34726953E-01  8.13757326E-01
  1.00000000E+00
P(S=P) Contraction coefficients            R   N=         146
  0.00000000E+00  0.00000000E+00  0.00000000E+00  0.00000000E+00  0.00000000E+00
  0.00000000E+00  7.08742682E-02  3.39752839E-01  7.27158577E-01  1.00000000E+00
  0.00000000E+00  0.00000000E+00  0.00000000E+00  0.00000000E+00  0.00000000E+00
  0.00000000E+00  0.00000000E+00  6.75797439E-02  3.23907296E-01  7.40895140E-01
  1.00000000E+00  0.00000000E+00  0.00000000E+00  0.00000000E+00  0.00000000E+00
  0.00000000E+00  0.00000000E+00  0.00000000E+00  6.75797439E-02  3.23907296E-01
  7.40895140E-01  1.00000000E+00  0.00000000E+00  0.00000000E+00  0.00000000E+00
  0.00000000E+00  0.00000000E+00  0.00000000E+00  0.00000000E+00  6.75797439E-02
  3.23907296E-01  7.40895140E-01  1.00000000E+00  0.00000000E+00  0.00000000E+00
  0.00000000E+00  0.00000000E+00  0.00000000E+00  0.00000000E+00  0.00000000E+00
  6.89990666E-02  3.16423961E-01  7.44308291E-01  1.00000000E+00  0.00000000E+00
  0.00000000E+00  0.00000000E+00  0.00000000E+00  0.00000000E+00  0.00000000E+00
  0.00000000E+00  6.89990666E-02  3.16423961E-01  7.44308291E-01  1.00000000E+00
  0.00000000E+00  0.00000000E+00  0.00000000E+00  0.00000000E+00  0.00000000E+00
  0.00000000E+00  0.00000000E+00  6.89990666E-02  3.16423961E-01  7.44308291E-01
  1.00000000E+00  0.00000000E+00  0.00000000E+00  0.00000000E+00  0.00000000E+00
  0.00000000E+00  0.00000000E+00  0.00000000E+00  6.89990666E-02  3.16423961E-01
  7.44308291E-01  1.00000000E+00  0.00000000E+00  0.00000000E+00  0.00000000E+00
  0.00000000E+00  0.00000000E+00  0.00000000E+00  0.00000000E+00  6.89990666E-02
  3.16423961E-01  7.44308291E-01  1.00000000E+00  0.00000000E+00  0.00000000E+00
  0.00000000E+00  0.00000000E+00  0.00000000E+00  0.00000000E+00  0.00000000E+00
  6.89990666E-02  3.16423961E-01  7.44308291E-01  1.00000000E+00  0.00000000E+00
  0.00000000E+00  0.00000000E+00  0.00000000E+00  0.00000000E+00  0.00000000E+00
  0.00000000E+00  0.00000000E+00  0.00000000E+00  0.00000000E+00  0.00000000E+00
  0.00000000E+00  0.00000000E+00  0.00000000E+00  0.00000000E+00  0.00000000E+00
  0.00000000E+00  0.00000000E+00  0.00000000E+00  0.00000000E+00  0.00000000E+00
  0.00000000E+00  0.00000000E+00  0.00000000E+00  0.00000000E+00  0.00000000E+00
  0.00000000E+00  0.00000000E+00  0.00000000E+00  0.00000000E+00  0.00000000E+00
  0.00000000E+00  0.00000000E+00  0.00000000E+00  0.00000000E+00  0.00000000E+00
  0.00000000E+00
Coordinates of each shell                  R   N=         174
 -2.35881166E+00  2.89251190E+00  4.96358269E-06 -2.35881166E+00  2.89251190E+00
  4.96358269E-06 -2.35881166E+00  2.89251190E+00  4.96358269E-06 -2.35881166E+00
  2.89251190E+00  4.96358269E-06  2.76666104E+00  9.38860699E-01 -1.34470025E-05
  2.76666104E+00  9.38860699E-01 -1.34470025E-05  2.76666104E+00  9.38860699E-01
 -1.34470025E-05  2.76666104E+00  9.38860699E-01 -1.34470025E-05  1.14388880E+00
 -2.97300419E+00  1.91576017E-05  1.14388880E+00 -2.97300419E+00  1.91576017E-05
  1.14388880E+00 -2.97300419E+00  1.91576017E-05  1.14388880E+00 -2.97300419E+00
  1.91576017E-05 -3.77658346E+00 -1.22905747E+00 -1.35260043E-06 -3.77658346E+00
 -1.22905747E+00 -1.35260043E-06 -3.77658346E+00 -1.22905747E+00 -1.35260043E-06
 -3.77658346E+00 -1.22905747E+00 -1.35260043E-06  6.15936538E-01 -4.96496422E-01
  1.85617013E-05  6.15936538E-01 -4.96496422E-01  1.85617013E-05  6.15936538E-01
 -4.96496422E-01  1.85617013E-05  6.15936538E-01 -4.96496422E-01  1.85617013E-05
  4.76462225E+00 -7.15471729E-01 -1.92501815E-05  4.76462225E+00 -7.15471729E-01
 -1.92501815E-05  4.76462225E+00 -7.15471729E-01 -1.92501815E-05  4.76462225E+00
 -7.15471729E-01 -1.92501815E-05  2.96895544E+00  3.69373041E+00  4.54977231E-06
  2.96895544E+00  3.69373041E+00  4.54977231E-06  2.96895544E+00  3.69373041E+00
  4.54977231E-06  2.96895544E+00  3.69373041E+00  4.54977231E-06 -1.96216237E+00
  5.79526808E-01  4.24864293E-06 -1.96216237E+00  5.79526808E-01  4.24864293E-06
 -1.96216237E+00  5.79526808E-01  4.24864293E-06 -1.96216237E+00  5.79526808E-01
  4.24864293E-06  3.72095815E+00 -3.10982016E+00 -5.67517657E-07  3.72095815E+00
 -3.10982016E+00 -5.67517657E-07  3.72095815E+00 -3.10982016E+00 -5.67517657E-07
  3.72095815E+00 -3.10982016E+00 -5.67517657E-07 -6.44458490E+00 -6.26439756E-01
 -1.13328483E-05 -6.44458490E+00 -6.26439756E-01 -1.13328483E-05 -6.44458490E+00
 -6.26439756E-01 -1.13328483E-05 -6.44458490E+00 -6.26439756E-01 -1.13328483E-05
  6.69855848E+00 -5.68868552E-02 -2.20309209E-05  6.69855848E+00 -5.68868552E-02
 -2.20309209E-05  2.04892150E+00  4.46610924E+00 -1.67034904E+00  2.04892150E+00
  4.46610924E+00 -1.67034904E+00  2.04900750E+00  4.46608205E+00  1.67041908E+00
  2.04900750E+00  4.46608205E+00  1.67041908E+00  4.97429619E+00  4.17018523E+00
 -4.14270047E-05  4.97429619E+00  4.17018523E+00 -4.14270047E-05  4.69906017E+00
 -4.90568076E+00 -8.60006498E-06  4.69906017E+00 -4.90568076E+00 -8.60006498E-06
 -3.16194848E+00 -3.04593193E+00 -1.34727007E-06 -3.16194848E+00 -3.04593193E+00
 -1.34727007E-06 -7.37486225E+00 -1.38427950E+00  1.68337109E+00 -7.37486225E+00
 -1.38427950E+00  1.68337109E+00 -7.37485088E+00 -1.38428578E+00 -1.68339762E+00
 -7.37485088E+00 -1.38428578E+00 -1.68339762E+00 -6.60780435E+00  1.42682499E+00
 -1.75758148E-05 -6.60780435E+00  1.42682499E+00 -1.75758148E-05
Constraint Structure                       R   N=          57
 -2.35881166E+00  2.89251190E+00  4.96358269E-06  2.76666104E+00  9.38860699E-01
 -1.34470025E-05  1.14388880E+00 -2.97300419E+00  1.91576017E-05 -3.77658346E+00
 -1.22905747E+00 -1.35260043E-06  6.15936538E-01 -4.96496422E-01  1.85617013E-05
  4.76462225E+00 -7.15471729E-01 -1.92501815E-05  2.96895544E+00  3.69373041E+00
  4.54977231E-06 -1.96216237E+00  5.79526808E-01  4.24864293E-06  3.72095815E+00
 -3.10982016E+00 -5.67517657E-07 -6.44458490E+00 -6.26439756E-01 -1.13328483E-05
  6.69855848E+00 -5.68868552E-02 -2.20309209E-05  2.04892150E+00  4.46610924E+00
 -1.67034904E+00  2.04900750E+00  4.46608205E+00  1.67041908E+00  4.97429619E+00
  4.17018523E+00 -4.14270047E-05  4.69906017E+00 -4.90568076E+00 -8.60006498E-06
 -3.16194848E+00 -3.04593193E+00 -1.34727007E-06 -7.37486225E+00 -1.38427950E+00
  1.68337109E+00 -7.37485088E+00 -1.38428578E+00 -1.68339762E+00 -6.60780435E+00
  1.42682499E+00 -1.75758148E-05
Num ILSW                                   I              100
ILSW                                       I   N=         100
           0           1           0           0           2           0
           0           0           0           0           0          -1
           0           0           0           0           0           0
           0           0           0           0           1           0
           1           0           0           0           0           0
           0           0      100000           0          -1           0
           0           0           0           0           0           0
           0           0           0           1           1           0
           0           0           1           0           0           0
           0           0           4          40           0           0
           0           0           0           0           0           0
           0           0           0           0           0           0
           0           0           0           0           0           0
           0           0           0           0           0           0
           0           0           0           0           0           0
           0           0           0           0           0           0
           0           0           0           0
Num RLSW                                   I               40
RLSW                                       R   N=          40
  1.00000000E+00  1.00000000E+00  1.00000000E+00  1.00000000E+00  1.00000000E+00
  0.00000000E+00  0.00000000E+00  1.00000000E+00  0.00000000E+00  0.00000000E+00
  0.00000000E+00  0.00000000E+00  1.00000000E+00  0.00000000E+00  0.00000000E+00
  0.00000000E+00  0.00000000E+00  1.00000000E+00  0.00000000E+00  0.00000000E+00
  0.00000000E+00  0.00000000E+00  1.00000000E+00  0.00000000E+00  0.00000000E+00
  0.00000000E+00  0.00000000E+00  1.00000000E+00  0.00000000E+00  0.00000000E+00
  0.00000000E+00  0.00000000E+00  0.00000000E+00  0.00000000E+00  0.00000000E+00
  0.00000000E+00  0.00000000E+00  0.00000000E+00  1.00000000E+00  1.00000000E+00
MxBond                                     I                4
NBond                                      I   N=          19
           1           3           2           3           3           3
           4           3           3           4           1           1
           1           1           1           1           1           1
           1
IBond                                      I   N=          76
           8           0           0           0           5           6
           7           0           5           9           0           0
           8          10          16           0           2           3
           8           0           2           9          11           0
           2          12          13          14           1           4
           5           0           3           6          15           0
           4          17          18          19           6           0
           0           0           7           0           0           0
           7           0           0           0           7           0
           0           0           9           0           0           0
           4           0           0           0          10           0
           0           0          10           0           0           0
          10           0           0           0
RBond                                      R   N=          76
  2.00000000E+00  0.00000000E+00  0.00000000E+00  0.00000000E+00  1.50000000E+00
  1.50000000E+00  1.00000000E+00  0.00000000E+00  1.50000000E+00  1.00000000E+00
  0.00000000E+00  0.00000000E+00  1.00000000E+00  1.00000000E+00  1.00000000E+00
  0.00000000E+00  1.50000000E+00  1.50000000E+00  1.50000000E+00  0.00000000E+00
  1.50000000E+00  1.50000000E+00  1.00000000E+00  0.00000000E+00  1.00000000E+00
  1.00000000E+00  1.00000000E+00  1.00000000E+00  2.00000000E+00  1.00000000E+00
  1.50000000E+00  0.00000000E+00  1.00000000E+00  1.50000000E+00  1.00000000E+00
  0.00000000E+00  1.00000000E+00  1.00000000E+00  1.00000000E+00  1.00000000E+00
  1.00000000E+00  0.00000000E+00  0.00000000E+00  0.00000000E+00  1.00000000E+00
  0.00000000E+00  0.00000000E+00  0.00000000E+00  1.00000000E+00  0.00000000E+00
  0.00000000E+00  0.00000000E+00  1.00000000E+00  0.00000000E+00  0.00000000E+00
  0.00000000E+00  1.00000000E+00  0.00000000E+00  0.00000000E+00  0.00000000E+00
  1.00000000E+00  0.00000000E+00  0.00000000E+00  0.00000000E+00  1.00000000E+00
  0.00000000E+00  0.00000000E+00  0.00000000E+00  1.00000000E+00  0.00000000E+00
  0.00000000E+00  0.00000000E+00  1.00000000E+00  0.00000000E+00  0.00000000E+00
  0.00000000E+00
Virial Ratio                               R      2.002804518633568E+00
SCF Energy                                 R     -4.706651202042749E+02
MP2 Energy                                 R     -4.721041828686011E+02
Total Energy                               R     -4.721041828686011E+02
Post-SCF wavefunction norm                 R      1.717763871108694E+00
RMS Force                                  R      5.144732957268276E-07
RMS Density                                R      2.537886679036944E-09
External E-field                           R   N=          35
  0.00000000E+00  0.00000000E+00  0.00000000E+00  0.00000000E+00  0.00000000E+00
  0.00000000E+00  0.00000000E+00  0.00000000E+00  0.00000000E+00  0.00000000E+00
  0.00000000E+00  0.00000000E+00  0.00000000E+00  0.00000000E+00  0.00000000E+00
  0.00000000E+00  0.00000000E+00  0.00000000E+00  0.00000000E+00  0.00000000E+00
  0.00000000E+00  0.00000000E+00  0.00000000E+00  0.00000000E+00  0.00000000E+00
  0.00000000E+00  0.00000000E+00  0.00000000E+00  0.00000000E+00  0.00000000E+00
  0.00000000E+00  0.00000000E+00  0.00000000E+00  0.00000000E+00  0.00000000E+00
IOpCl                                      I                0
IROHF                                      I                0
Alpha Orbital Energies                     R   N=         168
 -2.05255567E+01 -1.56407455E+01 -1.55856958E+01 -1.55656891E+01 -1.13614285E+01
 -1.13014902E+01 -1.12747901E+01 -1.12720365E+01 -1.12569710E+01 -1.12531676E+01
 -1.37689251E+00 -1.34289091E+00 -1.22990444E+00 -1.18725283E+00 -1.03250282E+00
 -9.77531876E-01 -9.47978927E-01 -8.36875357E-01 -8.11180810E-01 -7.68370680E-01
 -7.31534035E-01 -6.56505699E-01 -6.51947976E-01 -6.39798116E-01 -6.15258720E-01
 -6.02895600E-01 -5.92024811E-01 -5.78354159E-01 -5.61152012E-01 -5.56714168E-01
 -5.43282164E-01 -5.24122123E-01 -4.51633689E-01 -4.25031377E-01 -3.91802849E-01
 -3.82087846E-01 -3.18325860E-01  1.18476247E-01  2.16624242E-01  2.40595578E-01
  2.57455098E-01  2.71000329E-01  2.85428146E-01  2.94201400E-01  2.99219670E-01
  3.11165575E-01  3.24485738E-01  3.26171730E-01  3.33827561E-01  3.55083169E-01
  3.73276675E-01  4.04720607E-01  4.42780038E-01  4.82667566E-01  5.12600520E-01
  5.32404849E-01  5.86186977E-01  6.26169698E-01  6.88353707E-01  6.99193319E-01
  7.18685562E-01  7.29777146E-01  7.34096103E-01  7.58813885E-01  7.93574846E-01
  7.95050779E-01  8.07342590E-01  8.09352461E-01  8.38519229E-01  8.85070702E-01
  9.05243760E-01  9.08985364E-01  9.37734096E-01  9.53412747E-01  9.63297360E-01
  9.85401918E-01  9.96456321E-01  1.00074557E+00  1.05285021E+00  1.07627399E+00
  1.08196374E+00  1.09698549E+00  1.10048926E+00  1.12421906E+00  1.12828506E+00
  1.15260527E+00  1.15544170E+00  1.17790229E+00  1.19706355E+00  1.20071720E+00
  1.20909849E+00  1.23128157E+00  1.27171246E+00  1.27371556E+00  1.30453186E+00
  1.35704763E+00  1.36646063E+00  1.40510415E+00  1.47790071E+00  1.52081771E+00
  1.55108223E+00  1.57136197E+00  1.59290461E+00  1.59449389E+00  1.59667848E+00
  1.65288175E+00  1.67544485E+00  1.69727856E+00  1.72990105E+00  1.74076027E+00
  1.78052797E+00  1.81794320E+00  1.81999401E+00  1.99172251E+00  2.02774278E+00
  2.06194039E+00  2.07539992E+00  2.13428143E+00  2.15768161E+00  2.18832506E+00
  2.21257403E+00  2.23608913E+00  2.25830289E+00  2.28040416E+00  2.30528246E+00
  2.34351381E+00  2.37045080E+00  2.38341540E+00  2.38989067E+00  2.40458701E+00
  2.45658940E+00  2.52914938E+00  2.53883698E+00  2.56796320E+00  2.60266987E+00
  2.60685966E+00  2.61687250E+00  2.62670710E+00  2.65182116E+00  2.65583474E+00
  2.72282613E+00  2.74003071E+00  2.76739353E+00  2.87767871E+00  2.88545912E+00
  2.92145941E+00  2.97083411E+00  3.02772871E+00  3.05218259E+00  3.06674700E+00
  3.10865511E+00  3.18572596E+00  3.25114959E+00  3.30307407E+00  3.34921204E+00
  3.39939990E+00  3.60330230E+00  3.68314847E+00  4.37302424E+00  4.44639733E+00
  4.45965854E+00  4.55375860E+00  4.59074538E+00  4.69420421E+00  4.74503953E+00
  4.80420389E+00  4.98989686E+00  5.20496884E+00
Alpha MO coefficients                      R   N=       28224
  9.94690159E-01  2.09714262E-02  2.40183022E-04 -1.49834851E-03 -1.66347479E-09
  4.36911645E-03 -1.42787534E-06  1.52991889E-04 -3.28047500E-10 -3.89144902E-03
 -3.71645510E-03 -4.09995961E-03 -4.27484852E-05  1.09959450E-09  6.22829407E-11
 -4.37858485E-06 -1.18413784E-05  1.55105326E-05  2.55537925E-06 -7.95175449E-10
  7.82875135E-05 -9.60824661E-05  1.13788057E-04  4.09993899E-09 -2.12207914E-05
 -1.87878113E-05 -5.29326010E-06 -1.82441862E-05  4.78035459E-10  9.53251153E-10
 -1.46790967E-06 -1.89858031E-06 -1.05365732E-05  1.97914579E-05 -6.58140637E-12
  1.13022660E-04  8.11179356E-05  2.81270251E-05 -2.30786164E-11 -1.07438958E-05
  2.62211547E-05 -3.17903686E-06  1.16223082E-05 -1.93170949E-10  1.07816195E-10
 -4.74205258E-06 -2.81079455E-05  9.01056328E-06 -2.43217909E-05 -4.88748579E-11
  7.57931859E-05  3.00189092E-05  4.81573891E-05  2.58157092E-10  1.09152083E-04
 -8.06473123E-05 -4.18902545E-05  1.91171651E-05  4.76561868E-10  1.65659575E-12