545831                                                                  
Freq      RMP2-FC                                                     6-31G(d)            
Number of atoms                            I               13
Info1-9                                    I   N=           9
          25          23        1002           0           0         100
           6           2           1
Charge                                     I                0
Multiplicity                               I                1
Number of electrons                        I               54
Number of alpha electrons                  I               27
Number of beta electrons                   I               27
Number of basis functions                  I              117
Number of independent functions            I              117
Number of point charges in /Mol/           I                0
Number of translation vectors              I                0
Atomic numbers                             I   N=          13
           8           8           8           6           6           6
           6           1           1           1           1           1
           1
Nuclear charges                            R   N=          13
  8.00000000E+00  8.00000000E+00  8.00000000E+00  6.00000000E+00  6.00000000E+00
  6.00000000E+00  6.00000000E+00  1.00000000E+00  1.00000000E+00  1.00000000E+00
  1.00000000E+00  1.00000000E+00  1.00000000E+00
Current cartesian coordinates              R   N=          39
  1.89142506E+00  2.11594393E+00 -1.81231020E-01 -3.09708815E+00 -2.27452866E+00
 -2.97971205E-01 -2.31126506E+00  3.02783997E+00 -1.27728413E-01  1.53884168E+00
 -2.34852629E+00 -3.75398180E-01 -8.65036033E-01 -1.26366727E+00  7.49020142E-01
  3.38740062E+00 -1.79624809E-01  9.05310370E-02 -5.89816490E-01  1.53060237E+00
  1.18370032E-01  1.23389691E+00 -2.63799466E+00 -2.39964369E+00  2.14715163E+00
 -4.12664351E+00  4.77569528E-01 -8.46987188E-01 -1.45374883E+00  2.82609535E+00
  4.17386183E+00 -2.14514832E-01  2.00378240E+00  4.92543608E+00 -5.85431924E-02
 -1.27531691E+00 -4.32627277E+00 -8.95300787E-01 -2.72179768E-01
Force Field                                I                0
Int Atom Types                             I   N=          13
           0           0           0           0           0           0
           0           0           0           0           0           0
           0
MM charges                                 R   N=          13
  0.00000000E+00  0.00000000E+00  0.00000000E+00  0.00000000E+00  0.00000000E+00
  0.00000000E+00  0.00000000E+00  0.00000000E+00  0.00000000E+00  0.00000000E+00
  0.00000000E+00  0.00000000E+00  0.00000000E+00
Integer atomic weights                     I   N=          13
          16          16          16          12          12          12
          12           1           1           1           1           1
           1
Real atomic weights                        R   N=          13
  1.59949146E+01  1.59949146E+01  1.59949146E+01  1.20000000E+01  1.20000000E+01
  1.20000000E+01  1.20000000E+01  1.00782504E+00  1.00782504E+00  1.00782504E+00
  1.00782504E+00  1.00782504E+00  1.00782504E+00
Atom fragment info                         I   N=          13
           0           0           0           0           0           0
           0           0           0           0           0           0
           0
Atom residue num                           I   N=          13
           0           0           0           0           0           0
           0           0           0           0           0           0
           0
Nuclear spins                              I   N=          13
           0           0           0           0           0           0
           0           1           1           1           1           1
           1
Nuclear ZEff                               R   N=          13
 -5.60000000E+00 -5.60000000E+00 -5.60000000E+00 -3.60000000E+00 -3.60000000E+00
 -3.60000000E+00 -3.60000000E+00 -1.00000000E+00 -1.00000000E+00 -1.00000000E+00
 -1.00000000E+00 -1.00000000E+00 -1.00000000E+00
Nuclear QMom                               R   N=          13
  0.00000000E+00  0.00000000E+00  0.00000000E+00  0.00000000E+00  0.00000000E+00
  0.00000000E+00  0.00000000E+00  0.00000000E+00  0.00000000E+00  0.00000000E+00
  0.00000000E+00  0.00000000E+00  0.00000000E+00
Nuclear GFac                               R   N=          13
  0.00000000E+00  0.00000000E+00  0.00000000E+00  0.00000000E+00  0.00000000E+00
  0.00000000E+00  0.00000000E+00  2.79284600E+00  2.79284600E+00  2.79284600E+00
  2.79284600E+00  2.79284600E+00  2.79284600E+00
MicOpt                                     I   N=          13
          -1          -1          -1          -1          -1          -1
          -1          -1          -1          -1          -1          -1
          -1
Number of contracted shells                I               40
Number of primitive shells                 I              101
Pure/Cartesian d shells                    I                1
Pure/Cartesian f shells                    I                0
Highest angular momentum                   I                2
Largest degree of contraction              I                6
Shell types                                I   N=          40
           0          -1          -1           2           0          -1
          -1           2           0          -1          -1           2
           0          -1          -1           2           0          -1
          -1           2           0          -1          -1           2
           0          -1          -1           2           0           0
           0           0           0           0           0           0
           0           0           0           0
Number of primitives per shell             I   N=          40
           6           3           1           1           6           3
           1           1           6           3           1           1
           6           3           1           1           6           3
           1           1           6           3           1           1
           6           3           1           1           3           1
           3           1           3           1           3           1
           3           1           3           1
Shell to atom map                          I   N=          40
           1           1           1           1           2           2
           2           2           3           3           3           3
           4           4           4           4           5           5
           5           5           6           6           6           6
           7           7           7           7           8           8
           9           9          10          10          11          11
          12          12          13          13
Primitive exponents                        R   N=         101
  5.48467166E+03  8.25234946E+02  1.88046958E+02  5.29645000E+01  1.68975704E+01
  5.79963534E+00  1.55396162E+01  3.59993359E+00  1.01376175E+00  2.70005823E-01
  8.00000000E-01  5.48467166E+03  8.25234946E+02  1.88046958E+02  5.29645000E+01
  1.68975704E+01  5.79963534E+00  1.55396162E+01  3.59993359E+00  1.01376175E+00
  2.70005823E-01  8.00000000E-01  5.48467166E+03  8.25234946E+02  1.88046958E+02
  5.29645000E+01  1.68975704E+01  5.79963534E+00  1.55396162E+01  3.59993359E+00
  1.01376175E+00  2.70005823E-01  8.00000000E-01  3.04752488E+03  4.57369518E+02
  1.03948685E+02  2.92101553E+01  9.28666296E+00  3.16392696E+00  7.86827235E+00
  1.88128854E+00  5.44249258E-01  1.68714478E-01  8.00000000E-01  3.04752488E+03
  4.57369518E+02  1.03948685E+02  2.92101553E+01  9.28666296E+00  3.16392696E+00
  7.86827235E+00  1.88128854E+00  5.44249258E-01  1.68714478E-01  8.00000000E-01
  3.04752488E+03  4.57369518E+02  1.03948685E+02  2.92101553E+01  9.28666296E+00
  3.16392696E+00  7.86827235E+00  1.88128854E+00  5.44249258E-01  1.68714478E-01
  8.00000000E-01  3.04752488E+03  4.57369518E+02  1.03948685E+02  2.92101553E+01
  9.28666296E+00  3.16392696E+00  7.86827235E+00  1.88128854E+00  5.44249258E-01
  1.68714478E-01  8.00000000E-01  1.87311370E+01  2.82539436E+00  6.40121692E-01
  1.61277759E-01  1.87311370E+01  2.82539436E+00  6.40121692E-01  1.61277759E-01
  1.87311370E+01  2.82539436E+00  6.40121692E-01  1.61277759E-01  1.87311370E+01
  2.82539436E+00  6.40121692E-01  1.61277759E-01  1.87311370E+01  2.82539436E+00
  6.40121692E-01  1.61277759E-01  1.87311370E+01  2.82539436E+00  6.40121692E-01
  1.61277759E-01
Contraction coefficients                   R   N=         101
  1.83107443E-03  1.39501722E-02  6.84450781E-02  2.32714336E-01  4.70192898E-01
  3.58520853E-01 -1.10777550E-01 -1.48026263E-01  1.13076702E+00  1.00000000E+00
  1.00000000E+00  1.83107443E-03  1.39501722E-02  6.84450781E-02  2.32714336E-01
  4.70192898E-01  3.58520853E-01 -1.10777550E-01 -1.48026263E-01  1.13076702E+00
  1.00000000E+00  1.00000000E+00  1.83107443E-03  1.39501722E-02  6.84450781E-02
  2.32714336E-01  4.70192898E-01  3.58520853E-01 -1.10777550E-01 -1.48026263E-01
  1.13076702E+00  1.00000000E+00  1.00000000E+00  1.83473713E-03  1.40373228E-02
  6.88426223E-02  2.32184443E-01  4.67941348E-01  3.62311985E-01 -1.19332420E-01
 -1.60854152E-01  1.14345644E+00  1.00000000E+00  1.00000000E+00  1.83473713E-03
  1.40373228E-02  6.88426223E-02  2.32184443E-01  4.67941348E-01  3.62311985E-01
 -1.19332420E-01 -1.60854152E-01  1.14345644E+00  1.00000000E+00  1.00000000E+00
  1.83473713E-03  1.40373228E-02  6.88426223E-02  2.32184443E-01  4.67941348E-01
  3.62311985E-01 -1.19332420E-01 -1.60854152E-01  1.14345644E+00  1.00000000E+00
  1.00000000E+00  1.83473713E-03  1.40373228E-02  6.88426223E-02  2.32184443E-01
  4.67941348E-01  3.62311985E-01 -1.19332420E-01 -1.60854152E-01  1.14345644E+00
  1.00000000E+00  1.00000000E+00  3.34946043E-02  2.34726953E-01  8.13757326E-01
  1.00000000E+00  3.34946043E-02  2.34726953E-01  8.13757326E-01  1.00000000E+00
  3.34946043E-02  2.34726953E-01  8.13757326E-01  1.00000000E+00  3.34946043E-02
  2.34726953E-01  8.13757326E-01  1.00000000E+00  3.34946043E-02  2.34726953E-01
  8.13757326E-01  1.00000000E+00  3.34946043E-02  2.34726953E-01  8.13757326E-01
  1.00000000E+00
P(S=P) Contraction coefficients            R   N=         101
  0.00000000E+00  0.00000000E+00  0.00000000E+00  0.00000000E+00  0.00000000E+00
  0.00000000E+00  7.08742682E-02  3.39752839E-01  7.27158577E-01  1.00000000E+00
  0.00000000E+00  0.00000000E+00  0.00000000E+00  0.00000000E+00  0.00000000E+00
  0.00000000E+00  0.00000000E+00  7.08742682E-02  3.39752839E-01  7.27158577E-01
  1.00000000E+00  0.00000000E+00  0.00000000E+00  0.00000000E+00  0.00000000E+00
  0.00000000E+00  0.00000000E+00  0.00000000E+00  7.08742682E-02  3.39752839E-01
  7.27158577E-01  1.00000000E+00  0.00000000E+00  0.00000000E+00  0.00000000E+00
  0.00000000E+00  0.00000000E+00  0.00000000E+00  0.00000000E+00  6.89990666E-02
  3.16423961E-01  7.44308291E-01  1.00000000E+00  0.00000000E+00  0.00000000E+00
  0.00000000E+00  0.00000000E+00  0.00000000E+00  0.00000000E+00  0.00000000E+00
  6.89990666E-02  3.16423961E-01  7.44308291E-01  1.00000000E+00  0.00000000E+00
  0.00000000E+00  0.00000000E+00  0.00000000E+00  0.00000000E+00  0.00000000E+00
  0.00000000E+00  6.89990666E-02  3.16423961E-01  7.44308291E-01  1.00000000E+00
  0.00000000E+00  0.00000000E+00  0.00000000E+00  0.00000000E+00  0.00000000E+00
  0.00000000E+00  0.00000000E+00  6.89990666E-02  3.16423961E-01  7.44308291E-01
  1.00000000E+00  0.00000000E+00  0.00000000E+00  0.00000000E+00  0.00000000E+00
  0.00000000E+00  0.00000000E+00  0.00000000E+00  0.00000000E+00  0.00000000E+00
  0.00000000E+00  0.00000000E+00  0.00000000E+00  0.00000000E+00  0.00000000E+00
  0.00000000E+00  0.00000000E+00  0.00000000E+00  0.00000000E+00  0.00000000E+00
  0.00000000E+00  0.00000000E+00  0.00000000E+00  0.00000000E+00  0.00000000E+00
  0.00000000E+00
Coordinates of each shell                  R   N=         120
  1.89142506E+00  2.11594393E+00 -1.81231020E-01  1.89142506E+00  2.11594393E+00
 -1.81231020E-01  1.89142506E+00  2.11594393E+00 -1.81231020E-01  1.89142506E+00
  2.11594393E+00 -1.81231020E-01 -3.09708815E+00 -2.27452866E+00 -2.97971205E-01
 -3.09708815E+00 -2.27452866E+00 -2.97971205E-01 -3.09708815E+00 -2.27452866E+00
 -2.97971205E-01 -3.09708815E+00 -2.27452866E+00 -2.97971205E-01 -2.31126506E+00
  3.02783997E+00 -1.27728413E-01 -2.31126506E+00  3.02783997E+00 -1.27728413E-01
 -2.31126506E+00  3.02783997E+00 -1.27728413E-01 -2.31126506E+00  3.02783997E+00
 -1.27728413E-01  1.53884168E+00 -2.34852629E+00 -3.75398180E-01  1.53884168E+00
 -2.34852629E+00 -3.75398180E-01  1.53884168E+00 -2.34852629E+00 -3.75398180E-01
  1.53884168E+00 -2.34852629E+00 -3.75398180E-01 -8.65036033E-01 -1.26366727E+00
  7.49020142E-01 -8.65036033E-01 -1.26366727E+00  7.49020142E-01 -8.65036033E-01
 -1.26366727E+00  7.49020142E-01 -8.65036033E-01 -1.26366727E+00  7.49020142E-01
  3.38740062E+00 -1.79624809E-01  9.05310370E-02  3.38740062E+00 -1.79624809E-01
  9.05310370E-02  3.38740062E+00 -1.79624809E-01  9.05310370E-02  3.38740062E+00
 -1.79624809E-01  9.05310370E-02 -5.89816490E-01  1.53060237E+00  1.18370032E-01
 -5.89816490E-01  1.53060237E+00  1.18370032E-01 -5.89816490E-01  1.53060237E+00
  1.18370032E-01 -5.89816490E-01  1.53060237E+00  1.18370032E-01  1.23389691E+00
 -2.63799466E+00 -2.39964369E+00  1.23389691E+00 -2.63799466E+00 -2.39964369E+00
  2.14715163E+00 -4.12664351E+00  4.77569528E-01  2.14715163E+00 -4.12664351E+00
  4.77569528E-01 -8.46987188E-01 -1.45374883E+00  2.82609535E+00 -8.46987188E-01
 -1.45374883E+00  2.82609535E+00  4.17386183E+00 -2.14514832E-01  2.00378240E+00
  4.17386183E+00 -2.14514832E-01  2.00378240E+00  4.92543608E+00 -5.85431924E-02
 -1.27531691E+00  4.92543608E+00 -5.85431924E-02 -1.27531691E+00 -4.32627277E+00
 -8.95300787E-01 -2.72179768E-01 -4.32627277E+00 -8.95300787E-01 -2.72179768E-01
Constraint Structure                       R   N=          39
  1.89142506E+00  2.11594393E+00 -1.81231020E-01 -3.09708815E+00 -2.27452866E+00
 -2.97971205E-01 -2.31126506E+00  3.02783997E+00 -1.27728413E-01  1.53884168E+00
 -2.34852629E+00 -3.75398180E-01 -8.65036033E-01 -1.26366727E+00  7.49020142E-01
  3.38740062E+00 -1.79624809E-01  9.05310370E-02 -5.89816490E-01  1.53060237E+00
  1.18370032E-01  1.23389691E+00 -2.63799466E+00 -2.39964369E+00  2.14715163E+00
 -4.12664351E+00  4.77569528E-01 -8.46987188E-01 -1.45374883E+00  2.82609535E+00
  4.17386183E+00 -2.14514832E-01  2.00378240E+00  4.92543608E+00 -5.85431924E-02
 -1.27531691E+00 -4.32627277E+00 -8.95300787E-01 -2.72179768E-01
Num ILSW                                   I              100
ILSW                                       I   N=         100
           0           1           0           0           2           0
           0           0           0           0           0          -1
           0           0           0           0           0           0
           0           0           0           0           1           0
           1           0           0           0           0           0
           0           0      100000           0          -1           0
           0           0           0           0           0           0
           0           0           0           1           1           0
           0           0           1           0           0           0
           0           0           4          40           0           0
           0           0           0           0           0           0
           0           0           0           0           0           0
           0           0           0           0           0           0
           0           0           0           0           0           0
           0           0           0           0           0           0
           0           0           0           0           0           0
           0           0           0           0
Num RLSW                                   I               40
RLSW                                       R   N=          40
  1.00000000E+00  1.00000000E+00  1.00000000E+00  1.00000000E+00  1.00000000E+00
  0.00000000E+00  0.00000000E+00  1.00000000E+00  0.00000000E+00  0.00000000E+00
  0.00000000E+00  0.00000000E+00  1.00000000E+00  0.00000000E+00  0.00000000E+00
  0.00000000E+00  0.00000000E+00  1.00000000E+00  0.00000000E+00  0.00000000E+00
  0.00000000E+00  0.00000000E+00  1.00000000E+00  0.00000000E+00  0.00000000E+00
  0.00000000E+00  0.00000000E+00  1.00000000E+00  0.00000000E+00  0.00000000E+00
  0.00000000E+00  0.00000000E+00  0.00000000E+00  0.00000000E+00  0.00000000E+00
  0.00000000E+00  0.00000000E+00  0.00000000E+00  1.00000000E+00  1.00000000E+00
MxBond                                     I                4
NBond                                      I   N=          13
           2           2           1           4           4           4
           3           1           1           1           1           1
           1
IBond                                      I   N=          52
           6           7           0           0           5          13
           0           0           7           0           0           0
           5           6           8           9           2           4
           7          10           1           4          11          12
           1           3           5           0           4           0
           0           0           4           0           0           0
           5           0           0           0           6           0
           0           0           6           0           0           0
           2           0           0           0
RBond                                      R   N=          52
  1.00000000E+00  1.50000000E+00  0.00000000E+00  0.00000000E+00  1.00000000E+00
  1.00000000E+00  0.00000000E+00  0.00000000E+00  2.00000000E+00  0.00000000E+00
  0.00000000E+00  0.00000000E+00  1.00000000E+00  1.00000000E+00  1.00000000E+00
  1.00000000E+00  1.00000000E+00  1.00000000E+00  1.00000000E+00  1.00000000E+00
  1.00000000E+00  1.00000000E+00  1.00000000E+00  1.00000000E+00  1.50000000E+00
  2.00000000E+00  1.00000000E+00  0.00000000E+00  1.00000000E+00  0.00000000E+00
  0.00000000E+00  0.00000000E+00  1.00000000E+00  0.00000000E+00  0.00000000E+00
  0.00000000E+00  1.00000000E+00  0.00000000E+00  0.00000000E+00  0.00000000E+00
  1.00000000E+00  0.00000000E+00  0.00000000E+00  0.00000000E+00  1.00000000E+00
  0.00000000E+00  0.00000000E+00  0.00000000E+00  1.00000000E+00  0.00000000E+00
  0.00000000E+00  0.00000000E+00
Virial Ratio                               R      2.002736116309705E+00
SCF Energy                                 R     -3.795491151436962E+02
MP2 Energy                                 R     -3.805923242039893E+02
Total Energy                               R     -3.805923242039893E+02
Post-SCF wavefunction norm                 R      1.621826302466331E+00
RMS Force                                  R      4.480786569847151E-07
RMS Density                                R      1.439071632342066E-09
External E-field                           R   N=          35
  0.00000000E+00  0.00000000E+00  0.00000000E+00  0.00000000E+00  0.00000000E+00
  0.00000000E+00  0.00000000E+00  0.00000000E+00  0.00000000E+00  0.00000000E+00
  0.00000000E+00  0.00000000E+00  0.00000000E+00  0.00000000E+00  0.00000000E+00
  0.00000000E+00  0.00000000E+00  0.00000000E+00  0.00000000E+00  0.00000000E+00
  0.00000000E+00  0.00000000E+00  0.00000000E+00  0.00000000E+00  0.00000000E+00
  0.00000000E+00  0.00000000E+00  0.00000000E+00  0.00000000E+00  0.00000000E+00
  0.00000000E+00  0.00000000E+00  0.00000000E+00  0.00000000E+00  0.00000000E+00
IOpCl                                      I                0
IROHF                                      I                0
Alpha Orbital Energies                     R   N=         117
 -2.06245758E+01 -2.05833899E+01 -2.05674113E+01 -1.13947411E+01 -1.13171874E+01
 -1.13165960E+01 -1.12584352E+01 -1.46834224E+00 -1.38487193E+00 -1.36812925E+00
 -1.09313191E+00 -9.87550977E-01 -8.60919773E-01 -7.94267174E-01 -7.32530777E-01
 -7.11016130E-01 -6.85006381E-01 -6.55931006E-01 -6.18047913E-01 -6.01838712E-01
 -5.79588543E-01 -5.57479891E-01 -5.33157370E-01 -5.19618320E-01 -4.70252964E-01
 -4.62902349E-01 -4.41881578E-01  1.61673859E-01  2.17284966E-01  2.38674017E-01
  2.59149623E-01  2.80168743E-01  2.91553684E-01  3.03842082E-01  3.26959415E-01
  3.52121813E-01  3.98207043E-01  4.25371263E-01  4.81362077E-01  5.02768699E-01
  5.70101996E-01  7.08045898E-01  7.28022648E-01  7.53072876E-01  7.70769958E-01
  7.83539303E-01  8.19423151E-01  8.50303268E-01  8.80109609E-01  9.15215770E-01
  9.27311329E-01  9.63100256E-01  9.83512577E-01  1.02587573E+00  1.07177091E+00
  1.08946839E+00  1.10596926E+00  1.12149240E+00  1.12321662E+00  1.15641197E+00
  1.18252133E+00  1.19873724E+00  1.28285408E+00  1.31183102E+00  1.32981737E+00
  1.35884704E+00  1.36480043E+00  1.40612175E+00  1.43246393E+00  1.53649862E+00
  1.55945553E+00  1.58835344E+00  1.67732008E+00  1.71190641E+00  1.80126504E+00
  1.83157922E+00  1.90058207E+00  1.97571748E+00  2.00023101E+00  2.03064586E+00
  2.05294512E+00  2.08389900E+00  2.10004349E+00  2.12679256E+00  2.15047976E+00
  2.18372756E+00  2.20939322E+00  2.29337195E+00  2.29988282E+00  2.34940521E+00
  2.37245482E+00  2.42170807E+00  2.44673824E+00  2.48196936E+00  2.55243193E+00
  2.62119589E+00  2.71802836E+00  2.74530357E+00  2.77803758E+00  2.78744429E+00
  2.81752076E+00  2.89385777E+00  2.96635257E+00  3.01650030E+00  3.06616855E+00
  3.11331663E+00  3.19593799E+00  3.29197639E+00  3.41194472E+00  3.50670730E+00
  4.23020897E+00  4.37621102E+00  4.60340828E+00  4.64086369E+00  4.78089429E+00
  4.88414005E+00  5.05323026E+00
Alpha MO coefficients                      R   N=       13689
  9.94670956E-01  2.12207828E-02 -5.44387626E-04 -1.15849987E-03  2.66125284E-04
  3.69179093E-03  1.42557776E-04  8.16533338E-04 -1.70353644E-04 -4.05967102E-03
 -4.08427890E-03 -3.86478578E-03  8.56996704E-05  4.44477797E-06  4.33172787E-05
  2.10952723E-05 -2.12939646E-05  4.42668339E-06 -3.12305311E-06  1.74569704E-06
  1.28794535E-04  4.52738988E-05  6.12500245E-05  2.94239324E-06  7.66003183E-06
 -1.09906438E-05 -1.08114531E-05  7.32213812E-06  4.57023202E-06  4.96065582E-06
 -2.57386336E-04 -1.20156301E-04 -2.87986304E-05 -1.01156935E-05  2.36519358E-06
  8.71640210E-04  1.73237598E-04 -1.02105542E-04  2.73083702E-05 -1.47611677E-04
 -4.01004323E-05 -8.55164765E-05 -1.39780631E-05  1.01673109E-05 -1.35639598E-05
 -3.12062528E-07  3.55922564E-05 -1.42303235E-05 -4.20446537E-05  8.57580116E-06
 -5.81709785E-05 -1.57508309E-04 -1.68365341E-05 -7.97201971E-05 -1.23368728E-05
 -5.53735752E-05 -1.55403982E-05 -1.48447961E-05 -5.31177428E-06  3.33703400E-06
  9.61048789E-06  9.48965518E-05 -2.05967174E-05 -5.66787914E-05  1.13968411E-05
 -8.37531405E-04 -7.67397611E-05 -3.01817222E-04  1.95853763E-04 -2.06348833E-05
 -5.45074564E-05 -1.54538317E-05 -4.80647767E-05  1.30352462E-06  9.06308052E-06
 -1.34363415E-05  1.77549502E-04 -2.15922121E-04  3.50027992E-04 -4.57576798E-05
  1.64062643E-04 -9.28277988E-05 -2.42170969E-04  7.17815702E-05  4.19120369E-05
  1.02294934E-04 -3.93017391E-05 -9.54760721E-05  2.27623112E-05 -9.11522163E-06
 -1.96336170E-05  3.20936940E-04  3.45466268E-04  1.05885333E-04 -4.63582310E-05
  7.04179320E-05  2.32786864E-04 -9.71203603E-04  1.72204108E-04 -1.41147621E-04
 -2.43534516E-05 -7.35636985E-05 -1.16166722E-06  6.99900806E-06 -1.03271402E-05
  2.23729744E-06 -6.09304285E-05  2.27427593E-05  1.48783258E-05  2.69398665E-05
 -5.65129012E-05 -2.79962818E-05 -7.85000484E-05  3.35407063E-06 -2.25937595E-05
 -1.05852637E-05 -3.49676027E-06 -3.66449076E-05 -5.58770962E-05  3.59572760E-06
  5.79280335E-06 -3.96066068E-06  3.24536347E-04 -1.42663378E-04 -7.94080906E-05
  4.58568057E-05 -8.20839451E-06 -3.72865907E-05 -3.57589820E-05  1.52229260E-05
 -6.45583203E-06 -1.32228581E-06  9.94663018E-01  2.11999138E-02  2.20908612E-04
  1.21644830E-03  4.64547272E-04  3.73440240E-03 -1.69415053E-04 -6.46559039E-04
 -2.20798250E-04 -4.15255805E-03 -4.03303052E-03 -3.87452933E-03  1.70730188E-06
 -1.21499446E-04 -7.06614620E-05 -1.16763966E-04  3.60088582E-05  9.22605016E-06
  2.42630351E-06  2.24969847E-06 -2.58828222E-04 -5.39521794E-05  2.61852569E-05
  1.54945171E-06  2.55161822E-05  1.81223949E-05  2.56712861E-05  1.41676346E-06
  4.78935083E-06  1.87100217E-07  3.14562454E-06  4.83459208E-05  3.65668850E-06
 -1.24984746E-05 -9.75263927E-06 -9.49348561E-05  2.41032353E-04  8.78160331E-06
  8.00132795E-05 -5.57336947E-05  1.42101251E-05 -6.22953174E-06  1.65473084E-05
 -7.52560258E-06  1.36452791E-06 -3.72629062E-05  1.84937368E-04 -3.01539543E-04
 -1.58742876E-04 -1.43736846E-04  7.87934160E-04  8.39719016E-05  4.01606298E-04
 -1.37337972E-04 -1.22223514E-05 -4.34996357E-05 -7.20655341E-05  2.83215770E-05
  2.95120835E-05  1.42979569E-06  5.33510867E-07  1.05552619E-05  1.17632680E-05
 -1.26259157E-05  7.57877479E-06 -1.30055418E-04  6.30192356E-06  1.10066429E-04
 -6.42205417E-05 -3.07413183E-06 -1.02120476E-06 -2.61225958E-06 -7.00933126E-06
  3.08789300E-06 -4.20460663E-07  2.19569451E-06  6.80922887E-05  8.04538451E-06
  4.69244250E-05  5.78245200E-06 -5.24113913E-04 -2.94662741E-04  3.27026114E-04
 -8.51225972E-05 -5.29145908E-05 -5.65680909E-05 -1.00361142E-05 -3.72655677E-05
  1.07888708E-05  2.67235394E-06  4.94944933E-05 -1.48268391E-05 -1.27887633E-06
 -7.94734981E-06 -4.28199103E-05 -3.89871559E-05  1.33272918E-05  4.25857250E-05
 -2.87509043E-09 -1.35299685E-05  4.19776591E-04 -2.72978488E-04  2.10213280E-04
 -9.55867084E-05  2.82779512E-05 -4.42791662E-07 -8.10276027E-07  3.89712987E-04
 -1.20521048E-04 -1.13545965E-04  3.34919781E-05 -6.42872694E-05 -1.88843846E-05
 -1.05105791E-04  9.57412695E-05 -2.47124145E-05 -3.07211505E-05  1.26653675E-04
  7.05623415E-06  1.14494061E-05  2.20204493E-06 -2.27595681E-06 -1.47417671E-05
 -9.03091163E-05 -4.67463406E-07 -1.12566632E-05 -6.94253141E-06  2.95530843E-06
  2.74091578E-06 -8.67124302E-06 -1.28019964E-05  3.43391388E-07  9.94688696E-01
  2.09612091E-02  1.18923908E-03 -1.07039060E-03  1.84912958E-04  4.66744749E-03
  4.79764478E-05 -1.80041362E-05 -7.81864678E-06 -3.74033928E-03 -3.77793162E-03
 -4.13496232E-03 -2.16865353E-04  2.03714991E-05 -8.61349631E-05 -1.18414342E-07
  2.01280360E-05  7.64049660E-06 -2.97067889E-07 -9.31313330E-06 -9.34772640E-06
  6.73891723E-05 -4.95431872E-05  8.21952944E-05 -4.89040652E-06 -2.01385549E-05
 -1.59048710E-06  1.46904818E-05 -3.94960563E-06 -1.58554165E-06 -5.11076062E-06
 -3.37902809E-05  7.66494205E-06 -2.02092705E-05 -3.24939826E-07  5.68582737E-05
 -2.12902034E-05 -4.71177901E-05 -7.88825303E-05  1.39028259E-05 -5.92162667E-06
 -1.79765574E-05  6.92677878E-05 -1.65847681E-05 -2.66296593E-07  1.62150612E-06
  3.08601186E-05  1.83141261E-05 -9.57915269E-06  3.29123340E-06 -1.62724637E-04
  1.11262819E-04  6.93376566E-06 -5.79450269E-05 -3.91750036E-05  1.90710939E-05
 -1.81975935E-06  1.36401908E-05  8.38079991E-07 -5.74768267E-06 -1.03421037E-05
  4.76847960E-04  5.17214624E-05 -4.78045468E-05  1.25516689E-05 -5.83706818E-04
  3.16399572E-04 -4.45131576E-04  9.46713191E-05 -5.59432743E-04 -3.88424367E-04
 -4.80900816E-05  4.59812043E-04 -7.20585104E-05  6.51834570E-05  1.16867793E-05
  3.64833609E-05 -4.60037250E-06 -5.44636676E-05  1.00143423E-05  2.49001744E-06
  1.90929902E-05  1.55815188E-05  1.00387141E-06 -3.63457190E-05  2.75063990E-06
 -1.12796925E-04 -1.00512429E-04  5.84737048E-04 -2.25951151E-04 -4.32683356E-06
  1.48128947E-05 -9.58056856E-04  1.89861164E-03 -1.34594216E-04 -1.23984422E-04
 -7.38685734E-04  1.58052688E-04  4.55952078E-04 -1.97800758E-04  1.22792593E-04
  9.13091453E-05 -2.92729469E-05 -1.78047557E-04 -3.95861333E-05 -4.94260811E-05
  8.51025730E-06  6.57647280E-04  2.44845027E-04  1.67242729E-04  3.74828950E-05
 -8.39110293E-05 -8.66351393E-06 -1.36251844E-04  5.59513286E-05  4.38367596E-05
 -2.83918487E-05 -1.98776567E-04  1.03898139E-03  2.50458660E-04 -1.49294729E-04
  2.71906226E-05 -5.91484077E-03 -2.30149708E-03  1.19961201E-03 -1.80617397E-04
  1.93719015E-04  4.72499264E-04  6.50106576E-04  1.58821983E-04 -1.46158225E-05
  5.08572041E-05 -5.41748378E-05 -2.75037928E-04  4.18488022E-05 -1.14494919E-04
  1.19278111E-04 -4.22534951E-04 -8.76165479E-04  7.63477648E-04 -1.29622390E-03
  7.04664610E-06  1.09234375E-04 -3.42807198E-05 -1.10068509E-04 -1.69754327E-05
 -1.09553453E-05  3.86425148E-03  3.72628000E-04  1.69351283E-05  6.95784287E-05
  2.93357619E-06  3.13502150E-03  6.98185805E-04  1.56425297E-03  2.91560066E-04
 -2.12142963E-04 -4.53634518E-04 -1.00503215E-04 -5.40743644E-05  2.91623913E-05
  8.02347861E-05 -1.69193824E-04 -3.93013214E-04  1.24577535E-05  1.78537062E-05
 -3.96564062E-05  9.49767707E-04 -1.16488107E-03 -6.04198029E-04  7.39168221E-04
  2.09227102E-04 -8.50316599E-05 -9.32462716E-05 -9.23337139E-05  1.84839499E-05
  1.65514381E-05  9.95922882E-01  2.62879033E-02  7.54322959E-04  5.62551759E-04
 -1.91553430E-04 -4.81132219E-03 -2.30212541E-03  5.12046625E-03 -1.01862422E-03
 -4.05540968E-04 -1.04670876E-03 -2.19044739E-03 -5.16135460E-04 -2.08713414E-07
 -2.60733747E-04 -2.10327001E-04 -4.67787398E-04  1.35679500E-04  8.55312486E-04
 -1.98186018E-04  4.84994429E-05 -1.46067275E-04 -1.24348661E-04  9.06913539E-05
  5.02821434E-04 -6.88562358E-05  1.48087574E-04 -1.02335112E-04  3.36321050E-04
  6.61736791E-05 -2.32179144E-04  3.37450499E-05  4.86275266E-04  5.35585324E-04
  6.32219120E-04 -1.25103042E-04 -2.08790715E-04 -5.45179051E-04  1.88434395E-04
  3.09888984E-04 -1.15490504E-05  1.06429144E-04 -3.88569212E-05 -1.74274906E-04
 -4.27646465E-05 -9.06629549E-06  1.58236596E-06  9.24261724E-04  4.47317689E-04