
    -----------------------------------------------------------------------
          Psi4: An Open-Source Ab Initio Electronic Structure Package
                               Psi4 1.4a3.dev225 

                         Git: Rev {master} 7105e37 


    D. G. A. Smith, L. A. Burns, A. C. Simmonett, R. M. Parrish,
    M. C. Schieber, R. Galvelis, P. Kraus, H. Kruse, R. Di Remigio,
    A. Alenaizan, A. M. James, S. Lehtola, J. P. Misiewicz, M. Scheurer,
    R. A. Shaw, J. B. Schriber, Y. Xie, Z. L. Glick, D. A. Sirianni,
    J. S. O'Brien, J. M. Waldrop, A. Kumar, E. G. Hohenstein,
    B. P. Pritchard, B. R. Brooks, H. F. Schaefer III, A. Yu. Sokolov,
    K. Patkowski, A. E. DePrince III, U. Bozkaya, R. A. King,
    F. A. Evangelista, J. M. Turney, T. D. Crawford, C. D. Sherrill,
    J. Chem. Phys. 152(18) 184108 (2020). https://doi.org/10.1063/5.0006002

                            Additional Code Authors
    E. T. Seidl, C. L. Janssen, E. F. Valeev, M. L. Leininger,
    J. F. Gonthier, R. M. Richard, H. R. McAlexander, M. Saitow, X. Wang,
    P. Verma, and M. H. Lechner

             Previous Authors, Complete List of Code Contributors,
                       and Citations for Specific Modules
    https://github.com/psi4/psi4/blob/master/codemeta.json
    https://github.com/psi4/psi4/graphs/contributors
    http://psicode.org/psi4manual/master/introduction.html#citing-psifour

    -----------------------------------------------------------------------


    Psi4 started on: Saturday, 20 March 2021 02:29AM

    Process ID: 41207
    Host:       c446-022.stampede2.tacc.utexas.edu
    PSIDATADIR: /home1/07844/xy3866/miniconda3/envs/p4env/share/psi4
    Memory:     500.0 MiB
    Threads:    32
    
  ==> Input File <==

--------------------------------------------------------------------------
#psi4
#
memory 32 gb

molecule  {
0 1
  O        1.2764910    -0.5580180    -0.0000140
  C       -0.0720022    -0.2113483    -0.0000089
  C        2.2283480     0.5091050    -0.0000050
  C       -0.5417410     1.0945740     0.0000030
  C       -0.9442280    -1.2979990     0.0000050
  C        3.5986500    -0.1324730     0.0000120
  C       -1.9250240     1.3079840    -0.0000030
  C       -2.3159710    -1.0695280    -0.0000020
  C       -2.8161410     0.2373500     0.0000110
  H        2.0858520     1.1373040    -0.8891130
  H        2.0858350     1.1373010     0.8891040
  H        0.1282520     1.9474600    -0.0000130
  H       -0.5338010    -2.3041010    -0.0000080
  H        4.3764260     0.6364270     0.0000070
  H        3.7225630    -0.7572470     0.8867960
  H        3.7225780    -0.7572730    -0.8867510
  H       -2.3006170     2.3287260     0.0000070
  H       -2.9984970    -1.9161460     0.0000120
  H       -3.8880810     0.4155830     0.0000010
units angstrom
no_reorient  #important for SAPT in psi4, default
symmetry c1  #important for SAPT in psi4, default
}

set PROPERTIES_ORIGIN ["COM"]
properties('MP2/aug-cc-pvtz', properties = ['dipole'])
--------------------------------------------------------------------------

  Memory set to  29.802 GiB by Python driver.
    SCF Algorithm Type (re)set to DF.

*** tstart() called on c446-022.stampede2.tacc.utexas.edu
*** at Sat Mar 20 02:29:46 2021

   => Loading Basis Set <=

    Name: AUG-CC-PVTZ
    Role: ORBITAL
    Keyword: BASIS
    atoms 1     entry O          line   331 file /home1/07844/xy3866/miniconda3/envs/p4env/share/psi4/basis/aug-cc-pvtz.gbs 
    atoms 2-9   entry C          line   239 file /home1/07844/xy3866/miniconda3/envs/p4env/share/psi4/basis/aug-cc-pvtz.gbs 
    atoms 10-19 entry H          line    40 file /home1/07844/xy3866/miniconda3/envs/p4env/share/psi4/basis/aug-cc-pvtz.gbs 


         ---------------------------------------------------------
                                   SCF
               by Justin Turney, Rob Parrish, Andy Simmonett
                          and Daniel G. A. Smith
                              RHF Reference
                       32 Threads,  30517 MiB Core
         ---------------------------------------------------------

  ==> Geometry <==

    Molecular point group: c1
    Full point group: C1

    Geometry (in Angstrom), charge = 0, multiplicity = 1:

       Center              X                  Y                   Z               Mass       
    ------------   -----------------  -----------------  -----------------  -----------------
         O            1.330469707347    -0.543347925371    -0.000013701817    15.994914619570
         C           -0.018023492653    -0.196678225371    -0.000008601817    12.000000000000
         C            2.282326707347     0.523775074629    -0.000004701817    12.000000000000
         C           -0.487762292653     1.109244074629     0.000003298183    12.000000000000
         C           -0.890249292653    -1.283328925371     0.000005298183    12.000000000000
         C            3.652628707347    -0.117802925371     0.000012298183    12.000000000000
         C           -1.871045292653     1.322654074629    -0.000002701817    12.000000000000
         C           -2.261992292653    -1.054857925371    -0.000001701817    12.000000000000
         C           -2.762162292653     0.252020074629     0.000011298183    12.000000000000
         H            2.139830707347     1.151974074629    -0.889112701817     1.007825032230
         H            2.139813707347     1.151971074629     0.889104298183     1.007825032230
         H            0.182230707347     1.962130074629    -0.000012701817     1.007825032230
         H           -0.479822292653    -2.289430925371    -0.000007701817     1.007825032230
         H            4.430404707347     0.651097074629     0.000007298183     1.007825032230
         H            3.776541707347    -0.742576925371     0.886796298183     1.007825032230
         H            3.776556707347    -0.742602925371    -0.886750701817     1.007825032230
         H           -2.246638292653     2.343396074629     0.000007298183     1.007825032230
         H           -2.944518292653    -1.901475925371     0.000012298183     1.007825032230
         H           -3.834102292653     0.430253074629     0.000001298183     1.007825032230

  Running in c1 symmetry.

  Rotational constants: A =      0.16180  B =      0.03076  C =      0.02610 [cm^-1]
  Rotational constants: A =   4850.55343  B =    922.04113  C =    782.39063 [MHz]
  Nuclear repulsion =  418.774722867853939

  Charge       = 0
  Multiplicity = 1
  Electrons    = 66
  Nalpha       = 33
  Nbeta        = 33

  ==> Algorithm <==

  SCF Algorithm Type is DF.
  DIIS enabled.
  MOM disabled.
  Fractional occupation disabled.
  Guess Type is SAD.
  Energy threshold   = 1.00e-10
  Density threshold  = 1.00e-10
  Integral threshold = 1.00e-12

  ==> Primary Basis <==

  Basis Set: AUG-CC-PVTZ
    Blend: AUG-CC-PVTZ
    Number of shells: 216
    Number of basis functions: 644
    Number of Cartesian functions: 745
    Spherical Harmonics?: true
    Max angular momentum: 3

   => Loading Basis Set <=

    Name: (AUG-CC-PVTZ AUX)
    Role: JKFIT
    Keyword: DF_BASIS_SCF
    atoms 1     entry O          line   286 file /home1/07844/xy3866/miniconda3/envs/p4env/share/psi4/basis/aug-cc-pvtz-jkfit.gbs 
    atoms 2-9   entry C          line   162 file /home1/07844/xy3866/miniconda3/envs/p4env/share/psi4/basis/aug-cc-pvtz-jkfit.gbs 
    atoms 10-19 entry H          line    70 file /home1/07844/xy3866/miniconda3/envs/p4env/share/psi4/basis/aug-cc-pvtz-jkfit.gbs 

  ==> Integral Setup <==

  DFHelper Memory: AOs need 4.018 GiB; user supplied 22.352 GiB. Using in-core AOs.

  ==> MemDFJK: Density-Fitted J/K Matrices <==

    J tasked:                   Yes
    K tasked:                   Yes
    wK tasked:                   No
    OpenMP threads:              32
    Memory [MiB]:             22888
    Algorithm:                 Core
    Schwarz Cutoff:           1E-12
    Mask sparsity (%):      11.4073
    Fitting Condition:        1E-10

   => Auxiliary Basis Set <=

  Basis Set: (AUG-CC-PVTZ AUX)
    Blend: AUG-CC-PVTZ-JKFIT
    Number of shells: 410
    Number of basis functions: 1396
    Number of Cartesian functions: 1729
    Spherical Harmonics?: true
    Max angular momentum: 4

  Minimum eigenvalue in the overlap matrix is 5.5994137981E-07.
  Reciprocal condition number of the overlap matrix is 3.0129458461E-08.
    Using symmetric orthogonalization.

  ==> Pre-Iterations <==

  SCF Guess: Superposition of Atomic Densities via on-the-fly atomic UHF (no occupation information).

   -------------------------
    Irrep   Nso     Nmo    
   -------------------------
     A        644     644 
   -------------------------
    Total     644     644
   -------------------------

  ==> Iterations <==

                           Total Energy        Delta E     RMS |[F,P]|

   @DF-RHF iter SAD:  -383.02626737696966   -3.83026e+02   0.00000e+00 
   @DF-RHF iter   1:  -383.48453382337647   -4.58266e-01   1.04174e-03 DIIS
   @DF-RHF iter   2:  -383.70900809559078   -2.24474e-01   4.64973e-04 DIIS
   @DF-RHF iter   3:  -383.75273355678871   -4.37255e-02   9.06298e-05 DIIS
   @DF-RHF iter   4:  -383.75560849212269   -2.87494e-03   3.03153e-05 DIIS
   @DF-RHF iter   5:  -383.75583741289495   -2.28921e-04   8.35128e-06 DIIS
   @DF-RHF iter   6:  -383.75586176050666   -2.43476e-05   2.50154e-06 DIIS
   @DF-RHF iter   7:  -383.75586422104413   -2.46054e-06   8.08787e-07 DIIS
   @DF-RHF iter   8:  -383.75586455866971   -3.37626e-07   2.86054e-07 DIIS
   @DF-RHF iter   9:  -383.75586461882068   -6.01510e-08   1.04846e-07 DIIS
   @DF-RHF iter  10:  -383.75586462714955   -8.32887e-09   4.88564e-08 DIIS
   @DF-RHF iter  11:  -383.75586462972609   -2.57654e-09   2.19529e-08 DIIS
   @DF-RHF iter  12:  -383.75586463039338   -6.67285e-10   8.81797e-09 DIIS
   @DF-RHF iter  13:  -383.75586463048637   -9.29958e-11   3.15293e-09 DIIS
   @DF-RHF iter  14:  -383.75586463049757   -1.11982e-11   7.13386e-10 DIIS
   @DF-RHF iter  15:  -383.75586463049774   -1.70530e-13   2.06707e-10 DIIS
   @DF-RHF iter  16:  -383.75586463049638    1.36424e-12   7.45160e-11 DIIS
  Energy and wave function converged.


  ==> Post-Iterations <==

    Orbital Energies [Eh]
    ---------------------

    Doubly Occupied:                                                      

       1A    -20.578108     2A    -11.298265     3A    -11.285390  
       4A    -11.240713     5A    -11.239214     6A    -11.231599  
       7A    -11.227384     8A    -11.227067     9A    -11.220216  
      10A     -1.393909    11A     -1.147312    12A     -1.041579  
      13A     -1.017105    14A     -0.986598    15A     -0.867191  
      16A     -0.824309    17A     -0.800810    18A     -0.720078  
      19A     -0.665394    20A     -0.663373    21A     -0.647581  
      22A     -0.614677    23A     -0.588806    24A     -0.558983  
      25A     -0.558275    26A     -0.544246    27A     -0.514394  
      28A     -0.503296    29A     -0.501874    30A     -0.480654  
      31A     -0.460382    32A     -0.339881    33A     -0.313994  

    Virtual:                                                              

      34A      0.028334    35A      0.030937    36A      0.034104  
      37A      0.043049    38A      0.044678    39A      0.045701  
      40A      0.059356    41A      0.064677    42A      0.065893  
      43A      0.075836    44A      0.091952    45A      0.098929  
      46A      0.104619    47A      0.110496    48A      0.111910  
      49A      0.114925    50A      0.116941    51A      0.118622  
      52A      0.123596    53A      0.127828    54A      0.128528  
      55A      0.132608    56A      0.133528    57A      0.140025  
      58A      0.142646    59A      0.147541    60A      0.150520  
      61A      0.157876    62A      0.162369    63A      0.167804  
      64A      0.168592    65A      0.173343    66A      0.173722  
      67A      0.181607    68A      0.187055    69A      0.210943  
      70A      0.215071    71A      0.219124    72A      0.220590  
      73A      0.235976    74A      0.240211    75A      0.254629  
      76A      0.258467    77A      0.260946    78A      0.270182  
      79A      0.273114    80A      0.274758    81A      0.282964  
      82A      0.284938    83A      0.289587    84A      0.297200  
      85A      0.301301    86A      0.303222    87A      0.316258  
      88A      0.316477    89A      0.319435    90A      0.323171  
      91A      0.326216    92A      0.328722    93A      0.333285  
      94A      0.341368    95A      0.348911    96A      0.349974  
      97A      0.357772    98A      0.362387    99A      0.367225  
     100A      0.370250   101A      0.375035   102A      0.377020  
     103A      0.382469   104A      0.387382   105A      0.401569  
     106A      0.405729   107A      0.420740   108A      0.423458  
     109A      0.428883   110A      0.431138   111A      0.437905  
     112A      0.438169   113A      0.443324   114A      0.446070  
     115A      0.446436   116A      0.453634   117A      0.458140  
     118A      0.463004   119A      0.467906   120A      0.468216  
     121A      0.477110   122A      0.479308   123A      0.482878  
     124A      0.483981   125A      0.492413   126A      0.494809  
     127A      0.499522   128A      0.502758   129A      0.506107  
     130A      0.510847   131A      0.512519   132A      0.518762  
     133A      0.520651   134A      0.527797   135A      0.530896  
     136A      0.538454   137A      0.539290   138A      0.545628  
     139A      0.551973   140A      0.552513   141A      0.555286  
     142A      0.561746   143A      0.568339   144A      0.581105  
     145A      0.586124   146A      0.603147   147A      0.603860  
     148A      0.613382   149A      0.617054   150A      0.618485  
     151A      0.623771   152A      0.636492   153A      0.648784  
     154A      0.659218   155A      0.660164   156A      0.661269  
     157A      0.675829   158A      0.682438   159A      0.689296  
     160A      0.695081   161A      0.699839   162A      0.715415  
     163A      0.715447   164A      0.723673   165A      0.734592  
     166A      0.738600   167A      0.750100   168A      0.752413  
     169A      0.764336   170A      0.781412   171A      0.783650  
     172A      0.794897   173A      0.807738   174A      0.820075  
     175A      0.824253   176A      0.829927   177A      0.839923  
     178A      0.841407   179A      0.855535   180A      0.856856  
     181A      0.861893   182A      0.865944   183A      0.873776  
     184A      0.874274   185A      0.876709   186A      0.890149  
     187A      0.898221   188A      0.900433   189A      0.907476  
     190A      0.909203   191A      0.909402   192A      0.914745  
     193A      0.915717   194A      0.919005   195A      0.930036  
     196A      0.936121   197A      0.937624   198A      0.946007  
     199A      0.950207   200A      0.961204   201A      0.965006  
     202A      0.979113   203A      0.980756   204A      0.982876  
     205A      0.987587   206A      0.987642   207A      1.004461  
     208A      1.007523   209A      1.013829   210A      1.014865  
     211A      1.028396   212A      1.033034   213A      1.038921  
     214A      1.044820   215A      1.048000   216A      1.056107  
     217A      1.060978   218A      1.061901   219A      1.069064  
     220A      1.072875   221A      1.077049   222A      1.094777  
     223A      1.097801   224A      1.101613   225A      1.108480  
     226A      1.113385   227A      1.113478   228A      1.126226  
     229A      1.126946   230A      1.127988   231A      1.139547  
     232A      1.145213   233A      1.150178   234A      1.153903  
     235A      1.161696   236A      1.174281   237A      1.177499  
     238A      1.185867   239A      1.189954   240A      1.199471  
     241A      1.209310   242A      1.211580   243A      1.217897  
     244A      1.217941   245A      1.221692   246A      1.225253  
     247A      1.234866   248A      1.237689   249A      1.247669  
     250A      1.249788   251A      1.253498   252A      1.273204  
     253A      1.282959   254A      1.286194   255A      1.292150  
     256A      1.301482   257A      1.314520   258A      1.317971  
     259A      1.318718   260A      1.335678   261A      1.336816  
     262A      1.353176   263A      1.364808   264A      1.369662  
     265A      1.376647   266A      1.380394   267A      1.395799  
     268A      1.401277   269A      1.416346   270A      1.427966  
     271A      1.430362   272A      1.435984   273A      1.442028  
     274A      1.464541   275A      1.475233   276A      1.495440  
     277A      1.501928   278A      1.523418   279A      1.533408  
     280A      1.533934   281A      1.545664   282A      1.554108  
     283A      1.555223   284A      1.573083   285A      1.581154  
     286A      1.590587   287A      1.595290   288A      1.597597  
     289A      1.617281   290A      1.634080   291A      1.635613  
     292A      1.636248   293A      1.649035   294A      1.670511  
     295A      1.675191   296A      1.691211   297A      1.693199  
     298A      1.697774   299A      1.702976   300A      1.705406  
     301A      1.718000   302A      1.720032   303A      1.729243  
     304A      1.736613   305A      1.744507   306A      1.752090  
     307A      1.767000   308A      1.778180   309A      1.794945  
     310A      1.798809   311A      1.810316   312A      1.822132  
     313A      1.823571   314A      1.833006   315A      1.846208  
     316A      1.848044   317A      1.849392   318A      1.852360  
     319A      1.860727   320A      1.873562   321A      1.876244  
     322A      1.891390   323A      1.897772   324A      1.905817  
     325A      1.905909   326A      1.916261   327A      1.930164  
     328A      1.939684   329A      1.963201   330A      1.973428  
     331A      1.978845   332A      2.000175   333A      2.007603  
     334A      2.020715   335A      2.020849   336A      2.027573  
     337A      2.035215   338A      2.036742   339A      2.059370  
     340A      2.060869   341A      2.061743   342A      2.073206  
     343A      2.093941   344A      2.095502   345A      2.114414  
     346A      2.119148   347A      2.121929   348A      2.129651  
     349A      2.131722   350A      2.135925   351A      2.146896  
     352A      2.165104   353A      2.182835   354A      2.199498  
     355A      2.217266   356A      2.231014   357A      2.231633  
     358A      2.241489   359A      2.270507   360A      2.275783  
     361A      2.284337   362A      2.288039   363A      2.308317  
     364A      2.336092   365A      2.336303   366A      2.352676  
     367A      2.355116   368A      2.372646   369A      2.372772  
     370A      2.383972   371A      2.396764   372A      2.412539  
     373A      2.418676   374A      2.427121   375A      2.444563  
     376A      2.467498   377A      2.488118   378A      2.501170  
     379A      2.508249   380A      2.566077   381A      2.589103  
     382A      2.601058   383A      2.624675   384A      2.636287  
     385A      2.647018   386A      2.668201   387A      2.707760  
     388A      2.718916   389A      2.724357   390A      2.757256  
     391A      2.760938   392A      2.784976   393A      2.797173  
     394A      2.816523   395A      2.852329   396A      2.853851  
     397A      2.869999   398A      2.933639   399A      2.959318  
     400A      2.979787   401A      3.034808   402A      3.066669  
     403A      3.076427   404A      3.077315   405A      3.106419  
     406A      3.125099   407A      3.179273   408A      3.197745  
     409A      3.213027   410A      3.233631   411A      3.247936  
     412A      3.281728   413A      3.291737   414A      3.304364  
     415A      3.306443   416A      3.345071   417A      3.361436  
     418A      3.375353   419A      3.383889   420A      3.408142  
     421A      3.414755   422A      3.429151   423A      3.430453  
     424A      3.442348   425A      3.455210   426A      3.459588  
     427A      3.480743   428A      3.487259   429A      3.501187  
     430A      3.507338   431A      3.519134   432A      3.549934  
     433A      3.552900   434A      3.558310   435A      3.568953  
     436A      3.579221   437A      3.585745   438A      3.607338  
     439A      3.613435   440A      3.628684   441A      3.632293  
     442A      3.651964   443A      3.655794   444A      3.673419  
     445A      3.674667   446A      3.697299   447A      3.708493  
     448A      3.714451   449A      3.717355   450A      3.726148  
     451A      3.743821   452A      3.758693   453A      3.772001  
     454A      3.777190   455A      3.785532   456A      3.799066  
     457A      3.827103   458A      3.827399   459A      3.837884  
     460A      3.848470   461A      3.868338   462A      3.875041  
     463A      3.894690   464A      3.898783   465A      3.914787  
     466A      3.925327   467A      3.936088   468A      3.947714  
     469A      3.952352   470A      3.958839   471A      3.964381  
     472A      3.972346   473A      3.976775   474A      3.983667  
     475A      3.997021   476A      4.008706   477A      4.020044  
     478A      4.022208   479A      4.057512   480A      4.061146  
     481A      4.076721   482A      4.078240   483A      4.097842  
     484A      4.112477   485A      4.124308   486A      4.130460  
     487A      4.138750   488A      4.145735   489A      4.169107  
     490A      4.179464   491A      4.192944   492A      4.206078  
     493A      4.208768   494A      4.228637   495A      4.253186  
     496A      4.268249   497A      4.269738   498A      4.278242  
     499A      4.290581   500A      4.301593   501A      4.318482  
     502A      4.335233   503A      4.339083   504A      4.358934  
     505A      4.362816   506A      4.383327   507A      4.388855  
     508A      4.397092   509A      4.406166   510A      4.430873  
     511A      4.434513   512A      4.439524   513A      4.447545  
     514A      4.451714   515A      4.469956   516A      4.480432  
     517A      4.504576   518A      4.512116   519A      4.517353  
     520A      4.533267   521A      4.535217   522A      4.548189  
     523A      4.569232   524A      4.603339   525A      4.628520  
     526A      4.637167   527A      4.646203   528A      4.662574  
     529A      4.695901   530A      4.723413   531A      4.724573  
     532A      4.733698   533A      4.747091   534A      4.784653  
     535A      4.786522   536A      4.800878   537A      4.809550  
     538A      4.853998   539A      4.858335   540A      4.866808  
     541A      4.867202   542A      4.885090   543A      4.907381  
     544A      4.941402   545A      4.950373   546A      4.970800  
     547A      4.987289   548A      4.988059   549A      5.005604  
     550A      5.020374   551A      5.045423   552A      5.069488  
     553A      5.076008   554A      5.095087   555A      5.100070  
     556A      5.103279   557A      5.121925   558A      5.133803  
     559A      5.142713   560A      5.159611   561A      5.167404  
     562A      5.169925   563A      5.185221   564A      5.195510  
     565A      5.208092   566A      5.212036   567A      5.245579  
     568A      5.267532   569A      5.280684   570A      5.303527  
     571A      5.307352   572A      5.323619   573A      5.334611  
     574A      5.350656   575A      5.361977   576A      5.383168  
     577A      5.400575   578A      5.428688   579A      5.434506  
     580A      5.446117   581A      5.473409   582A      5.480966  
     583A      5.503565   584A      5.537122   585A      5.574502  
     586A      5.586470   587A      5.618436   588A      5.655330  
     589A      5.687056   590A      5.763145   591A      5.771297  
     592A      5.776883   593A      5.794813   594A      5.808296  
     595A      5.817456   596A      5.839469   597A      5.910007  
     598A      6.000656   599A      6.020783   600A      6.055472  
     601A      6.086105   602A      6.123501   603A      6.163443  
     604A      6.178611   605A      6.206674   606A      6.223469  
     607A      6.229223   608A      6.291291   609A      6.328302  
     610A      6.361117   611A      6.389254   612A      6.491077  
     613A      6.500153   614A      6.598241   615A      6.705761  
     616A      6.707427   617A      6.790181   618A      6.824295  
     619A      6.841749   620A      6.906322   621A      6.999902  
     622A      7.002758   623A      7.036598   624A      7.147131  
     625A      7.197882   626A      7.238759   627A      7.248233  
     628A      7.483137   629A      7.567142   630A      7.641554  
     631A      7.832088   632A      7.929295   633A      7.952153  
     634A      8.517363   635A      8.619299   636A     16.089202  
     637A     16.130347   638A     16.315449   639A     18.099558  
     640A     18.398097   641A     18.802210   642A     19.572543  
     643A     19.618656   644A     20.293950  

    Final Occupation by Irrep:
              A 
    DOCC [    33 ]

  @DF-RHF Final Energy:  -383.75586463049638

   => Energetics <=

    Nuclear Repulsion Energy =            418.7747228678539386
    One-Electron Energy =               -1350.4558545048898850
    Two-Electron Energy =                 547.9252670065395705
    Total Energy =                       -383.7558646304963759

Computation Completed

*** tstop() called on c446-022.stampede2.tacc.utexas.edu at Sat Mar 20 02:30:19 2021
Module time:
	user time   =     558.78 seconds =       9.31 minutes
	system time =      40.40 seconds =       0.67 minutes
	total time  =         33 seconds =       0.55 minutes
Total time:
	user time   =     558.78 seconds =       9.31 minutes
	system time =      40.40 seconds =       0.67 minutes
	total time  =         33 seconds =       0.55 minutes
   => Loading Basis Set <=

    Name: (AUG-CC-PVTZ AUX)
    Role: RIFIT
    Keyword: DF_BASIS_MP2
    atoms 1     entry O          line   264 file /home1/07844/xy3866/miniconda3/envs/p4env/share/psi4/basis/aug-cc-pvtz-ri.gbs 
    atoms 2-9   entry C          line   148 file /home1/07844/xy3866/miniconda3/envs/p4env/share/psi4/basis/aug-cc-pvtz-ri.gbs 
    atoms 10-19 entry H          line    30 file /home1/07844/xy3866/miniconda3/envs/p4env/share/psi4/basis/aug-cc-pvtz-ri.gbs 


*** tstart() called on c446-022.stampede2.tacc.utexas.edu
*** at Sat Mar 20 02:30:20 2021


  //>>>>>>>>>>>>>>>>>>>>>>>>>>>>>>>>>>>//
  //               DFMP2               //
  //<<<<<<<<<<<<<<<<<<<<<<<<<<<<<<<<<<<//

	 --------------------------------------------------------
	                          DF-MP2                         
	      2nd-Order Density-Fitted Moller-Plesset Theory     
	              RMP2 Wavefunction,  32 Threads             
	                                                         
	        Rob Parrish, Justin Turney, Andy Simmonett,      
	           Ed Hohenstein, and C. David Sherrill          
	 --------------------------------------------------------

   => Auxiliary Basis Set <=

  Basis Set: (AUG-CC-PVTZ AUX)
    Blend: AUG-CC-PVTZ-RI
    Number of shells: 392
    Number of basis functions: 1414
    Number of Cartesian functions: 1774
    Spherical Harmonics?: true
    Max angular momentum: 4

	 --------------------------------------------------------
	                 NBF =   644, NAUX =  1414
	 --------------------------------------------------------
	   CLASS    FOCC     OCC    AOCC    AVIR     VIR    FVIR
	   PAIRS       0      33      33     611     611       0
	 --------------------------------------------------------

  DFHelper Memory: AOs need 4.196 GiB; user supplied 22.352 GiB. Using in-core AOs.


         ------------------------------------------------------------
                                     CPHF                           
                                  Rob Parrish                       
         ------------------------------------------------------------

  ==> Geometry <==

    Molecular point group: c1
    Full point group: C1

    Geometry (in Angstrom), charge = 0, multiplicity = 1:

       Center              X                  Y                   Z               Mass       
    ------------   -----------------  -----------------  -----------------  -----------------
         O            1.330469707347    -0.543347925371    -0.000013701817    15.994914619570
         C           -0.018023492653    -0.196678225371    -0.000008601817    12.000000000000
         C            2.282326707347     0.523775074629    -0.000004701817    12.000000000000
         C           -0.487762292653     1.109244074629     0.000003298183    12.000000000000
         C           -0.890249292653    -1.283328925371     0.000005298183    12.000000000000
         C            3.652628707347    -0.117802925371     0.000012298183    12.000000000000
         C           -1.871045292653     1.322654074629    -0.000002701817    12.000000000000
         C           -2.261992292653    -1.054857925371    -0.000001701817    12.000000000000
         C           -2.762162292653     0.252020074629     0.000011298183    12.000000000000
         H            2.139830707347     1.151974074629    -0.889112701817     1.007825032230
         H            2.139813707347     1.151971074629     0.889104298183     1.007825032230
         H            0.182230707347     1.962130074629    -0.000012701817     1.007825032230
         H           -0.479822292653    -2.289430925371    -0.000007701817     1.007825032230
         H            4.430404707347     0.651097074629     0.000007298183     1.007825032230
         H            3.776541707347    -0.742576925371     0.886796298183     1.007825032230
         H            3.776556707347    -0.742602925371    -0.886750701817     1.007825032230
         H           -2.246638292653     2.343396074629     0.000007298183     1.007825032230
         H           -2.944518292653    -1.901475925371     0.000012298183     1.007825032230
         H           -3.834102292653     0.430253074629     0.000001298183     1.007825032230

  Nuclear repulsion =  418.774722867853939
  Reference energy  = -383.755864630496376

  ==> Basis Set <==

  Basis Set: AUG-CC-PVTZ
    Blend: AUG-CC-PVTZ
    Number of shells: 216
    Number of basis functions: 644
    Number of Cartesian functions: 745
    Spherical Harmonics?: true
    Max angular momentum: 3

  ==> CGRSolver (by Rob Parrish) <==

   Number of roots    =         1
   Preconditioning    =    JACOBI
   Convergence cutoff =     1E-06
   Maximum iterations =       100

  ==> CPHFRHamiltonian (by Rob Parrish) <== 

  ==> MemDFJK: Density-Fitted J/K Matrices <==

    J tasked:                   Yes
    K tasked:                   Yes
    wK tasked:                   No
    OpenMP threads:              32
    Memory [MiB]:             22888
    Algorithm:                 Core
    Schwarz Cutoff:           1E-12
    Mask sparsity (%):       7.3020
    Fitting Condition:        1E-10

   => Auxiliary Basis Set <=

  Basis Set: (AUG-CC-PVTZ AUX)
    Blend: AUG-CC-PVTZ-JKFIT
    Number of shells: 410
    Number of basis functions: 1396
    Number of Cartesian functions: 1729
    Spherical Harmonics?: true
    Max angular momentum: 4

  ==> CPHF Iterations <==

  => Iterations <=

             Iter  Converged  Remaining    Residual
  CGR           1          0          1   9.391E-02
  CGR           2          0          1   2.602E-02
  CGR           3          0          1   1.420E-02
  CGR           4          0          1   6.220E-03
  CGR           5          0          1   2.413E-03
  CGR           6          0          1   1.038E-03
  CGR           7          0          1   3.587E-04
  CGR           8          0          1   1.012E-04
  CGR           9          0          1   3.580E-05
  CGR          10          0          1   9.372E-06
  CGR          11          0          1   3.739E-06
  CGR          12          0          1   1.672E-06
  CGR          13          1          0   7.735E-07

    CGRSolver converged.

	-----------------------------------------------------------
	 ==================> DF-MP2 Energies <==================== 
	-----------------------------------------------------------
	 Reference Energy          =    -383.7558646304963759 [Eh]
	 Singles Energy            =      -0.0000000000000000 [Eh]
	 Same-Spin Energy          =      -0.4085821475019213 [Eh]
	 Opposite-Spin Energy      =      -1.3145983022486403 [Eh]
	 Correlation Energy        =      -1.7231804497505616 [Eh]
	 Total Energy              =    -385.4790450802469195 [Eh]
	-----------------------------------------------------------
	 ================> DF-SCS-MP2 Energies <================== 
	-----------------------------------------------------------
	 SCS Same-Spin Scale       =       0.3333333333333333 [-]
	 SCS Opposite-Spin Scale   =       1.2000000000000000 [-]
	 SCS Same-Spin Energy      =      -0.1361940491673071 [Eh]
	 SCS Opposite-Spin Energy  =      -1.5775179626983682 [Eh]
	 SCS Correlation Energy    =      -1.7137120118656752 [Eh]
	 SCS Total Energy          =    -385.4695766423620285 [Eh]
	-----------------------------------------------------------



Properties will be evaluated at  -0.000000,  -0.000000,  -0.000000 [a0]

Properties computed using the MP2 density matrix

  Nuclear Dipole Moment: [e a0]
     X:     6.5127      Y:     1.8861      Z:     0.0000

  Electronic Dipole Moment: [e a0]
     X:    -6.2289      Y:    -1.4768      Z:    -0.0000

  Dipole Moment: [e a0]
     X:     0.2838      Y:     0.4094      Z:     0.0000     Total:     0.4981

  Dipole Moment: [D]
     X:     0.7214      Y:     1.0405      Z:     0.0000     Total:     1.2661


*** tstop() called on c446-022.stampede2.tacc.utexas.edu at Sat Mar 20 02:33:30 2021
Module time:
	user time   =    1679.43 seconds =      27.99 minutes
	system time =      58.60 seconds =       0.98 minutes
	total time  =        190 seconds =       3.17 minutes
Total time:
	user time   =    2239.15 seconds =      37.32 minutes
	system time =      99.02 seconds =       1.65 minutes
	total time  =        224 seconds =       3.73 minutes

    Psi4 stopped on: Saturday, 20 March 2021 02:33AM
    Psi4 wall time for execution: 0:03:45.34

*** Psi4 exiting successfully. Buy a developer a beer!
