4713005                                                                 
Freq      RMP2-FC                                                     6-31G(d)            
Number of atoms                            I               21
Info1-9                                    I   N=           9
          33          31        1002           0           0         100
           6           2           1
Charge                                     I               -1
Multiplicity                               I                1
Number of electrons                        I               98
Number of alpha electrons                  I               49
Number of beta electrons                   I               49
Number of basis functions                  I              202
Number of independent functions            I              202
Number of point charges in /Mol/           I                0
Number of translation vectors              I                0
Atomic numbers                             I   N=          21
          16           8           8           8           6           6
           6           6           6           6           6           6
           1           1           1           1           1           1
           1           1           1
Nuclear charges                            R   N=          21
  1.60000000E+01  8.00000000E+00  8.00000000E+00  8.00000000E+00  6.00000000E+00
  6.00000000E+00  6.00000000E+00  6.00000000E+00  6.00000000E+00  6.00000000E+00
  6.00000000E+00  6.00000000E+00  1.00000000E+00  1.00000000E+00  1.00000000E+00
  1.00000000E+00  1.00000000E+00  1.00000000E+00  1.00000000E+00  1.00000000E+00
  1.00000000E+00
Current cartesian coordinates              R   N=          63
  3.92422531E+00 -6.69548328E-07  1.42713563E-02  4.51483282E+00  4.00249929E-06
  2.75933206E+00  4.62775676E+00 -2.36711944E+00 -1.32577878E+00  4.62775862E+00
  2.36711264E+00 -1.32578797E+00  5.10008050E-01 -5.46125336E-08 -8.15024079E-02
 -3.45472133E+00 -2.30629489E+00 -3.34595102E-02 -3.45472092E+00  2.30629503E+00
 -3.34574239E-02 -8.11554362E-01  2.28238188E+00 -6.17566689E-02 -8.11555787E-01
 -2.28238246E+00 -6.17584583E-02 -4.75176280E+00  7.93503013E-07  2.59918680E-03
 -4.87781100E+00 -4.77509519E+00  3.79704186E-02 -4.87780569E+00  4.77509827E+00
  3.79695180E-02  2.64832914E-01  4.03293307E+00 -1.44019604E-01  2.64830883E-01
 -4.03293385E+00 -1.44022359E-01 -6.81517519E+00  1.17099484E-06  2.40319274E-03
 -3.89277958E+00 -6.22566067E+00 -1.05867209E+00 -5.06559282E+00 -5.48399314E+00
  1.97580942E+00 -6.78430643E+00 -4.56345604E+00 -7.39361201E-01 -5.06544522E+00
  5.48407942E+00  1.97579166E+00 -3.89285514E+00  6.22561849E+00 -1.05880613E+00
 -6.78435703E+00  4.56342437E+00 -7.39214970E-01
Force Field                                I                0
Int Atom Types                             I   N=          21
           0           0           0           0           0           0
           0           0           0           0           0           0
           0           0           0           0           0           0
           0           0           0
MM charges                                 R   N=          21
  0.00000000E+00  0.00000000E+00  0.00000000E+00  0.00000000E+00  0.00000000E+00
  0.00000000E+00  0.00000000E+00  0.00000000E+00  0.00000000E+00  0.00000000E+00
  0.00000000E+00  0.00000000E+00  0.00000000E+00  0.00000000E+00  0.00000000E+00
  0.00000000E+00  0.00000000E+00  0.00000000E+00  0.00000000E+00  0.00000000E+00
  0.00000000E+00
Integer atomic weights                     I   N=          21
          32          16          16          16          12          12
          12          12          12          12          12          12
           1           1           1           1           1           1
           1           1           1
Real atomic weights                        R   N=          21
  3.19720718E+01  1.59949146E+01  1.59949146E+01  1.59949146E+01  1.20000000E+01
  1.20000000E+01  1.20000000E+01  1.20000000E+01  1.20000000E+01  1.20000000E+01
  1.20000000E+01  1.20000000E+01  1.00782504E+00  1.00782504E+00  1.00782504E+00
  1.00782504E+00  1.00782504E+00  1.00782504E+00  1.00782504E+00  1.00782504E+00
  1.00782504E+00
Atom fragment info                         I   N=          21
           0           0           0           0           0           0
           0           0           0           0           0           0
           0           0           0           0           0           0
           0           0           0
Atom residue num                           I   N=          21
           0           0           0           0           0           0
           0           0           0           0           0           0
           0           0           0           0           0           0
           0           0           0
Nuclear spins                              I   N=          21
           0           0           0           0           0           0
           0           0           0           0           0           0
           1           1           1           1           1           1
           1           1           1
Nuclear ZEff                               R   N=          21
 -1.36000000E+01 -5.60000000E+00 -5.60000000E+00 -5.60000000E+00 -3.60000000E+00
 -3.60000000E+00 -3.60000000E+00 -3.60000000E+00 -3.60000000E+00 -3.60000000E+00
 -3.60000000E+00 -3.60000000E+00 -1.00000000E+00 -1.00000000E+00 -1.00000000E+00
 -1.00000000E+00 -1.00000000E+00 -1.00000000E+00 -1.00000000E+00 -1.00000000E+00
 -1.00000000E+00
Nuclear QMom                               R   N=          21
  0.00000000E+00  0.00000000E+00  0.00000000E+00  0.00000000E+00  0.00000000E+00
  0.00000000E+00  0.00000000E+00  0.00000000E+00  0.00000000E+00  0.00000000E+00
  0.00000000E+00  0.00000000E+00  0.00000000E+00  0.00000000E+00  0.00000000E+00
  0.00000000E+00  0.00000000E+00  0.00000000E+00  0.00000000E+00  0.00000000E+00
  0.00000000E+00
Nuclear GFac                               R   N=          21
  0.00000000E+00  0.00000000E+00  0.00000000E+00  0.00000000E+00  0.00000000E+00
  0.00000000E+00  0.00000000E+00  0.00000000E+00  0.00000000E+00  0.00000000E+00
  0.00000000E+00  0.00000000E+00  2.79284600E+00  2.79284600E+00  2.79284600E+00
  2.79284600E+00  2.79284600E+00  2.79284600E+00  2.79284600E+00  2.79284600E+00
  2.79284600E+00
MicOpt                                     I   N=          21
          -1          -1          -1          -1          -1          -1
          -1          -1          -1          -1          -1          -1
          -1          -1          -1          -1          -1          -1
          -1          -1          -1
Number of contracted shells                I               67
Number of primitive shells                 I              174
Pure/Cartesian d shells                    I                1
Pure/Cartesian f shells                    I                0
Highest angular momentum                   I                2
Largest degree of contraction              I                6
Shell types                                I   N=          67
           0          -1          -1          -1           2           0
          -1          -1           2           0          -1          -1
           2           0          -1          -1           2           0
          -1          -1           2           0          -1          -1
           2           0          -1          -1           2           0
          -1          -1           2           0          -1          -1
           2           0          -1          -1           2           0
          -1          -1           2           0          -1          -1
           2           0           0           0           0           0
           0           0           0           0           0           0
           0           0           0           0           0           0
           0
Number of primitives per shell             I   N=          67
           6           6           3           1           1           6
           3           1           1           6           3           1
           1           6           3           1           1           6
           3           1           1           6           3           1
           1           6           3           1           1           6
           3           1           1           6           3           1
           1           6           3           1           1           6
           3           1           1           6           3           1
           1           3           1           3           1           3
           1           3           1           3           1           3
           1           3           1           3           1           3
           1
Shell to atom map                          I   N=          67
           1           1           1           1           1           2
           2           2           2           3           3           3
           3           4           4           4           4           5
           5           5           5           6           6           6
           6           7           7           7           7           8
           8           8           8           9           9           9
           9          10          10          10          10          11
          11          11          11          12          12          12
          12          13          13          14          14          15
          15          16          16          17          17          18
          18          19          19          20          20          21
          21
Primitive exponents                        R   N=         174
  2.19171000E+04  3.30149000E+03  7.54146000E+02  2.12711000E+02  6.79896000E+01
  2.30515000E+01  4.23735000E+02  1.00710000E+02  3.21599000E+01  1.18079000E+01
  4.63110000E+00  1.87025000E+00  2.61584000E+00  9.22167000E-01  3.41287000E-01
  1.17167000E-01  6.50000000E-01  5.48467166E+03  8.25234946E+02  1.88046958E+02
  5.29645000E+01  1.68975704E+01  5.79963534E+00  1.55396162E+01  3.59993359E+00
  1.01376175E+00  2.70005823E-01  8.00000000E-01  5.48467166E+03  8.25234946E+02
  1.88046958E+02  5.29645000E+01  1.68975704E+01  5.79963534E+00  1.55396162E+01
  3.59993359E+00  1.01376175E+00  2.70005823E-01  8.00000000E-01  5.48467166E+03
  8.25234946E+02  1.88046958E+02  5.29645000E+01  1.68975704E+01  5.79963534E+00
  1.55396162E+01  3.59993359E+00  1.01376175E+00  2.70005823E-01  8.00000000E-01
  3.04752488E+03  4.57369518E+02  1.03948685E+02  2.92101553E+01  9.28666296E+00
  3.16392696E+00  7.86827235E+00  1.88128854E+00  5.44249258E-01  1.68714478E-01
  8.00000000E-01  3.04752488E+03  4.57369518E+02  1.03948685E+02  2.92101553E+01
  9.28666296E+00  3.16392696E+00  7.86827235E+00  1.88128854E+00  5.44249258E-01
  1.68714478E-01  8.00000000E-01  3.04752488E+03  4.57369518E+02  1.03948685E+02
  2.92101553E+01  9.28666296E+00  3.16392696E+00  7.86827235E+00  1.88128854E+00
  5.44249258E-01  1.68714478E-01  8.00000000E-01  3.04752488E+03  4.57369518E+02
  1.03948685E+02  2.92101553E+01  9.28666296E+00  3.16392696E+00  7.86827235E+00
  1.88128854E+00  5.44249258E-01  1.68714478E-01  8.00000000E-01  3.04752488E+03
  4.57369518E+02  1.03948685E+02  2.92101553E+01  9.28666296E+00  3.16392696E+00
  7.86827235E+00  1.88128854E+00  5.44249258E-01  1.68714478E-01  8.00000000E-01
  3.04752488E+03  4.57369518E+02  1.03948685E+02  2.92101553E+01  9.28666296E+00
  3.16392696E+00  7.86827235E+00  1.88128854E+00  5.44249258E-01  1.68714478E-01
  8.00000000E-01  3.04752488E+03  4.57369518E+02  1.03948685E+02  2.92101553E+01
  9.28666296E+00  3.16392696E+00  7.86827235E+00  1.88128854E+00  5.44249258E-01
  1.68714478E-01  8.00000000E-01  3.04752488E+03  4.57369518E+02  1.03948685E+02
  2.92101553E+01  9.28666296E+00  3.16392696E+00  7.86827235E+00  1.88128854E+00
  5.44249258E-01  1.68714478E-01  8.00000000E-01  1.87311370E+01  2.82539436E+00
  6.40121692E-01  1.61277759E-01  1.87311370E+01  2.82539436E+00  6.40121692E-01
  1.61277759E-01  1.87311370E+01  2.82539436E+00  6.40121692E-01  1.61277759E-01
  1.87311370E+01  2.82539436E+00  6.40121692E-01  1.61277759E-01  1.87311370E+01
  2.82539436E+00  6.40121692E-01  1.61277759E-01  1.87311370E+01  2.82539436E+00
  6.40121692E-01  1.61277759E-01  1.87311370E+01  2.82539436E+00  6.40121692E-01
  1.61277759E-01  1.87311370E+01  2.82539436E+00  6.40121692E-01  1.61277759E-01
  1.87311370E+01  2.82539436E+00  6.40121692E-01  1.61277759E-01
Contraction coefficients                   R   N=         174
  1.86924085E-03  1.42303065E-02  6.96962317E-02  2.38487108E-01  4.83307220E-01
  3.38074154E-01 -2.37677050E-03 -3.16930067E-02 -1.13317024E-01  5.60900118E-02
  5.92255124E-01  4.55006095E-01 -2.50373114E-01  6.69567631E-02  1.05450627E+00
  1.00000000E+00  1.00000000E+00  1.83107443E-03  1.39501722E-02  6.84450781E-02
  2.32714336E-01  4.70192898E-01  3.58520853E-01 -1.10777550E-01 -1.48026263E-01
  1.13076702E+00  1.00000000E+00  1.00000000E+00  1.83107443E-03  1.39501722E-02
  6.84450781E-02  2.32714336E-01  4.70192898E-01  3.58520853E-01 -1.10777550E-01
 -1.48026263E-01  1.13076702E+00  1.00000000E+00  1.00000000E+00  1.83107443E-03
  1.39501722E-02  6.84450781E-02  2.32714336E-01  4.70192898E-01  3.58520853E-01
 -1.10777550E-01 -1.48026263E-01  1.13076702E+00  1.00000000E+00  1.00000000E+00
  1.83473713E-03  1.40373228E-02  6.88426223E-02  2.32184443E-01  4.67941348E-01
  3.62311985E-01 -1.19332420E-01 -1.60854152E-01  1.14345644E+00  1.00000000E+00
  1.00000000E+00  1.83473713E-03  1.40373228E-02  6.88426223E-02  2.32184443E-01
  4.67941348E-01  3.62311985E-01 -1.19332420E-01 -1.60854152E-01  1.14345644E+00
  1.00000000E+00  1.00000000E+00  1.83473713E-03  1.40373228E-02  6.88426223E-02
  2.32184443E-01  4.67941348E-01  3.62311985E-01 -1.19332420E-01 -1.60854152E-01
  1.14345644E+00  1.00000000E+00  1.00000000E+00  1.83473713E-03  1.40373228E-02
  6.88426223E-02  2.32184443E-01  4.67941348E-01  3.62311985E-01 -1.19332420E-01
 -1.60854152E-01  1.14345644E+00  1.00000000E+00  1.00000000E+00  1.83473713E-03
  1.40373228E-02  6.88426223E-02  2.32184443E-01  4.67941348E-01  3.62311985E-01
 -1.19332420E-01 -1.60854152E-01  1.14345644E+00  1.00000000E+00  1.00000000E+00
  1.83473713E-03  1.40373228E-02  6.88426223E-02  2.32184443E-01  4.67941348E-01
  3.62311985E-01 -1.19332420E-01 -1.60854152E-01  1.14345644E+00  1.00000000E+00
  1.00000000E+00  1.83473713E-03  1.40373228E-02  6.88426223E-02  2.32184443E-01
  4.67941348E-01  3.62311985E-01 -1.19332420E-01 -1.60854152E-01  1.14345644E+00
  1.00000000E+00  1.00000000E+00  1.83473713E-03  1.40373228E-02  6.88426223E-02
  2.32184443E-01  4.67941348E-01  3.62311985E-01 -1.19332420E-01 -1.60854152E-01
  1.14345644E+00  1.00000000E+00  1.00000000E+00  3.34946043E-02  2.34726953E-01
  8.13757326E-01  1.00000000E+00  3.34946043E-02  2.34726953E-01  8.13757326E-01
  1.00000000E+00  3.34946043E-02  2.34726953E-01  8.13757326E-01  1.00000000E+00
  3.34946043E-02  2.34726953E-01  8.13757326E-01  1.00000000E+00  3.34946043E-02
  2.34726953E-01  8.13757326E-01  1.00000000E+00  3.34946043E-02  2.34726953E-01
  8.13757326E-01  1.00000000E+00  3.34946043E-02  2.34726953E-01  8.13757326E-01
  1.00000000E+00  3.34946043E-02  2.34726953E-01  8.13757326E-01  1.00000000E+00
  3.34946043E-02  2.34726953E-01  8.13757326E-01  1.00000000E+00
P(S=P) Contraction coefficients            R   N=         174
  0.00000000E+00  0.00000000E+00  0.00000000E+00  0.00000000E+00  0.00000000E+00
  0.00000000E+00  4.06100998E-03  3.06812999E-02  1.30451999E-01  3.27204999E-01
  4.52850998E-01  2.56041999E-01 -1.45104895E-02  3.10262776E-01  7.54482456E-01
  1.00000000E+00  0.00000000E+00  0.00000000E+00  0.00000000E+00  0.00000000E+00
  0.00000000E+00  0.00000000E+00  0.00000000E+00  7.08742682E-02  3.39752839E-01
  7.27158577E-01  1.00000000E+00  0.00000000E+00  0.00000000E+00  0.00000000E+00
  0.00000000E+00  0.00000000E+00  0.00000000E+00  0.00000000E+00  7.08742682E-02
  3.39752839E-01  7.27158577E-01  1.00000000E+00  0.00000000E+00  0.00000000E+00
  0.00000000E+00  0.00000000E+00  0.00000000E+00  0.00000000E+00  0.00000000E+00
  7.08742682E-02  3.39752839E-01  7.27158577E-01  1.00000000E+00  0.00000000E+00
  0.00000000E+00  0.00000000E+00  0.00000000E+00  0.00000000E+00  0.00000000E+00
  0.00000000E+00  6.89990666E-02  3.16423961E-01  7.44308291E-01  1.00000000E+00
  0.00000000E+00  0.00000000E+00  0.00000000E+00  0.00000000E+00  0.00000000E+00
  0.00000000E+00  0.00000000E+00  6.89990666E-02  3.16423961E-01  7.44308291E-01
  1.00000000E+00  0.00000000E+00  0.00000000E+00  0.00000000E+00  0.00000000E+00
  0.00000000E+00  0.00000000E+00  0.00000000E+00  6.89990666E-02  3.16423961E-01
  7.44308291E-01  1.00000000E+00  0.00000000E+00  0.00000000E+00  0.00000000E+00
  0.00000000E+00  0.00000000E+00  0.00000000E+00  0.00000000E+00  6.89990666E-02
  3.16423961E-01  7.44308291E-01  1.00000000E+00  0.00000000E+00  0.00000000E+00
  0.00000000E+00  0.00000000E+00  0.00000000E+00  0.00000000E+00  0.00000000E+00
  6.89990666E-02  3.16423961E-01  7.44308291E-01  1.00000000E+00  0.00000000E+00
  0.00000000E+00  0.00000000E+00  0.00000000E+00  0.00000000E+00  0.00000000E+00
  0.00000000E+00  6.89990666E-02  3.16423961E-01  7.44308291E-01  1.00000000E+00
  0.00000000E+00  0.00000000E+00  0.00000000E+00  0.00000000E+00  0.00000000E+00
  0.00000000E+00  0.00000000E+00  6.89990666E-02  3.16423961E-01  7.44308291E-01
  1.00000000E+00  0.00000000E+00  0.00000000E+00  0.00000000E+00  0.00000000E+00
  0.00000000E+00  0.00000000E+00  0.00000000E+00  6.89990666E-02  3.16423961E-01
  7.44308291E-01  1.00000000E+00  0.00000000E+00  0.00000000E+00  0.00000000E+00
  0.00000000E+00  0.00000000E+00  0.00000000E+00  0.00000000E+00  0.00000000E+00
  0.00000000E+00  0.00000000E+00  0.00000000E+00  0.00000000E+00  0.00000000E+00
  0.00000000E+00  0.00000000E+00  0.00000000E+00  0.00000000E+00  0.00000000E+00
  0.00000000E+00  0.00000000E+00  0.00000000E+00  0.00000000E+00  0.00000000E+00
  0.00000000E+00  0.00000000E+00  0.00000000E+00  0.00000000E+00  0.00000000E+00
  0.00000000E+00  0.00000000E+00  0.00000000E+00  0.00000000E+00  0.00000000E+00
  0.00000000E+00  0.00000000E+00  0.00000000E+00  0.00000000E+00
Coordinates of each shell                  R   N=         201
  3.92422531E+00 -6.69548329E-07  1.42713563E-02  3.92422531E+00 -6.69548329E-07
  1.42713563E-02  3.92422531E+00 -6.69548329E-07  1.42713563E-02  3.92422531E+00
 -6.69548329E-07  1.42713563E-02  3.92422531E+00 -6.69548329E-07  1.42713563E-02
  4.51483282E+00  4.00249929E-06  2.75933206E+00  4.51483282E+00  4.00249929E-06
  2.75933206E+00  4.51483282E+00  4.00249929E-06  2.75933206E+00  4.51483282E+00
  4.00249929E-06  2.75933206E+00  4.62775676E+00 -2.36711944E+00 -1.32577878E+00
  4.62775676E+00 -2.36711944E+00 -1.32577878E+00  4.62775676E+00 -2.36711944E+00
 -1.32577878E+00  4.62775676E+00 -2.36711944E+00 -1.32577878E+00  4.62775862E+00
  2.36711264E+00 -1.32578797E+00  4.62775862E+00  2.36711264E+00 -1.32578797E+00
  4.62775862E+00  2.36711264E+00 -1.32578797E+00  4.62775862E+00  2.36711264E+00
 -1.32578797E+00  5.10008050E-01 -5.46125336E-08 -8.15024079E-02  5.10008050E-01
 -5.46125336E-08 -8.15024079E-02  5.10008050E-01 -5.46125336E-08 -8.15024079E-02
  5.10008050E-01 -5.46125336E-08 -8.15024079E-02 -3.45472133E+00 -2.30629489E+00
 -3.34595102E-02 -3.45472133E+00 -2.30629489E+00 -3.34595102E-02 -3.45472133E+00
 -2.30629489E+00 -3.34595102E-02 -3.45472133E+00 -2.30629489E+00 -3.34595102E-02
 -3.45472092E+00  2.30629503E+00 -3.34574239E-02 -3.45472092E+00  2.30629503E+00
 -3.34574239E-02 -3.45472092E+00  2.30629503E+00 -3.34574239E-02 -3.45472092E+00
  2.30629503E+00 -3.34574239E-02 -8.11554362E-01  2.28238188E+00 -6.17566689E-02
 -8.11554362E-01  2.28238188E+00 -6.17566689E-02 -8.11554362E-01  2.28238188E+00
 -6.17566689E-02 -8.11554362E-01  2.28238188E+00 -6.17566689E-02 -8.11555787E-01
 -2.28238246E+00 -6.17584583E-02 -8.11555787E-01 -2.28238246E+00 -6.17584583E-02
 -8.11555787E-01 -2.28238246E+00 -6.17584583E-02 -8.11555787E-01 -2.28238246E+00
 -6.17584583E-02 -4.75176280E+00  7.93503013E-07  2.59918680E-03 -4.75176280E+00
  7.93503013E-07  2.59918680E-03 -4.75176280E+00  7.93503013E-07  2.59918680E-03
 -4.75176280E+00  7.93503013E-07  2.59918680E-03 -4.87781100E+00 -4.77509519E+00
  3.79704186E-02 -4.87781100E+00 -4.77509519E+00  3.79704186E-02 -4.87781100E+00
 -4.77509519E+00  3.79704186E-02 -4.87781100E+00 -4.77509519E+00  3.79704186E-02
 -4.87780569E+00  4.77509827E+00  3.79695180E-02 -4.87780569E+00  4.77509827E+00
  3.79695180E-02 -4.87780569E+00  4.77509827E+00  3.79695180E-02 -4.87780569E+00
  4.77509827E+00  3.79695180E-02  2.64832914E-01  4.03293307E+00 -1.44019604E-01
  2.64832914E-01  4.03293307E+00 -1.44019604E-01  2.64830883E-01 -4.03293385E+00
 -1.44022359E-01  2.64830883E-01 -4.03293385E+00 -1.44022359E-01 -6.81517519E+00
  1.17099484E-06  2.40319274E-03 -6.81517519E+00  1.17099484E-06  2.40319274E-03
 -3.89277958E+00 -6.22566067E+00 -1.05867209E+00 -3.89277958E+00 -6.22566067E+00
 -1.05867209E+00 -5.06559282E+00 -5.48399314E+00  1.97580942E+00 -5.06559282E+00
 -5.48399314E+00  1.97580942E+00 -6.78430643E+00 -4.56345604E+00 -7.39361201E-01
 -6.78430643E+00 -4.56345604E+00 -7.39361201E-01 -5.06544522E+00  5.48407942E+00
  1.97579166E+00 -5.06544522E+00  5.48407942E+00  1.97579166E+00 -3.89285514E+00
  6.22561849E+00 -1.05880613E+00 -3.89285514E+00  6.22561849E+00 -1.05880613E+00
 -6.78435703E+00  4.56342437E+00 -7.39214970E-01 -6.78435703E+00  4.56342437E+00
 -7.39214970E-01
Constraint Structure                       R   N=          63
  3.92422531E+00 -6.69548329E-07  1.42713563E-02  4.51483282E+00  4.00249929E-06
  2.75933206E+00  4.62775676E+00 -2.36711944E+00 -1.32577878E+00  4.62775862E+00
  2.36711264E+00 -1.32578797E+00  5.10008050E-01 -5.46125336E-08 -8.15024079E-02
 -3.45472133E+00 -2.30629489E+00 -3.34595102E-02 -3.45472092E+00  2.30629503E+00
 -3.34574239E-02 -8.11554362E-01  2.28238188E+00 -6.17566689E-02 -8.11555787E-01
 -2.28238246E+00 -6.17584583E-02 -4.75176280E+00  7.93503013E-07  2.59918680E-03
 -4.87781100E+00 -4.77509519E+00  3.79704186E-02 -4.87780569E+00  4.77509827E+00
  3.79695180E-02  2.64832914E-01  4.03293307E+00 -1.44019604E-01  2.64830883E-01
 -4.03293385E+00 -1.44022359E-01 -6.81517519E+00  1.17099484E-06  2.40319274E-03
 -3.89277958E+00 -6.22566067E+00 -1.05867209E+00 -5.06559282E+00 -5.48399314E+00
  1.97580942E+00 -6.78430643E+00 -4.56345604E+00 -7.39361201E-01 -5.06544522E+00
  5.48407942E+00  1.97579166E+00 -3.89285514E+00  6.22561849E+00 -1.05880613E+00
 -6.78435703E+00  4.56342437E+00 -7.39214970E-01
Num ILSW                                   I              100
ILSW                                       I   N=         100
           0           1           0           1           2           0
           0           0           0           0           0          -1
           0           0           0           0           0           0
           0           0           0           0           1           0
           1           0           0           0           0           0
           0           0      100000           0          -1           0
           0           0           0           0           0           0
           0           0           0           1           1           0
           0           0           1           0           0           0
           0           0           4          40           0           0
           0           0           0           0           0           0
           0           0           0           0           0           0
           0           0           0           0           0           0
           0           0           0           0           0           0
           0           0           0           0           0           0
           0           0           0           0           0           0
           0           0           0           0
Num RLSW                                   I               40
RLSW                                       R   N=          40
  1.00000000E+00  1.00000000E+00  1.00000000E+00  1.00000000E+00  1.00000000E+00
  0.00000000E+00  0.00000000E+00  1.00000000E+00  0.00000000E+00  0.00000000E+00
  0.00000000E+00  0.00000000E+00  1.00000000E+00  0.00000000E+00  0.00000000E+00
  0.00000000E+00  0.00000000E+00  1.00000000E+00  0.00000000E+00  0.00000000E+00
  0.00000000E+00  0.00000000E+00  1.00000000E+00  0.00000000E+00  0.00000000E+00
  0.00000000E+00  0.00000000E+00  1.00000000E+00  0.00000000E+00  0.00000000E+00
  0.00000000E+00  0.00000000E+00  0.00000000E+00  0.00000000E+00  0.00000000E+00
  0.00000000E+00  0.00000000E+00  0.00000000E+00  1.00000000E+00  1.00000000E+00
MxBond                                     I                4
NBond                                      I   N=          21
           4           1           1           1           3           3
           3           3           3           3           4           4
           1           1           1           1           1           1
           1           1           1
IBond                                      I   N=          84
           2           3           4           5           1           0
           0           0           1           0           0           0
           1           0           0           0           1           8
           9           0           9          10          11           0
           8          10          12           0           5           7
          13           0           5           6          14           0
           6           7          15           0           6          16
          17          18           7          19          20          21
           8           0           0           0           9           0
           0           0          10           0           0           0
          11           0           0           0          11           0
           0           0          11           0           0           0
          12           0           0           0          12           0
           0           0          12           0           0           0
RBond                                      R   N=          84
  2.00000000E+00  2.00000000E+00  2.00000000E+00  1.00000000E+00  2.00000000E+00
  0.00000000E+00  0.00000000E+00  0.00000000E+00  2.00000000E+00  0.00000000E+00
  0.00000000E+00  0.00000000E+00  2.00000000E+00  0.00000000E+00  0.00000000E+00
  0.00000000E+00  1.00000000E+00  1.50000000E+00  1.50000000E+00  0.00000000E+00
  1.50000000E+00  1.50000000E+00  1.00000000E+00  0.00000000E+00  1.50000000E+00
  1.50000000E+00  1.00000000E+00  0.00000000E+00  1.50000000E+00  1.50000000E+00
  1.00000000E+00  0.00000000E+00  1.50000000E+00  1.50000000E+00  1.00000000E+00
  0.00000000E+00  1.50000000E+00  1.50000000E+00  1.00000000E+00  0.00000000E+00
  1.00000000E+00  1.00000000E+00  1.00000000E+00  1.00000000E+00  1.00000000E+00
  1.00000000E+00  1.00000000E+00  1.00000000E+00  1.00000000E+00  0.00000000E+00
  0.00000000E+00  0.00000000E+00  1.00000000E+00  0.00000000E+00  0.00000000E+00
  0.00000000E+00  1.00000000E+00  0.00000000E+00  0.00000000E+00  0.00000000E+00
  1.00000000E+00  0.00000000E+00  0.00000000E+00  0.00000000E+00  1.00000000E+00
  0.00000000E+00  0.00000000E+00  0.00000000E+00  1.00000000E+00  0.00000000E+00
  0.00000000E+00  0.00000000E+00  1.00000000E+00  0.00000000E+00  0.00000000E+00
  0.00000000E+00  1.00000000E+00  0.00000000E+00  0.00000000E+00  0.00000000E+00
  1.00000000E+00  0.00000000E+00  0.00000000E+00  0.00000000E+00
Virial Ratio                               R      2.002020083246527E+00
SCF Energy                                 R     -9.302708603046061E+02
MP2 Energy                                 R     -9.319865225721418E+02
Total Energy                               R     -9.319865225721418E+02
Post-SCF wavefunction norm                 R      1.778517067397991E+00
RMS Force                                  R      1.914384388932086E-07
RMS Density                                R      2.692830560768887E-09
External E-field                           R   N=          35
  0.00000000E+00  0.00000000E+00  0.00000000E+00  0.00000000E+00  0.00000000E+00
  0.00000000E+00  0.00000000E+00  0.00000000E+00  0.00000000E+00  0.00000000E+00
  0.00000000E+00  0.00000000E+00  0.00000000E+00  0.00000000E+00  0.00000000E+00
  0.00000000E+00  0.00000000E+00  0.00000000E+00  0.00000000E+00  0.00000000E+00
  0.00000000E+00  0.00000000E+00  0.00000000E+00  0.00000000E+00  0.00000000E+00
  0.00000000E+00  0.00000000E+00  0.00000000E+00  0.00000000E+00  0.00000000E+00
  0.00000000E+00  0.00000000E+00  0.00000000E+00  0.00000000E+00  0.00000000E+00
IOpCl                                      I                0
IROHF                                      I                0
Alpha Orbital Energies                     R   N=         202
 -9.20156723E+01 -2.03476523E+01 -2.03476308E+01 -2.03451322E+01 -1.11314635E+01
 -1.11314306E+01 -1.11308047E+01 -1.11307832E+01 -1.11210354E+01 -1.11173611E+01
 -1.11095461E+01 -1.11094517E+01 -8.98096585E+00 -6.66717888E+00 -6.66713135E+00
 -6.66697022E+00 -1.26219732E+00 -1.11605888E+00 -1.11343787E+00 -1.03964800E+00
 -9.48308944E-01 -9.17283899E-01 -8.37672622E-01 -8.16620067E-01 -7.24390678E-01
 -6.70988124E-01 -6.18100565E-01 -5.62685283E-01 -5.35983258E-01 -5.06840233E-01
 -4.82500168E-01 -4.73426480E-01 -4.71547986E-01 -4.54769600E-01 -4.52183830E-01
 -4.51210475E-01 -4.45716962E-01 -4.22841977E-01 -3.94004864E-01 -3.67210612E-01
 -3.65194495E-01 -3.16735718E-01 -3.16184370E-01 -2.82125907E-01 -2.75393390E-01
 -2.56214452E-01 -2.31179197E-01 -2.02664143E-01 -2.02577646E-01  2.52072200E-01