
    -----------------------------------------------------------------------
          Psi4: An Open-Source Ab Initio Electronic Structure Package
                               Psi4 1.3.2 release

                         Git: Rev {HEAD} ecbda83 


    R. M. Parrish, L. A. Burns, D. G. A. Smith, A. C. Simmonett,
    A. E. DePrince III, E. G. Hohenstein, U. Bozkaya, A. Yu. Sokolov,
    R. Di Remigio, R. M. Richard, J. F. Gonthier, A. M. James,
    H. R. McAlexander, A. Kumar, M. Saitow, X. Wang, B. P. Pritchard,
    P. Verma, H. F. Schaefer III, K. Patkowski, R. A. King, E. F. Valeev,
    F. A. Evangelista, J. M. Turney, T. D. Crawford, and C. D. Sherrill,
    J. Chem. Theory Comput. 13(7) pp 3185--3197 (2017).
    (doi: 10.1021/acs.jctc.7b00174)


                         Additional Contributions by
    P. Kraus, H. Kruse, M. H. Lechner, M. C. Schieber, R. A. Shaw,
    A. Alenaizan, R. Galvelis, Z. L. Glick, S. Lehtola, and J. P. Misiewicz

    -----------------------------------------------------------------------


    Psi4 started on: Wednesday, 03 February 2021 07:37PM

    Process ID: 63231
    Host:       node144.bme.utexas.edu
    PSIDATADIR: /home/xy3866/psi4conda/share/psi4
    Memory:     500.0 MiB
    Threads:    8
    
  ==> Input File <==

--------------------------------------------------------------------------
#psi4
#
memory 32 gb

molecule  {
0 1
  N       -1.7531090     0.6487580     0.1985890
  C       -0.8584400    -0.3593730    -0.1157050
  C        0.5958890    -0.1944310    -0.0686340
  C       -1.6095070    -1.4830350    -0.4543950
  C       -3.0364380     0.1798280     0.0590890
  C       -2.9750140    -1.1422740    -0.3482900
  C       -1.4212420     1.9838780     0.6691930
  C        1.3272982     0.8460669    -0.6675311
  C        1.3787110    -1.1624060     0.5835710
  C        2.6315710     1.0013490    -0.6546280
  C        2.7689430    -1.0546610     0.6054980
  C        3.3999180     0.0321080    -0.0053240
  H       -1.1930810    -2.4304870    -0.7739750
  H       -3.8823240     0.8199580     0.2740310
  H       -3.8253090    -1.7817070    -0.5476340
  H       -2.2212640     2.3282100     1.3272780
  H       -0.4870200     1.9493020     1.2305480
  H       -1.3139190     2.6883760    -0.1607770
  H        0.6536140     1.6152250    -1.2478990
  H        0.8812590    -1.9928010     1.0799670
  H        3.1173860     1.8412050    -1.1464900
  H        3.3610660    -1.8124130     1.1137600
  H        4.4833320     0.1209150     0.0205430
units angstrom
no_reorient  #important for SAPT in psi4, default
symmetry c1  #important for SAPT in psi4, default
}

set PROPERTIES_ORIGIN ["COM"]
properties('MP2/aug-cc-pvtz', properties = ['dipole'])
--------------------------------------------------------------------------

  Memory set to  29.802 GiB by Python driver.
    SCF Algorithm Type (re)set to DF.

*** tstart() called on node144.bme.utexas.edu
*** at Wed Feb  3 19:37:29 2021

   => Loading Basis Set <=

    Name: AUG-CC-PVTZ
    Role: ORBITAL
    Keyword: BASIS
    atoms 1     entry N          line   281 file /home/xy3866/psi4conda/share/psi4/basis/aug-cc-pvtz.gbs 
    atoms 2-12  entry C          line   235 file /home/xy3866/psi4conda/share/psi4/basis/aug-cc-pvtz.gbs 
    atoms 13-23 entry H          line    36 file /home/xy3866/psi4conda/share/psi4/basis/aug-cc-pvtz.gbs 


         ---------------------------------------------------------
                                   SCF
               by Justin Turney, Rob Parrish, Andy Simmonett
                          and Daniel G. A. Smith
                              RHF Reference
                        8 Threads,  30517 MiB Core
         ---------------------------------------------------------

  ==> Geometry <==

    Molecular point group: c1
    Full point group: C1

    Geometry (in Angstrom), charge = 0, multiplicity = 1:

       Center              X                  Y                   Z               Mass       
    ------------   -----------------  -----------------  -----------------  -----------------
         N           -1.762286972144     0.672813328268     0.203723119847    14.003074004430
         C           -0.867617972144    -0.335317671732    -0.110570880153    12.000000000000
         C            0.586711027856    -0.170375671732    -0.063499880153    12.000000000000
         C           -1.618684972144    -1.458979671732    -0.449260880153    12.000000000000
         C           -3.045615972144     0.203883328268     0.064223119847    12.000000000000
         C           -2.984191972144    -1.118218671732    -0.343155880153    12.000000000000
         C           -1.430419972144     2.007933328268     0.674327119847    12.000000000000
         C            1.318120227856     0.870122228268    -0.662396980153    12.000000000000
         C            1.369533027856    -1.138350671732     0.588705119847    12.000000000000
         C            2.622393027856     1.025404328268    -0.649493880153    12.000000000000
         C            2.759765027856    -1.030605671732     0.610632119847    12.000000000000
         C            3.390740027856     0.056163328268    -0.000189880153    12.000000000000
         H           -1.202258972144    -2.406431671732    -0.768840880153     1.007825032230
         H           -3.891501972144     0.844013328268     0.279165119847     1.007825032230
         H           -3.834486972144    -1.757651671732    -0.542499880153     1.007825032230
         H           -2.230441972144     2.352265328268     1.332412119847     1.007825032230
         H           -0.496197972144     1.973357328268     1.235682119847     1.007825032230
         H           -1.323096972144     2.712431328268    -0.155642880153     1.007825032230
         H            0.644436027856     1.639280328268    -1.242764880153     1.007825032230
         H            0.872081027856    -1.968745671732     1.085101119847     1.007825032230
         H            3.108208027856     1.865260328268    -1.141355880153     1.007825032230
         H            3.351888027856    -1.788357671732     1.118894119847     1.007825032230
         H            4.474154027856     0.144970328268     0.025677119847     1.007825032230

  Running in c1 symmetry.

  Rotational constants: A =      0.07454  B =      0.02092  C =      0.01766 [cm^-1]
  Rotational constants: A =   2234.77199  B =    627.18563  C =    529.46929 [MHz]
  Nuclear repulsion =  639.807839412141902

  Charge       = 0
  Multiplicity = 1
  Electrons    = 84
  Nalpha       = 42
  Nbeta        = 42

  ==> Algorithm <==

  SCF Algorithm Type is DF.
  DIIS enabled.
  MOM disabled.
  Fractional occupation disabled.
  Guess Type is SAD.
  Energy threshold   = 1.00e-10
  Density threshold  = 1.00e-10
  Integral threshold = 0.00e+00

  ==> Primary Basis <==

  Basis Set: AUG-CC-PVTZ
    Blend: AUG-CC-PVTZ
    Number of shells: 267
    Number of basis function: 805
    Number of Cartesian functions: 935
    Spherical Harmonics?: true
    Max angular momentum: 3

   => Loading Basis Set <=

    Name: (AUG-CC-PVTZ AUX)
    Role: JKFIT
    Keyword: DF_BASIS_SCF
    atoms 1     entry N          line   224 file /home/xy3866/psi4conda/share/psi4/basis/aug-cc-pvtz-jkfit.gbs 
    atoms 2-12  entry C          line   162 file /home/xy3866/psi4conda/share/psi4/basis/aug-cc-pvtz-jkfit.gbs 
    atoms 13-23 entry H          line    70 file /home/xy3866/psi4conda/share/psi4/basis/aug-cc-pvtz-jkfit.gbs 

  ==> Pre-Iterations <==

   -------------------------------------------------------
    Irrep   Nso     Nmo     Nalpha   Nbeta   Ndocc  Nsocc
   -------------------------------------------------------
     A        805     805       0       0       0       0
   -------------------------------------------------------
    Total     805     805      42      42      42       0
   -------------------------------------------------------

  ==> Integral Setup <==

  DFHelper Memory: AOs need 8.030 GiB; user supplied 22.352 GiB. Using in-core AOs.

  ==> MemDFJK: Density-Fitted J/K Matrices <==

    J tasked:                   Yes
    K tasked:                   Yes
    wK tasked:                   No
    OpenMP threads:               8
    Memory [MiB]:             22888
    Algorithm:                 Disk
    Schwarz Cutoff:           1E-12
    Mask sparsity (%):       7.4408
    Fitting Condition:        1E-10

   => Auxiliary Basis Set <=

  Basis Set: (AUG-CC-PVTZ AUX)
    Blend: AUG-CC-PVTZ-JKFIT
    Number of shells: 514
    Number of basis function: 1754
    Number of Cartesian functions: 2177
    Spherical Harmonics?: true
    Max angular momentum: 4

  Minimum eigenvalue in the overlap matrix is 4.4793477747E-07.
  Using Symmetric Orthogonalization.

  SCF Guess: Superposition of Atomic Densities via on-the-fly atomic UHF.

  ==> Iterations <==

                           Total Energy        Delta E     RMS |[F,P]|

   @DF-RHF iter SAD:  -477.36316378850211   -4.77363e+02   0.00000e+00 
   @DF-RHF iter   1:  -477.19436811419200    1.68796e-01   9.18479e-04 DIIS
   @DF-RHF iter   2:  -477.47158211753265   -2.77214e-01   4.22586e-04 DIIS
   @DF-RHF iter   3:  -477.52998235320536   -5.84002e-02   8.29897e-05 DIIS
   @DF-RHF iter   4:  -477.53347029057863   -3.48794e-03   2.51641e-05 DIIS
   @DF-RHF iter   5:  -477.53371827664762   -2.47986e-04   7.58871e-06 DIIS
   @DF-RHF iter   6:  -477.53375010393023   -3.18273e-05   3.09528e-06 DIIS
   @DF-RHF iter   7:  -477.53375703721196   -6.93328e-06   1.10255e-06 DIIS
   @DF-RHF iter   8:  -477.53375912231940   -2.08511e-06   5.36023e-07 DIIS
   @DF-RHF iter   9:  -477.53375956160983   -4.39290e-07   1.91611e-07 DIIS
   @DF-RHF iter  10:  -477.53375960367180   -4.20620e-08   6.39915e-08 DIIS
   @DF-RHF iter  11:  -477.53375960833506   -4.66326e-09   2.49425e-08 DIIS
   @DF-RHF iter  12:  -477.53375960911410   -7.79039e-10   1.49771e-08 DIIS
   @DF-RHF iter  13:  -477.53375960936620   -2.52101e-10   5.86127e-09 DIIS
   @DF-RHF iter  14:  -477.53375960942083   -5.46265e-11   2.92957e-09 DIIS
   @DF-RHF iter  15:  -477.53375960943322   -1.23919e-11   1.15166e-09 DIIS
   @DF-RHF iter  16:  -477.53375960943583   -2.61480e-12   3.55117e-10 DIIS
   @DF-RHF iter  17:  -477.53375960943777   -1.93268e-12   1.72705e-10 DIIS
   @DF-RHF iter  18:  -477.53375960943714    6.25278e-13   6.75890e-11 DIIS
  Energy and wave function converged.


  ==> Post-Iterations <==

    Orbital Energies [Eh]
    ---------------------

    Doubly Occupied:                                                      

       1A    -15.608191     2A    -11.270712     3A    -11.258648  
       4A    -11.249491     5A    -11.249476     6A    -11.238735  
       7A    -11.237956     8A    -11.237427     9A    -11.236235  
      10A    -11.229777    11A    -11.209325    12A    -11.208224  
      13A     -1.299400    14A     -1.163818    15A     -1.074323  
      16A     -1.044883    17A     -1.022781    18A     -0.956857  
      19A     -0.933708    20A     -0.838778    21A     -0.823026  
      22A     -0.771342    23A     -0.745869    24A     -0.712948  
      25A     -0.676191    26A     -0.641961    27A     -0.628398  
      28A     -0.626671    29A     -0.597055    30A     -0.580499  
      31A     -0.570170    32A     -0.566772    33A     -0.539220  
      34A     -0.527434    35A     -0.524048    36A     -0.509422  
      37A     -0.503000    38A     -0.472150    39A     -0.353167  
      40A     -0.348365    41A     -0.336144    42A     -0.275235  

    Virtual:                                                              

      43A      0.026106    44A      0.030406    45A      0.033604  
      46A      0.038253    47A      0.042577    48A      0.046231  
      49A      0.052983    50A      0.055150    51A      0.061272  
      52A      0.062087    53A      0.067825    54A      0.090955  
      55A      0.093109    56A      0.098559    57A      0.102633  
      58A      0.104884    59A      0.107993    60A      0.111953  
      61A      0.113870    62A      0.116009    63A      0.119810  
      64A      0.121058    65A      0.124192    66A      0.126185  
      67A      0.128433    68A      0.131180    69A      0.133015  
      70A      0.140762    71A      0.142753    72A      0.145680  
      73A      0.146759    74A      0.151013    75A      0.152203  
      76A      0.159787    77A      0.163981    78A      0.165975  
      79A      0.169843    80A      0.171392    81A      0.177994  
      82A      0.179893    83A      0.186303    84A      0.190737  
      85A      0.195100    86A      0.200841    87A      0.209001  
      88A      0.215096    89A      0.216089    90A      0.224946  
      91A      0.229078    92A      0.235920    93A      0.242954  
      94A      0.246835    95A      0.249530    96A      0.256982  
      97A      0.257502    98A      0.260240    99A      0.268710  
     100A      0.270390   101A      0.270784   102A      0.279963  
     103A      0.285230   104A      0.292621   105A      0.295837  
     106A      0.301029   107A      0.303627   108A      0.308312  
     109A      0.312633   110A      0.315991   111A      0.320515  
     112A      0.321902   113A      0.324674   114A      0.328509  
     115A      0.332793   116A      0.334102   117A      0.341255  
     118A      0.343673   119A      0.345674   120A      0.348017  
     121A      0.351027   122A      0.357523   123A      0.361158  
     124A      0.363600   125A      0.366253   126A      0.373971  
     127A      0.378528   128A      0.386273   129A      0.388135  
     130A      0.395369   131A      0.399736   132A      0.408780  
     133A      0.412754   134A      0.418290   135A      0.422884  
     136A      0.426026   137A      0.427517   138A      0.433537  
     139A      0.437782   140A      0.439800   141A      0.443805  
     142A      0.450263   143A      0.454150   144A      0.460176  
     145A      0.466065   146A      0.472058   147A      0.474878  
     148A      0.476970   149A      0.482620   150A      0.483543  
     151A      0.486145   152A      0.487671   153A      0.491660  
     154A      0.492536   155A      0.496701   156A      0.500285  
     157A      0.507791   158A      0.508770   159A      0.509731  
     160A      0.513840   161A      0.518285   162A      0.519779  
     163A      0.522165   164A      0.524660   165A      0.525970  
     166A      0.530479   167A      0.532963   168A      0.536078  
     169A      0.541113   170A      0.544635   171A      0.548720  
     172A      0.553795   173A      0.558843   174A      0.563829  
     175A      0.566561   176A      0.569729   177A      0.575433  
     178A      0.579994   179A      0.581759   180A      0.582077  
     181A      0.598313   182A      0.601142   183A      0.602865  
     184A      0.609496   185A      0.613836   186A      0.621149  
     187A      0.623302   188A      0.627714   189A      0.640804  
     190A      0.645816   191A      0.653176   192A      0.667747  
     193A      0.668971   194A      0.669352   195A      0.674328  
     196A      0.682780   197A      0.688652   198A      0.691174  
     199A      0.697973   200A      0.701213   201A      0.706638  
     202A      0.710339   203A      0.720633   204A      0.721980  
     205A      0.726108   206A      0.733862   207A      0.738784  
     208A      0.745384   209A      0.749294   210A      0.754360  
     211A      0.760066   212A      0.767387   213A      0.769347  
     214A      0.778728   215A      0.781165   216A      0.797157  
     217A      0.803359   218A      0.807182   219A      0.814590  
     220A      0.819886   221A      0.827610   222A      0.829697  
     223A      0.841748   224A      0.845877   225A      0.848421  
     226A      0.855227   227A      0.858098   228A      0.863652  
     229A      0.869736   230A      0.873496   231A      0.873977  
     232A      0.882276   233A      0.886603   234A      0.891685  
     235A      0.892977   236A      0.900030   237A      0.907908  
     238A      0.910792   239A      0.915963   240A      0.918686  
     241A      0.923452   242A      0.925591   243A      0.936418  
     244A      0.939425   245A      0.946005   246A      0.955510  
     247A      0.955889   248A      0.962617   249A      0.965205  
     250A      0.970889   251A      0.971584   252A      0.979048  
     253A      0.983913   254A      0.991445   255A      0.995757  
     256A      1.003228   257A      1.008094   258A      1.011767  
     259A      1.015857   260A      1.023474   261A      1.025080  
     262A      1.026398   263A      1.031279   264A      1.037640  
     265A      1.044706   266A      1.047024   267A      1.054289  
     268A      1.058516   269A      1.061288   270A      1.065476  
     271A      1.068311   272A      1.074737   273A      1.081779  
     274A      1.085603   275A      1.086758   276A      1.095672  
     277A      1.097028   278A      1.100557   279A      1.107503  
     280A      1.112077   281A      1.116301   282A      1.123592  
     283A      1.126156   284A      1.133914   285A      1.137753  
     286A      1.141985   287A      1.150944   288A      1.156084  
     289A      1.160958   290A      1.162257   291A      1.168875  
     292A      1.175427   293A      1.177073   294A      1.180784  
     295A      1.186364   296A      1.192961   297A      1.198323  
     298A      1.202746   299A      1.206582   300A      1.207768  
     301A      1.210806   302A      1.218260   303A      1.221102  
     304A      1.223647   305A      1.229300   306A      1.235969  
     307A      1.238743   308A      1.244274   309A      1.245817  
     310A      1.259053   311A      1.262397   312A      1.267609  
     313A      1.271116   314A      1.277039   315A      1.285994  
     316A      1.290165   317A      1.293625   318A      1.311006  
     319A      1.316370   320A      1.319697   321A      1.329948  
     322A      1.340723   323A      1.346234   324A      1.354993  
     325A      1.360130   326A      1.366261   327A      1.370373  
     328A      1.376011   329A      1.383167   330A      1.391072  
     331A      1.397672   332A      1.403946   333A      1.413295  
     334A      1.416527   335A      1.421326   336A      1.431063  
     337A      1.435461   338A      1.438999   339A      1.448974  
     340A      1.453159   341A      1.458531   342A      1.470236  
     343A      1.474013   344A      1.483751   345A      1.486879  
     346A      1.491902   347A      1.493314   348A      1.510653  
     349A      1.515770   350A      1.517781   351A      1.520567  
     352A      1.539946   353A      1.545601   354A      1.551092  
     355A      1.552287   356A      1.559854   357A      1.565414  
     358A      1.570651   359A      1.580626   360A      1.590320  
     361A      1.594300   362A      1.602156   363A      1.612376  
     364A      1.616906   365A      1.630779   366A      1.635129  
     367A      1.651197   368A      1.658272   369A      1.666699  
     370A      1.671226   371A      1.674859   372A      1.683009  
     373A      1.689239   374A      1.696871   375A      1.705816  
     376A      1.709058   377A      1.714121   378A      1.717091  
     379A      1.727746   380A      1.737492   381A      1.744121  
     382A      1.753725   383A      1.755549   384A      1.760571  
     385A      1.769928   386A      1.788344   387A      1.793966  
     388A      1.800751   389A      1.802554   390A      1.809987  
     391A      1.822146   392A      1.832663   393A      1.841921  
     394A      1.849953   395A      1.853833   396A      1.862970  
     397A      1.864694   398A      1.874335   399A      1.886681  
     400A      1.893964   401A      1.897184   402A      1.904174  
     403A      1.905692   404A      1.915248   405A      1.918247  
     406A      1.934703   407A      1.947994   408A      1.954180  
     409A      1.955149   410A      1.962663   411A      1.972003  
     412A      1.975263   413A      1.978816   414A      1.993794  
     415A      2.007425   416A      2.015420   417A      2.025178  
     418A      2.025955   419A      2.033382   420A      2.038844  
     421A      2.042023   422A      2.053665   423A      2.058071  
     424A      2.062411   425A      2.063842   426A      2.077511  
     427A      2.082464   428A      2.089245   429A      2.097327  
     430A      2.108280   431A      2.115061   432A      2.122614  
     433A      2.136082   434A      2.136848   435A      2.141206  
     436A      2.146258   437A      2.164330   438A      2.175593  
     439A      2.181613   440A      2.190569   441A      2.192583  
     442A      2.206194   443A      2.211271   444A      2.231727  
     445A      2.232923   446A      2.243725   447A      2.250078  
     448A      2.261613   449A      2.263645   450A      2.276572  
     451A      2.283307   452A      2.301012   453A      2.305862  
     454A      2.314190   455A      2.317380   456A      2.322868  
     457A      2.344004   458A      2.349762   459A      2.366200  
     460A      2.371030   461A      2.381347   462A      2.385143  
     463A      2.394715   464A      2.405362   465A      2.412894  
     466A      2.428008   467A      2.437436   468A      2.441075  
     469A      2.456877   470A      2.461718   471A      2.475298  
     472A      2.478850   473A      2.493492   474A      2.502341  
     475A      2.515773   476A      2.531798   477A      2.557053  
     478A      2.568144   479A      2.578588   480A      2.580521  
     481A      2.591240   482A      2.593980   483A      2.619297  
     484A      2.634162   485A      2.650974   486A      2.663961  
     487A      2.674817   488A      2.694596   489A      2.704796  
     490A      2.729200   491A      2.741528   492A      2.772290  
     493A      2.780757   494A      2.812845   495A      2.817354  
     496A      2.835875   497A      2.852728   498A      2.865469  
     499A      2.896501   500A      2.912940   501A      2.933689  
     502A      2.939983   503A      2.977337   504A      3.002509  
     505A      3.047775   506A      3.062660   507A      3.075435  
     508A      3.105138   509A      3.140257   510A      3.152834  
     511A      3.169685   512A      3.188275   513A      3.222808  
     514A      3.234722   515A      3.246057   516A      3.268342  
     517A      3.284415   518A      3.322643   519A      3.327758  
     520A      3.332312   521A      3.339047   522A      3.359107  
     523A      3.368502   524A      3.383350   525A      3.390592  
     526A      3.398266   527A      3.407276   528A      3.409932  
     529A      3.423564   530A      3.427924   531A      3.437985  
     532A      3.452017   533A      3.459991   534A      3.462648  
     535A      3.479102   536A      3.483046   537A      3.495665  
     538A      3.508641   539A      3.514405   540A      3.524712  
     541A      3.536611   542A      3.543703   543A      3.549835  
     544A      3.560008   545A      3.568233   546A      3.578630  
     547A      3.584110   548A      3.593123   549A      3.605478  
     550A      3.616390   551A      3.622615   552A      3.625998  
     553A      3.643227   554A      3.647004   555A      3.652857  
     556A      3.658818   557A      3.677348   558A      3.685937  
     559A      3.700598   560A      3.706479   561A      3.713590  
     562A      3.722640   563A      3.729950   564A      3.736939  
     565A      3.750852   566A      3.757710   567A      3.769822  
     568A      3.772275   569A      3.787600   570A      3.792749  
     571A      3.817016   572A      3.819839   573A      3.824190  
     574A      3.830689   575A      3.843451   576A      3.849892  
     577A      3.861549   578A      3.872113   579A      3.872436  
     580A      3.888680   581A      3.896992   582A      3.898499  
     583A      3.911910   584A      3.915550   585A      3.922166  
     586A      3.931392   587A      3.939385   588A      3.944053  
     589A      3.952923   590A      3.962438   591A      3.968436  
     592A      3.970473   593A      3.985533   594A      3.991624  
     595A      3.997556   596A      4.009892   597A      4.022387  
     598A      4.026416   599A      4.037287   600A      4.039707  
     601A      4.045562   602A      4.053916   603A      4.063212  
     604A      4.066290   605A      4.079657   606A      4.086687  
     607A      4.092575   608A      4.100239   609A      4.104353  
     610A      4.121746   611A      4.127963   612A      4.141365  
     613A      4.153682   614A      4.163348   615A      4.166391  
     616A      4.180579   617A      4.189188   618A      4.194425  
     619A      4.204486   620A      4.213161   621A      4.231959  
     622A      4.236712   623A      4.240888   624A      4.247104  
     625A      4.256482   626A      4.267397   627A      4.281890  
     628A      4.288030   629A      4.301016   630A      4.304836  
     631A      4.311447   632A      4.322208   633A      4.327608  
     634A      4.345069   635A      4.348037   636A      4.361588  
     637A      4.369542   638A      4.374156   639A      4.381518  
     640A      4.386357   641A      4.395363   642A      4.405987  
     643A      4.408417   644A      4.426550   645A      4.439563  
     646A      4.442696   647A      4.460043   648A      4.465287  
     649A      4.480174   650A      4.487162   651A      4.498230  
     652A      4.504660   653A      4.512864   654A      4.520624  
     655A      4.524084   656A      4.542730   657A      4.556975  
     658A      4.575412   659A      4.583163   660A      4.589604  
     661A      4.603103   662A      4.626696   663A      4.641728  
     664A      4.649738   665A      4.657361   666A      4.680666  
     667A      4.695952   668A      4.707638   669A      4.723294  
     670A      4.731816   671A      4.738878   672A      4.750315  
     673A      4.760096   674A      4.772116   675A      4.773618  
     676A      4.789618   677A      4.804333   678A      4.828903  
     679A      4.834777   680A      4.854107   681A      4.863987  
     682A      4.869977   683A      4.882319   684A      4.891727  
     685A      4.904709   686A      4.915638   687A      4.922844  
     688A      4.930602   689A      4.949316   690A      4.962714  
     691A      4.988660   692A      5.013013   693A      5.018467  
     694A      5.023979   695A      5.037500   696A      5.040128  
     697A      5.052608   698A      5.057263   699A      5.076385  
     700A      5.079841   701A      5.105471   702A      5.111181  
     703A      5.116979   704A      5.130130   705A      5.143231  
     706A      5.151862   707A      5.155871   708A      5.159831  
     709A      5.169914   710A      5.179950   711A      5.187113  
     712A      5.202474   713A      5.203378   714A      5.208053  
     715A      5.219756   716A      5.233635   717A      5.238675  
     718A      5.266749   719A      5.288868   720A      5.303915  
     721A      5.319645   722A      5.342750   723A      5.355896  
     724A      5.369220   725A      5.380711   726A      5.389196  
     727A      5.402506   728A      5.419386   729A      5.430634  
     730A      5.444781   731A      5.463046   732A      5.468937  
     733A      5.475144   734A      5.503667   735A      5.528696  
     736A      5.554266   737A      5.575831   738A      5.585414  
     739A      5.610315   740A      5.642079   741A      5.659518  
     742A      5.680101   743A      5.709451   744A      5.742601  
     745A      5.758311   746A      5.778893   747A      5.796241  
     748A      5.807074   749A      5.820027   750A      5.848632  
     751A      5.855126   752A      5.903597   753A      5.921373  
     754A      5.940619   755A      5.989974   756A      6.008346  
     757A      6.027839   758A      6.085568   759A      6.111600  
     760A      6.152299   761A      6.174660   762A      6.195267  
     763A      6.212735   764A      6.218045   765A      6.233400  
     766A      6.281677   767A      6.316760   768A      6.331363  
     769A      6.348625   770A      6.379379   771A      6.387808  
     772A      6.442174   773A      6.447301   774A      6.532006  
     775A      6.541041   776A      6.601519   777A      6.637737  
     778A      6.677916   779A      6.726271   780A      6.771952  
     781A      6.808231   782A      6.863153   783A      6.885601  
     784A      6.914372   785A      6.954933   786A      7.020106  
     787A      7.076687   788A      7.125082   789A      7.134858  
     790A      7.182624   791A      7.274443   792A      7.291746  
     793A      7.383675   794A     15.983461   795A     16.755331  
     796A     16.919539   797A     17.366573   798A     18.180884  
     799A     18.910445   800A     19.178141   801A     19.643773  
     802A     20.001941   803A     20.210882   804A     20.440823  
     805A     21.810305  

    Final Occupation by Irrep:
              A 
    DOCC [    42 ]

  @DF-RHF Final Energy:  -477.53375960943714

   => Energetics <=

    Nuclear Repulsion Energy =            639.8078394121419024
    One-Electron Energy =               -1914.8875325206658999
    Two-Electron Energy =                 797.5459334990868001
    Total Energy =                       -477.5337596094371975

Computation Completed

*** tstop() called on node144.bme.utexas.edu at Wed Feb  3 19:40:31 2021
Module time:
	user time   =     818.35 seconds =      13.64 minutes
	system time =      96.64 seconds =       1.61 minutes
	total time  =        182 seconds =       3.03 minutes
Total time:
	user time   =     818.35 seconds =      13.64 minutes
	system time =      96.64 seconds =       1.61 minutes
	total time  =        182 seconds =       3.03 minutes
   => Loading Basis Set <=

    Name: (AUG-CC-PVTZ AUX)
    Role: RIFIT
    Keyword: DF_BASIS_MP2
    atoms 1     entry N          line   206 file /home/xy3866/psi4conda/share/psi4/basis/aug-cc-pvtz-ri.gbs 
    atoms 2-12  entry C          line   148 file /home/xy3866/psi4conda/share/psi4/basis/aug-cc-pvtz-ri.gbs 
    atoms 13-23 entry H          line    30 file /home/xy3866/psi4conda/share/psi4/basis/aug-cc-pvtz-ri.gbs 


*** tstart() called on node144.bme.utexas.edu
*** at Wed Feb  3 19:40:32 2021


  //>>>>>>>>>>>>>>>>>>>>>>>>>>>>>>>>>>>//
  //               DFMP2               //
  //<<<<<<<<<<<<<<<<<<<<<<<<<<<<<<<<<<<//

	 --------------------------------------------------------
	                          DF-MP2                         
	      2nd-Order Density-Fitted Moller-Plesset Theory     
	              RMP2 Wavefunction,   8 Threads             
	                                                         
	        Rob Parrish, Justin Turney, Andy Simmonett,      
	           Ed Hohenstein, and C. David Sherrill          
	 --------------------------------------------------------

   => Auxiliary Basis Set <=

  Basis Set: (AUG-CC-PVTZ AUX)
    Blend: AUG-CC-PVTZ-RI
    Number of shells: 490
    Number of basis function: 1778
    Number of Cartesian functions: 2237
    Spherical Harmonics?: true
    Max angular momentum: 4

	 --------------------------------------------------------
	                 NBF =   805, NAUX =  1778
	 --------------------------------------------------------
	   CLASS    FOCC     OCC    AOCC    AVIR     VIR    FVIR
	   PAIRS       0      42      42     763     763       0
	 --------------------------------------------------------

  DFHelper Memory: AOs need 8.030 GiB; user supplied 22.352 GiB. Using in-core AOs.


         ------------------------------------------------------------
                                     CPHF                           
                                  Rob Parrish                       
         ------------------------------------------------------------

  ==> Geometry <==

    Molecular point group: c1
    Full point group: C1

    Geometry (in Angstrom), charge = 0, multiplicity = 1:

       Center              X                  Y                   Z               Mass       
    ------------   -----------------  -----------------  -----------------  -----------------
         N           -1.762286972144     0.672813328268     0.203723119847    14.003074004430
         C           -0.867617972144    -0.335317671732    -0.110570880153    12.000000000000
         C            0.586711027856    -0.170375671732    -0.063499880153    12.000000000000
         C           -1.618684972144    -1.458979671732    -0.449260880153    12.000000000000
         C           -3.045615972144     0.203883328268     0.064223119847    12.000000000000
         C           -2.984191972144    -1.118218671732    -0.343155880153    12.000000000000
         C           -1.430419972144     2.007933328268     0.674327119847    12.000000000000
         C            1.318120227856     0.870122228268    -0.662396980153    12.000000000000
         C            1.369533027856    -1.138350671732     0.588705119847    12.000000000000
         C            2.622393027856     1.025404328268    -0.649493880153    12.000000000000
         C            2.759765027856    -1.030605671732     0.610632119847    12.000000000000
         C            3.390740027856     0.056163328268    -0.000189880153    12.000000000000
         H           -1.202258972144    -2.406431671732    -0.768840880153     1.007825032230
         H           -3.891501972144     0.844013328268     0.279165119847     1.007825032230
         H           -3.834486972144    -1.757651671732    -0.542499880153     1.007825032230
         H           -2.230441972144     2.352265328268     1.332412119847     1.007825032230
         H           -0.496197972144     1.973357328268     1.235682119847     1.007825032230
         H           -1.323096972144     2.712431328268    -0.155642880153     1.007825032230
         H            0.644436027856     1.639280328268    -1.242764880153     1.007825032230
         H            0.872081027856    -1.968745671732     1.085101119847     1.007825032230
         H            3.108208027856     1.865260328268    -1.141355880153     1.007825032230
         H            3.351888027856    -1.788357671732     1.118894119847     1.007825032230
         H            4.474154027856     0.144970328268     0.025677119847     1.007825032230

  Nuclear repulsion =  639.807839412141902
  Reference energy  = -477.533759609437141

  ==> Basis Set <==

  Basis Set: AUG-CC-PVTZ
    Blend: AUG-CC-PVTZ
    Number of shells: 267
    Number of basis function: 805
    Number of Cartesian functions: 935
    Spherical Harmonics?: true
    Max angular momentum: 3

  ==> CGRSolver (by Rob Parrish) <==

   Number of roots    =         1
   Preconditioning    =    JACOBI
   Convergence cutoff =     1E-06
   Maximum iterations =       100

  ==> CPHFRHamiltonian (by Rob Parrish) <== 

  ==> MemDFJK: Density-Fitted J/K Matrices <==

    J tasked:                   Yes
    K tasked:                   Yes
    wK tasked:                   No
    OpenMP threads:               8
    Memory [MiB]:             22888
    Algorithm:                 Disk
    Schwarz Cutoff:           1E-12
    Mask sparsity (%):       7.4408
    Fitting Condition:        1E-10

   => Auxiliary Basis Set <=

  Basis Set: (AUG-CC-PVTZ AUX)
    Blend: AUG-CC-PVTZ-JKFIT
    Number of shells: 514
    Number of basis function: 1754
    Number of Cartesian functions: 2177
    Spherical Harmonics?: true
    Max angular momentum: 4

  ==> CPHF Iterations <==

  => Iterations <=

             Iter  Converged  Remaining    Residual
  CGR           1          0          1   8.184E-02
  CGR           2          0          1   2.894E-02
  CGR           3          0          1   1.772E-02
  CGR           4          0          1   6.682E-03
  CGR           5          0          1   1.831E-03
  CGR           6          0          1   7.516E-04
  CGR           7          0          1   3.920E-04
  CGR           8          0          1   2.075E-04
  CGR           9          0          1   6.857E-05
  CGR          10          0          1   2.105E-05
  CGR          11          0          1   8.897E-06
  CGR          12          0          1   2.836E-06
  CGR          13          0          1   1.547E-06
  CGR          14          1          0   6.409E-07

    CGRSolver converged.

	-----------------------------------------------------------
	 ==================> DF-MP2 Energies <==================== 
	-----------------------------------------------------------
	 Reference Energy          =    -477.5337596094371406 [Eh]
	 Singles Energy            =      -0.0000000000000000 [Eh]
	 Same-Spin Energy          =      -0.5393602144855496 [Eh]
	 Opposite-Spin Energy      =      -1.6834598309056048 [Eh]
	 Correlation Energy        =      -2.2228200453911544 [Eh]
	 Total Energy              =    -479.7565796548282719 [Eh]
	-----------------------------------------------------------
	 ================> DF-SCS-MP2 Energies <================== 
	-----------------------------------------------------------
	 SCS Same-Spin Scale       =       0.3333333333333333 [-]
	 SCS Opposite-Spin Scale   =       1.2000000000000000 [-]
	 SCS Same-Spin Energy      =      -0.1797867381618499 [Eh]
	 SCS Opposite-Spin Energy  =      -2.0201517970867258 [Eh]
	 SCS Correlation Energy    =      -2.1999385352485756 [Eh]
	 SCS Total Energy          =    -479.7336981446857180 [Eh]
	-----------------------------------------------------------



Properties will be evaluated at   0.000000,   0.000000,   0.000000 [a0]

Properties computed using the MP2 density matrix

  Nuclear Dipole Moment: [e a0]
     X:    -0.4891      Y:     3.3827      Z:     1.1486

  Electronic Dipole Moment: [e a0]
     X:     0.6565      Y:    -2.6614      Z:    -0.8732

  Dipole Moment: [e a0]
     X:     0.1674      Y:     0.7213      Z:     0.2753     Total:     0.7900

  Dipole Moment: [D]
     X:     0.4254      Y:     1.8332      Z:     0.6999     Total:     2.0079


*** tstop() called on node144.bme.utexas.edu at Wed Feb  3 19:48:20 2021
Module time:
	user time   =    2864.95 seconds =      47.75 minutes
	system time =     120.99 seconds =       2.02 minutes
	total time  =        468 seconds =       7.80 minutes
Total time:
	user time   =    3683.57 seconds =      61.39 minutes
	system time =     217.63 seconds =       3.63 minutes
	total time  =        651 seconds =      10.85 minutes

    Psi4 stopped on: Wednesday, 03 February 2021 07:48PM
    Psi4 wall time for execution: 0:10:52.33

*** Psi4 exiting successfully. Buy a developer a beer!
