
    -----------------------------------------------------------------------
          Psi4: An Open-Source Ab Initio Electronic Structure Package
                               Psi4 1.4a3.dev225 

                         Git: Rev {master} 7105e37 


    D. G. A. Smith, L. A. Burns, A. C. Simmonett, R. M. Parrish,
    M. C. Schieber, R. Galvelis, P. Kraus, H. Kruse, R. Di Remigio,
    A. Alenaizan, A. M. James, S. Lehtola, J. P. Misiewicz, M. Scheurer,
    R. A. Shaw, J. B. Schriber, Y. Xie, Z. L. Glick, D. A. Sirianni,
    J. S. O'Brien, J. M. Waldrop, A. Kumar, E. G. Hohenstein,
    B. P. Pritchard, B. R. Brooks, H. F. Schaefer III, A. Yu. Sokolov,
    K. Patkowski, A. E. DePrince III, U. Bozkaya, R. A. King,
    F. A. Evangelista, J. M. Turney, T. D. Crawford, C. D. Sherrill,
    J. Chem. Phys. 152(18) 184108 (2020). https://doi.org/10.1063/5.0006002

                            Additional Code Authors
    E. T. Seidl, C. L. Janssen, E. F. Valeev, M. L. Leininger,
    J. F. Gonthier, R. M. Richard, H. R. McAlexander, M. Saitow, X. Wang,
    P. Verma, and M. H. Lechner

             Previous Authors, Complete List of Code Contributors,
                       and Citations for Specific Modules
    https://github.com/psi4/psi4/blob/master/codemeta.json
    https://github.com/psi4/psi4/graphs/contributors
    http://psicode.org/psi4manual/master/introduction.html#citing-psifour

    -----------------------------------------------------------------------


    Psi4 started on: Saturday, 20 March 2021 05:17AM

    Process ID: 65771
    Host:       c446-022.stampede2.tacc.utexas.edu
    PSIDATADIR: /home1/07844/xy3866/miniconda3/envs/p4env/share/psi4
    Memory:     500.0 MiB
    Threads:    32
    
  ==> Input File <==

--------------------------------------------------------------------------
#psi4
#
memory 32 gb

molecule  {
0 1
  N       -1.7531090     0.6487580     0.1985890
  C       -0.8584400    -0.3593730    -0.1157050
  C        0.5958890    -0.1944310    -0.0686340
  C       -1.6095070    -1.4830350    -0.4543950
  C       -3.0364380     0.1798280     0.0590890
  C       -2.9750140    -1.1422740    -0.3482900
  C       -1.4212420     1.9838780     0.6691930
  C        1.2189668     0.8461286    -0.6746066
  C        1.3787110    -1.1624060     0.5835710
  C        2.6315710     1.0013490    -0.6546280
  C        2.7689430    -1.0546610     0.6054980
  C        3.3999180     0.0321080    -0.0053240
  H       -1.1930810    -2.4304870    -0.7739750
  H       -3.8823240     0.8199580     0.2740310
  H       -3.8253090    -1.7817070    -0.5476340
  H       -2.2212640     2.3282100     1.3272780
  H       -0.4870200     1.9493020     1.2305480
  H       -1.3139190     2.6883760    -0.1607770
  H        0.6536140     1.6152250    -1.2478990
  H        0.8812590    -1.9928010     1.0799670
  H        3.1173860     1.8412050    -1.1464900
  H        3.3610660    -1.8124130     1.1137600
  H        4.4833320     0.1209150     0.0205430
units angstrom
no_reorient  #important for SAPT in psi4, default
symmetry c1  #important for SAPT in psi4, default
}

set PROPERTIES_ORIGIN ["COM"]
properties('MP2/aug-cc-pvtz', properties = ['dipole'])
--------------------------------------------------------------------------

  Memory set to  29.802 GiB by Python driver.
    SCF Algorithm Type (re)set to DF.

*** tstart() called on c446-022.stampede2.tacc.utexas.edu
*** at Sat Mar 20 05:17:55 2021

   => Loading Basis Set <=

    Name: AUG-CC-PVTZ
    Role: ORBITAL
    Keyword: BASIS
    atoms 1     entry N          line   285 file /home1/07844/xy3866/miniconda3/envs/p4env/share/psi4/basis/aug-cc-pvtz.gbs 
    atoms 2-12  entry C          line   239 file /home1/07844/xy3866/miniconda3/envs/p4env/share/psi4/basis/aug-cc-pvtz.gbs 
    atoms 13-23 entry H          line    40 file /home1/07844/xy3866/miniconda3/envs/p4env/share/psi4/basis/aug-cc-pvtz.gbs 


         ---------------------------------------------------------
                                   SCF
               by Justin Turney, Rob Parrish, Andy Simmonett
                          and Daniel G. A. Smith
                              RHF Reference
                       32 Threads,  30517 MiB Core
         ---------------------------------------------------------

  ==> Geometry <==

    Molecular point group: c1
    Full point group: C1

    Geometry (in Angstrom), charge = 0, multiplicity = 1:

       Center              X                  Y                   Z               Mass       
    ------------   -----------------  -----------------  -----------------  -----------------
         N           -1.754011564165     0.672808615021     0.204263615485    14.003074004430
         C           -0.859342564165    -0.335322384979    -0.110030384515    12.000000000000
         C            0.594986435835    -0.170380384979    -0.062959384515    12.000000000000
         C           -1.610409564165    -1.458984384979    -0.448720384515    12.000000000000
         C           -3.037340564165     0.203878615021     0.064763615485    12.000000000000
         C           -2.975916564165    -1.118223384979    -0.342615384515    12.000000000000
         C           -1.422144564165     2.007928615021     0.674867615485    12.000000000000
         C            1.218064235835     0.870179215021    -0.668931984515    12.000000000000
         C            1.377808435835    -1.138355384979     0.589245615485    12.000000000000
         C            2.630668435835     1.025399615021    -0.648953384515    12.000000000000
         C            2.768040435835    -1.030610384979     0.611172615485    12.000000000000
         C            3.399015435835     0.056158615021     0.000350615485    12.000000000000
         H           -1.193983564165    -2.406436384979    -0.768300384515     1.007825032230
         H           -3.883226564165     0.844008615021     0.279705615485     1.007825032230
         H           -3.826211564165    -1.757656384979    -0.541959384515     1.007825032230
         H           -2.222166564165     2.352260615021     1.332952615485     1.007825032230
         H           -0.487922564165     1.973352615021     1.236222615485     1.007825032230
         H           -1.314821564165     2.712426615021    -0.155102384515     1.007825032230
         H            0.652711435835     1.639275615021    -1.242224384515     1.007825032230
         H            0.880356435835    -1.968750384979     1.085641615485     1.007825032230
         H            3.116483435835     1.865255615021    -1.140815384515     1.007825032230
         H            3.360163435835    -1.788362384979     1.119434615485     1.007825032230
         H            4.482429435835     0.144965615021     0.026217615485     1.007825032230

  Running in c1 symmetry.

  Rotational constants: A =      0.07450  B =      0.02100  C =      0.01772 [cm^-1]
  Rotational constants: A =   2233.53719  B =    629.68334  C =    531.30287 [MHz]
  Nuclear repulsion =  639.795771087521643

  Charge       = 0
  Multiplicity = 1
  Electrons    = 84
  Nalpha       = 42
  Nbeta        = 42

  ==> Algorithm <==

  SCF Algorithm Type is DF.
  DIIS enabled.
  MOM disabled.
  Fractional occupation disabled.
  Guess Type is SAD.
  Energy threshold   = 1.00e-10
  Density threshold  = 1.00e-10
  Integral threshold = 1.00e-12

  ==> Primary Basis <==

  Basis Set: AUG-CC-PVTZ
    Blend: AUG-CC-PVTZ
    Number of shells: 267
    Number of basis functions: 805
    Number of Cartesian functions: 935
    Spherical Harmonics?: true
    Max angular momentum: 3

   => Loading Basis Set <=

    Name: (AUG-CC-PVTZ AUX)
    Role: JKFIT
    Keyword: DF_BASIS_SCF
    atoms 1     entry N          line   224 file /home1/07844/xy3866/miniconda3/envs/p4env/share/psi4/basis/aug-cc-pvtz-jkfit.gbs 
    atoms 2-12  entry C          line   162 file /home1/07844/xy3866/miniconda3/envs/p4env/share/psi4/basis/aug-cc-pvtz-jkfit.gbs 
    atoms 13-23 entry H          line    70 file /home1/07844/xy3866/miniconda3/envs/p4env/share/psi4/basis/aug-cc-pvtz-jkfit.gbs 

  ==> Integral Setup <==

  DFHelper Memory: AOs need 7.744 GiB; user supplied 22.352 GiB. Using in-core AOs.

  ==> MemDFJK: Density-Fitted J/K Matrices <==

    J tasked:                   Yes
    K tasked:                   Yes
    wK tasked:                   No
    OpenMP threads:              32
    Memory [MiB]:             22888
    Algorithm:                 Core
    Schwarz Cutoff:           1E-12
    Mask sparsity (%):      12.1912
    Fitting Condition:        1E-10

   => Auxiliary Basis Set <=

  Basis Set: (AUG-CC-PVTZ AUX)
    Blend: AUG-CC-PVTZ-JKFIT
    Number of shells: 514
    Number of basis functions: 1754
    Number of Cartesian functions: 2177
    Spherical Harmonics?: true
    Max angular momentum: 4

  Minimum eigenvalue in the overlap matrix is 4.9499713360E-07.
  Reciprocal condition number of the overlap matrix is 2.3308827131E-08.
    Using symmetric orthogonalization.

  ==> Pre-Iterations <==

  SCF Guess: Superposition of Atomic Densities via on-the-fly atomic UHF (no occupation information).

   -------------------------
    Irrep   Nso     Nmo    
   -------------------------
     A        805     805 
   -------------------------
    Total     805     805
   -------------------------

  ==> Iterations <==

                           Total Energy        Delta E     RMS |[F,P]|

   @DF-RHF iter SAD:  -477.30369126556604   -4.77304e+02   0.00000e+00 
   @DF-RHF iter   1:  -477.21226960107117    9.14217e-02   9.03127e-04 DIIS
   @DF-RHF iter   2:  -477.48391468534220   -2.71645e-01   4.09967e-04 DIIS
   @DF-RHF iter   3:  -477.53935278556895   -5.54381e-02   8.38761e-05 DIIS
   @DF-RHF iter   4:  -477.54278430426348   -3.43152e-03   2.94485e-05 DIIS
   @DF-RHF iter   5:  -477.54310670325231   -3.22399e-04   8.42712e-06 DIIS
   @DF-RHF iter   6:  -477.54314372127271   -3.70180e-05   2.93301e-06 DIIS
   @DF-RHF iter   7:  -477.54315074697240   -7.02570e-06   1.15787e-06 DIIS
   @DF-RHF iter   8:  -477.54315274113031   -1.99416e-06   5.75163e-07 DIIS
   @DF-RHF iter   9:  -477.54315317048736   -4.29357e-07   2.60888e-07 DIIS
   @DF-RHF iter  10:  -477.54315324513669   -7.46493e-08   6.82802e-08 DIIS
   @DF-RHF iter  11:  -477.54315324957884   -4.44214e-09   2.75112e-08 DIIS
   @DF-RHF iter  12:  -477.54315325036941   -7.90578e-10   1.37025e-08 DIIS
   @DF-RHF iter  13:  -477.54315325064624   -2.76827e-10   5.18877e-09 DIIS
   @DF-RHF iter  14:  -477.54315325069979   -5.35465e-11   2.00152e-09 DIIS
   @DF-RHF iter  15:  -477.54315325070706   -7.27596e-12   1.00251e-09 DIIS
   @DF-RHF iter  16:  -477.54315325070752   -4.54747e-13   3.04761e-10 DIIS
   @DF-RHF iter  17:  -477.54315325070758   -5.68434e-14   1.39191e-10 DIIS
   @DF-RHF iter  18:  -477.54315325070922   -1.64846e-12   5.80790e-11 DIIS
  Energy and wave function converged.


  ==> Post-Iterations <==

    Orbital Energies [Eh]
    ---------------------

    Doubly Occupied:                                                      

       1A    -15.607435     2A    -11.270394     3A    -11.256145  
       4A    -11.248132     5A    -11.244832     6A    -11.242864  
       7A    -11.239344     8A    -11.239047     9A    -11.238243  
      10A    -11.237368    11A    -11.208087    12A    -11.206595  
      13A     -1.298724    14A     -1.158618    15A     -1.073065  
      16A     -1.047495    17A     -1.012533    18A     -0.957434  
      19A     -0.933099    20A     -0.834888    21A     -0.829242  
      22A     -0.770756    23A     -0.744465    24A     -0.712297  
      25A     -0.675315    26A     -0.639363    27A     -0.633262  
      28A     -0.624800    29A     -0.597124    30A     -0.582518  
      31A     -0.569545    32A     -0.568992    33A     -0.538425  
      34A     -0.526775    35A     -0.523543    36A     -0.502521  
      37A     -0.498484    38A     -0.487420    39A     -0.358441  
      40A     -0.337044    41A     -0.334605    42A     -0.276578  

    Virtual:                                                              

      43A      0.026078    44A      0.030443    45A      0.033605  
      46A      0.038271    47A      0.042504    48A      0.046200  
      49A      0.053044    50A      0.055041    51A      0.060919  
      52A      0.062175    53A      0.067762    54A      0.091563  
      55A      0.096207    56A      0.097583    57A      0.100664  
      58A      0.104174    59A      0.107693    60A      0.111892  
      61A      0.113930    62A      0.116159    63A      0.120055  
      64A      0.121215    65A      0.124044    66A      0.126357  
      67A      0.128349    68A      0.129796    69A      0.132260  
      70A      0.141124    71A      0.142770    72A      0.145189  
      73A      0.147120    74A      0.151201    75A      0.152150  
      76A      0.159983    77A      0.162968    78A      0.165684  
      79A      0.170621    80A      0.171814    81A      0.177807  
      82A      0.179569    83A      0.185905    84A      0.191215  
      85A      0.195259    86A      0.200744    87A      0.209230  
      88A      0.214794    89A      0.217291    90A      0.225720  
      91A      0.229565    92A      0.237205    93A      0.243822  
      94A      0.248147    95A      0.249650    96A      0.256046  
      97A      0.259501    98A      0.261390    99A      0.268834  
     100A      0.270470   101A      0.272262   102A      0.280427  
     103A      0.285796   104A      0.292097   105A      0.295518  
     106A      0.301530   107A      0.305576   108A      0.306754  
     109A      0.311247   110A      0.315481   111A      0.319600  
     112A      0.320979   113A      0.324551   114A      0.328840  
     115A      0.333018   116A      0.333545   117A      0.341266  
     118A      0.344312   119A      0.346034   120A      0.349142  
     121A      0.350689   122A      0.358587   123A      0.360668  
     124A      0.364306   125A      0.366547   126A      0.373240  
     127A      0.378031   128A      0.385887   129A      0.387171  
     130A      0.395525   131A      0.399903   132A      0.410536  
     133A      0.414266   134A      0.418116   135A      0.423409  
     136A      0.426457   137A      0.430473   138A      0.434195  
     139A      0.438046   140A      0.440372   141A      0.444971  
     142A      0.450439   143A      0.454442   144A      0.459551  
     145A      0.465054   146A      0.473178   147A      0.473600  
     148A      0.476380   149A      0.482201   150A      0.482730  
     151A      0.486049   152A      0.488305   153A      0.491837  
     154A      0.493663   155A      0.496188   156A      0.499386  
     157A      0.508075   158A      0.508614   159A      0.510478  
     160A      0.512242   161A      0.518026   162A      0.518936  
     163A      0.521662   164A      0.523253   165A      0.528078  
     166A      0.530990   167A      0.533310   168A      0.536338  
     169A      0.540431   170A      0.547080   171A      0.547955  
     172A      0.552866   173A      0.558082   174A      0.560926  
     175A      0.566938   176A      0.570252   177A      0.575539  
     178A      0.579615   179A      0.580748   180A      0.583490  
     181A      0.595473   182A      0.599834   183A      0.602683  
     184A      0.610226   185A      0.612591   186A      0.620920  
     187A      0.624392   188A      0.629097   189A      0.640259  
     190A      0.646323   191A      0.652220   192A      0.668949  
     193A      0.670654   194A      0.671163   195A      0.676947  
     196A      0.684626   197A      0.687676   198A      0.692283  
     199A      0.698763   200A      0.702629   201A      0.705382  
     202A      0.711931   203A      0.719623   204A      0.721531  
     205A      0.722778   206A      0.733571   207A      0.739262  
     208A      0.743002   209A      0.748764   210A      0.755170  
     211A      0.757599   212A      0.763622   213A      0.770987  
     214A      0.777110   215A      0.781554   216A      0.791643  
     217A      0.803437   218A      0.804598   219A      0.814051  
     220A      0.818909   221A      0.824943   222A      0.829313  
     223A      0.838442   224A      0.843154   225A      0.849572  
     226A      0.852333   227A      0.858847   228A      0.864026  
     229A      0.870023   230A      0.871074   231A      0.872837  
     232A      0.882663   233A      0.886947   234A      0.892980  
     235A      0.895617   236A      0.900383   237A      0.907802  
     238A      0.908850   239A      0.915618   240A      0.920365  
     241A      0.921006   242A      0.929430   243A      0.933347  
     244A      0.938434   245A      0.946216   246A      0.949361  
     247A      0.955205   248A      0.962512   249A      0.964071  
     250A      0.968983   251A      0.970995   252A      0.977041  
     253A      0.984149   254A      0.993523   255A      0.997164  
     256A      1.001933   257A      1.006561   258A      1.009247  
     259A      1.013735   260A      1.018141   261A      1.026572  
     262A      1.028863   263A      1.034002   264A      1.039287  
     265A      1.045248   266A      1.049719   267A      1.055978  
     268A      1.058966   269A      1.061081   270A      1.067011  
     271A      1.069540   272A      1.076110   273A      1.082109  
     274A      1.085330   275A      1.089272   276A      1.094977  
     277A      1.097268   278A      1.099987   279A      1.105625  
     280A      1.109912   281A      1.116457   282A      1.118849  
     283A      1.126583   284A      1.135100   285A      1.136013  
     286A      1.142808   287A      1.147623   288A      1.156664  
     289A      1.158743   290A      1.162856   291A      1.169078  
     292A      1.174353   293A      1.178013   294A      1.181612  
     295A      1.185300   296A      1.194013   297A      1.198147  
     298A      1.199493   299A      1.205941   300A      1.208712  
     301A      1.211433   302A      1.218894   303A      1.220459  
     304A      1.224604   305A      1.229676   306A      1.236179  
     307A      1.239624   308A      1.245256   309A      1.247264  
     310A      1.257766   311A      1.261559   312A      1.268471  
     313A      1.270721   314A      1.278633   315A      1.281511  
     316A      1.287446   317A      1.294516   318A      1.309313  
     319A      1.316230   320A      1.319739   321A      1.332403  
     322A      1.339436   323A      1.344341   324A      1.350219  
     325A      1.361084   326A      1.364439   327A      1.373504  
     328A      1.376330   329A      1.383524   330A      1.392216  
     331A      1.399390   332A      1.401765   333A      1.409119  
     334A      1.415974   335A      1.418254   336A      1.432245  
     337A      1.433770   338A      1.439508   339A      1.449424  
     340A      1.452620   341A      1.455100   342A      1.467341  
     343A      1.473259   344A      1.480768   345A      1.487246  
     346A      1.488728   347A      1.496662   348A      1.507158  
     349A      1.514278   350A      1.516847   351A      1.519906  
     352A      1.537320   353A      1.541086   354A      1.549063  
     355A      1.554507   356A      1.560415   357A      1.566636  
     358A      1.572162   359A      1.575960   360A      1.587867  
     361A      1.592865   362A      1.601843   363A      1.613664  
     364A      1.617076   365A      1.630736   366A      1.634006  
     367A      1.655347   368A      1.658142   369A      1.665233  
     370A      1.672791   371A      1.674247   372A      1.687275  
     373A      1.688757   374A      1.697871   375A      1.707474  
     376A      1.708740   377A      1.712764   378A      1.715175  
     379A      1.728623   380A      1.735626   381A      1.743133  
     382A      1.749224   383A      1.755471   384A      1.758409  
     385A      1.768076   386A      1.781437   387A      1.790759  
     388A      1.801669   389A      1.809269   390A      1.809977  
     391A      1.818456   392A      1.828271   393A      1.843982  
     394A      1.849068   395A      1.857354   396A      1.860450  
     397A      1.866801   398A      1.881597   399A      1.883749  
     400A      1.891952   401A      1.895473   402A      1.904823  
     403A      1.907351   404A      1.913982   405A      1.918314  
     406A      1.930353   407A      1.949409   408A      1.951843  
     409A      1.957550   410A      1.960623   411A      1.968522  
     412A      1.978485   413A      1.991515   414A      1.994666  
     415A      2.007756   416A      2.014530   417A      2.022177  
     418A      2.027155   419A      2.034701   420A      2.041223  
     421A      2.045781   422A      2.056531   423A      2.060023  
     424A      2.064727   425A      2.068101   426A      2.073214  
     427A      2.080828   428A      2.085880   429A      2.097680  
     430A      2.109581   431A      2.111657   432A      2.119298  
     433A      2.123517   434A      2.135273   435A      2.136731  
     436A      2.143277   437A      2.155075   438A      2.173730  
     439A      2.182210   440A      2.188755   441A      2.193006  
     442A      2.210007   443A      2.222696   444A      2.230746  
     445A      2.237234   446A      2.241830   447A      2.248337  
     448A      2.259794   449A      2.267372   450A      2.279713  
     451A      2.289548   452A      2.304728   453A      2.307473  
     454A      2.315892   455A      2.324049   456A      2.331890  
     457A      2.345427   458A      2.352956   459A      2.360870  
     460A      2.366650   461A      2.377423   462A      2.389110  
     463A      2.391395   464A      2.400913   465A      2.412913  
     466A      2.427603   467A      2.430083   468A      2.437841  
     469A      2.450220   470A      2.459169   471A      2.468094  
     472A      2.473832   473A      2.491340   474A      2.511509  
     475A      2.519386   476A      2.534032   477A      2.546429  
     478A      2.566433   479A      2.573029   480A      2.577350  
     481A      2.596810   482A      2.605675   483A      2.618671  
     484A      2.634984   485A      2.641537   486A      2.658692  
     487A      2.675077   488A      2.692161   489A      2.705434  
     490A      2.722424   491A      2.747344   492A      2.763698  
     493A      2.769123   494A      2.813976   495A      2.829104  
     496A      2.832027   497A      2.863661   498A      2.871575  
     499A      2.886500   500A      2.895179   501A      2.913023  
     502A      2.942214   503A      2.962128   504A      2.998325  
     505A      3.046592   506A      3.066559   507A      3.074651  
     508A      3.113251   509A      3.140004   510A      3.148661  
     511A      3.173684   512A      3.195980   513A      3.205135  
     514A      3.224821   515A      3.244543   516A      3.267256  
     517A      3.280992   518A      3.309091   519A      3.320548  
     520A      3.333296   521A      3.342632   522A      3.364137  
     523A      3.369842   524A      3.376249   525A      3.385381  
     526A      3.400587   527A      3.404080   528A      3.405820  
     529A      3.423770   530A      3.426515   531A      3.439884  
     532A      3.443966   533A      3.462057   534A      3.468077  
     535A      3.480260   536A      3.486066   537A      3.499544  
     538A      3.505864   539A      3.513603   540A      3.527724  
     541A      3.536697   542A      3.545691   543A      3.551977  
     544A      3.557891   545A      3.566950   546A      3.574857  
     547A      3.584831   548A      3.595379   549A      3.603764  
     550A      3.614120   551A      3.620887   552A      3.626467  
     553A      3.640095   554A      3.642546   555A      3.651322  
     556A      3.661948   557A      3.672940   558A      3.682452  
     559A      3.695811   560A      3.713688   561A      3.717565  
     562A      3.722424   563A      3.731455   564A      3.740624  
     565A      3.747298   566A      3.761327   567A      3.768626  
     568A      3.771110   569A      3.773961   570A      3.793487  
     571A      3.808239   572A      3.810887   573A      3.824386  
     574A      3.829276   575A      3.842569   576A      3.849015  
     577A      3.857709   578A      3.866706   579A      3.874515  
     580A      3.888377   581A      3.893172   582A      3.899701  
     583A      3.908007   584A      3.912448   585A      3.924418  
     586A      3.935242   587A      3.941359   588A      3.944459  
     589A      3.953328   590A      3.954963   591A      3.968301  
     592A      3.971035   593A      3.985951   594A      3.994689  
     595A      3.997940   596A      4.015818   597A      4.018917  
     598A      4.026802   599A      4.031061   600A      4.040939  
     601A      4.049749   602A      4.050366   603A      4.067063  
     604A      4.068560   605A      4.073762   606A      4.085764  
     607A      4.088079   608A      4.101389   609A      4.105382  
     610A      4.125454   611A      4.134468   612A      4.142444  
     613A      4.152367   614A      4.153964   615A      4.156447  
     616A      4.178379   617A      4.183087   618A      4.192350  
     619A      4.199252   620A      4.215740   621A      4.230289  
     622A      4.242884   623A      4.246278   624A      4.253837  
     625A      4.265164   626A      4.268662   627A      4.272343  
     628A      4.288970   629A      4.301930   630A      4.305300  
     631A      4.311433   632A      4.319504   633A      4.324106  
     634A      4.347688   635A      4.355411   636A      4.361264  
     637A      4.364885   638A      4.380704   639A      4.385202  
     640A      4.392692   641A      4.396742   642A      4.406897  
     643A      4.417401   644A      4.427388   645A      4.428397  
     646A      4.445057   647A      4.455498   648A      4.467632  
     649A      4.480916   650A      4.487349   651A      4.494756  
     652A      4.496983   653A      4.505032   654A      4.519179  
     655A      4.532167   656A      4.541642   657A      4.551964  
     658A      4.566647   659A      4.575972   660A      4.579920  
     661A      4.599444   662A      4.623258   663A      4.640314  
     664A      4.648296   665A      4.661196   666A      4.667845  
     667A      4.694911   668A      4.707807   669A      4.714383  
     670A      4.724185   671A      4.735045   672A      4.742219  
     673A      4.755656   674A      4.757007   675A      4.776069  
     676A      4.790025   677A      4.800822   678A      4.823175  
     679A      4.836193   680A      4.862720   681A      4.870182  
     682A      4.872488   683A      4.879772   684A      4.891247  
     685A      4.900720   686A      4.917757   687A      4.923855  
     688A      4.928474   689A      4.960272   690A      4.966810  
     691A      4.981732   692A      4.996123   693A      5.006575  
     694A      5.023265   695A      5.026865   696A      5.037062  
     697A      5.048288   698A      5.053607   699A      5.067433  
     700A      5.084106   701A      5.106816   702A      5.114802  
     703A      5.128289   704A      5.130141   705A      5.145300  
     706A      5.157007   707A      5.158283   708A      5.162615  
     709A      5.167201   710A      5.180232   711A      5.188152  
     712A      5.195653   713A      5.205983   714A      5.216905  
     715A      5.217480   716A      5.234527   717A      5.249803  
     718A      5.263653   719A      5.289280   720A      5.314810  
     721A      5.317025   722A      5.346026   723A      5.355531  
     724A      5.365658   725A      5.372401   726A      5.386791  
     727A      5.407341   728A      5.419315   729A      5.422110  
     730A      5.457087   731A      5.463991   732A      5.473276  
     733A      5.478885   734A      5.496828   735A      5.533434  
     736A      5.550951   737A      5.576122   738A      5.584353  
     739A      5.604917   740A      5.638532   741A      5.661159  
     742A      5.683221   743A      5.710777   744A      5.750943  
     745A      5.765874   746A      5.775352   747A      5.796245  
     748A      5.817277   749A      5.819689   750A      5.844128  
     751A      5.857221   752A      5.908228   753A      5.923999  
     754A      5.941369   755A      5.991171   756A      6.010770  
     757A      6.035785   758A      6.086906   759A      6.114746  
     760A      6.151843   761A      6.185988   762A      6.206241  
     763A      6.209499   764A      6.215409   765A      6.236078  
     766A      6.273238   767A      6.307931   768A      6.321416  
     769A      6.360515   770A      6.381375   771A      6.393340  
     772A      6.432318   773A      6.454967   774A      6.506359  
     775A      6.540839   776A      6.594647   777A      6.629885  
     778A      6.672580   779A      6.727405   780A      6.765343  
     781A      6.823642   782A      6.866758   783A      6.892495  
     784A      6.897330   785A      6.940151   786A      7.007417  
     787A      7.079467   788A      7.104340   789A      7.135166  
     790A      7.197824   791A      7.231754   792A      7.294565  
     793A      7.372147   794A     15.991995   795A     16.223541  
     796A     16.896838   797A     17.315925   798A     18.247915  
     799A     18.902240   800A     19.044848   801A     19.596924  
     802A     19.938074   803A     20.049693   804A     20.279104  
     805A     21.948349  

    Final Occupation by Irrep:
              A 
    DOCC [    42 ]

  @DF-RHF Final Energy:  -477.54315325070922

   => Energetics <=

    Nuclear Repulsion Energy =            639.7957710875216435
    One-Electron Energy =               -1914.9061360760565549
    Two-Electron Energy =                 797.5672117378256871
    Total Energy =                       -477.5431532507092243

Computation Completed

*** tstop() called on c446-022.stampede2.tacc.utexas.edu at Sat Mar 20 05:18:52 2021
Module time:
	user time   =    1112.51 seconds =      18.54 minutes
	system time =      59.37 seconds =       0.99 minutes
	total time  =         57 seconds =       0.95 minutes
Total time:
	user time   =    1112.51 seconds =      18.54 minutes
	system time =      59.37 seconds =       0.99 minutes
	total time  =         57 seconds =       0.95 minutes
   => Loading Basis Set <=

    Name: (AUG-CC-PVTZ AUX)
    Role: RIFIT
    Keyword: DF_BASIS_MP2
    atoms 1     entry N          line   206 file /home1/07844/xy3866/miniconda3/envs/p4env/share/psi4/basis/aug-cc-pvtz-ri.gbs 
    atoms 2-12  entry C          line   148 file /home1/07844/xy3866/miniconda3/envs/p4env/share/psi4/basis/aug-cc-pvtz-ri.gbs 
    atoms 13-23 entry H          line    30 file /home1/07844/xy3866/miniconda3/envs/p4env/share/psi4/basis/aug-cc-pvtz-ri.gbs 


*** tstart() called on c446-022.stampede2.tacc.utexas.edu
*** at Sat Mar 20 05:18:53 2021


  //>>>>>>>>>>>>>>>>>>>>>>>>>>>>>>>>>>>//
  //               DFMP2               //
  //<<<<<<<<<<<<<<<<<<<<<<<<<<<<<<<<<<<//

	 --------------------------------------------------------
	                          DF-MP2                         
	      2nd-Order Density-Fitted Moller-Plesset Theory     
	              RMP2 Wavefunction,  32 Threads             
	                                                         
	        Rob Parrish, Justin Turney, Andy Simmonett,      
	           Ed Hohenstein, and C. David Sherrill          
	 --------------------------------------------------------

   => Auxiliary Basis Set <=

  Basis Set: (AUG-CC-PVTZ AUX)
    Blend: AUG-CC-PVTZ-RI
    Number of shells: 490
    Number of basis functions: 1778
    Number of Cartesian functions: 2237
    Spherical Harmonics?: true
    Max angular momentum: 4

	 --------------------------------------------------------
	                 NBF =   805, NAUX =  1778
	 --------------------------------------------------------
	   CLASS    FOCC     OCC    AOCC    AVIR     VIR    FVIR
	   PAIRS       0      42      42     763     763       0
	 --------------------------------------------------------

  DFHelper Memory: AOs need 8.149 GiB; user supplied 22.352 GiB. Using in-core AOs.


         ------------------------------------------------------------
                                     CPHF                           
                                  Rob Parrish                       
         ------------------------------------------------------------

  ==> Geometry <==

    Molecular point group: c1
    Full point group: C1

    Geometry (in Angstrom), charge = 0, multiplicity = 1:

       Center              X                  Y                   Z               Mass       
    ------------   -----------------  -----------------  -----------------  -----------------
         N           -1.754011564165     0.672808615021     0.204263615485    14.003074004430
         C           -0.859342564165    -0.335322384979    -0.110030384515    12.000000000000
         C            0.594986435835    -0.170380384979    -0.062959384515    12.000000000000
         C           -1.610409564165    -1.458984384979    -0.448720384515    12.000000000000
         C           -3.037340564165     0.203878615021     0.064763615485    12.000000000000
         C           -2.975916564165    -1.118223384979    -0.342615384515    12.000000000000
         C           -1.422144564165     2.007928615021     0.674867615485    12.000000000000
         C            1.218064235835     0.870179215021    -0.668931984515    12.000000000000
         C            1.377808435835    -1.138355384979     0.589245615485    12.000000000000
         C            2.630668435835     1.025399615021    -0.648953384515    12.000000000000
         C            2.768040435835    -1.030610384979     0.611172615485    12.000000000000
         C            3.399015435835     0.056158615021     0.000350615485    12.000000000000
         H           -1.193983564165    -2.406436384979    -0.768300384515     1.007825032230
         H           -3.883226564165     0.844008615021     0.279705615485     1.007825032230
         H           -3.826211564165    -1.757656384979    -0.541959384515     1.007825032230
         H           -2.222166564165     2.352260615021     1.332952615485     1.007825032230
         H           -0.487922564165     1.973352615021     1.236222615485     1.007825032230
         H           -1.314821564165     2.712426615021    -0.155102384515     1.007825032230
         H            0.652711435835     1.639275615021    -1.242224384515     1.007825032230
         H            0.880356435835    -1.968750384979     1.085641615485     1.007825032230
         H            3.116483435835     1.865255615021    -1.140815384515     1.007825032230
         H            3.360163435835    -1.788362384979     1.119434615485     1.007825032230
         H            4.482429435835     0.144965615021     0.026217615485     1.007825032230

  Nuclear repulsion =  639.795771087521643
  Reference energy  = -477.543153250709224

  ==> Basis Set <==

  Basis Set: AUG-CC-PVTZ
    Blend: AUG-CC-PVTZ
    Number of shells: 267
    Number of basis functions: 805
    Number of Cartesian functions: 935
    Spherical Harmonics?: true
    Max angular momentum: 3

  ==> CGRSolver (by Rob Parrish) <==

   Number of roots    =         1
   Preconditioning    =    JACOBI
   Convergence cutoff =     1E-06
   Maximum iterations =       100

  ==> CPHFRHamiltonian (by Rob Parrish) <== 

  ==> MemDFJK: Density-Fitted J/K Matrices <==

    J tasked:                   Yes
    K tasked:                   Yes
    wK tasked:                   No
    OpenMP threads:              32
    Memory [MiB]:             22888
    Algorithm:                 Core
    Schwarz Cutoff:           1E-12
    Mask sparsity (%):       7.4124
    Fitting Condition:        1E-10

   => Auxiliary Basis Set <=

  Basis Set: (AUG-CC-PVTZ AUX)
    Blend: AUG-CC-PVTZ-JKFIT
    Number of shells: 514
    Number of basis functions: 1754
    Number of Cartesian functions: 2177
    Spherical Harmonics?: true
    Max angular momentum: 4

  ==> CPHF Iterations <==

  => Iterations <=

             Iter  Converged  Remaining    Residual
  CGR           1          0          1   8.067E-02
  CGR           2          0          1   2.842E-02
  CGR           3          0          1   1.716E-02
  CGR           4          0          1   6.446E-03
  CGR           5          0          1   1.670E-03
  CGR           6          0          1   6.168E-04
  CGR           7          0          1   3.056E-04
  CGR           8          0          1   1.747E-04
  CGR           9          0          1   6.354E-05
  CGR          10          0          1   1.835E-05
  CGR          11          0          1   7.549E-06
  CGR          12          0          1   2.192E-06
  CGR          13          0          1   1.130E-06
  CGR          14          1          0   5.347E-07

    CGRSolver converged.

	-----------------------------------------------------------
	 ==================> DF-MP2 Energies <==================== 
	-----------------------------------------------------------
	 Reference Energy          =    -477.5431532507092243 [Eh]
	 Singles Energy            =      -0.0000000000000000 [Eh]
	 Same-Spin Energy          =      -0.5391014794884859 [Eh]
	 Opposite-Spin Energy      =      -1.6832654327380956 [Eh]
	 Correlation Energy        =      -2.2223669122265814 [Eh]
	 Total Energy              =    -479.7655201629357862 [Eh]
	-----------------------------------------------------------
	 ================> DF-SCS-MP2 Energies <================== 
	-----------------------------------------------------------
	 SCS Same-Spin Scale       =       0.3333333333333333 [-]
	 SCS Opposite-Spin Scale   =       1.2000000000000000 [-]
	 SCS Same-Spin Energy      =      -0.1797004931628286 [Eh]
	 SCS Opposite-Spin Energy  =      -2.0199185192857145 [Eh]
	 SCS Correlation Energy    =      -2.1996190124485433 [Eh]
	 SCS Total Energy          =    -479.7427722631577467 [Eh]
	-----------------------------------------------------------



Properties will be evaluated at  -0.000000,   0.000000,   0.000000 [a0]

Properties computed using the MP2 density matrix

  Nuclear Dipole Moment: [e a0]
     X:    -0.4038      Y:     3.3826      Z:     1.1542

  Electronic Dipole Moment: [e a0]
     X:     0.6062      Y:    -2.6493      Z:    -0.8872

  Dipole Moment: [e a0]
     X:     0.2024      Y:     0.7334      Z:     0.2669     Total:     0.8062

  Dipole Moment: [D]
     X:     0.5143      Y:     1.8640      Z:     0.6785     Total:     2.0492


*** tstop() called on c446-022.stampede2.tacc.utexas.edu at Sat Mar 20 05:24:36 2021
Module time:
	user time   =    3491.12 seconds =      58.19 minutes
	system time =      83.32 seconds =       1.39 minutes
	total time  =        343 seconds =       5.72 minutes
Total time:
	user time   =    4604.77 seconds =      76.75 minutes
	system time =     142.72 seconds =       2.38 minutes
	total time  =        401 seconds =       6.68 minutes

    Psi4 stopped on: Saturday, 20 March 2021 05:24AM
    Psi4 wall time for execution: 0:06:41.74

*** Psi4 exiting successfully. Buy a developer a beer!
