
    -----------------------------------------------------------------------
          Psi4: An Open-Source Ab Initio Electronic Structure Package
                               Psi4 1.3.2 release

                         Git: Rev {HEAD} ecbda83 


    R. M. Parrish, L. A. Burns, D. G. A. Smith, A. C. Simmonett,
    A. E. DePrince III, E. G. Hohenstein, U. Bozkaya, A. Yu. Sokolov,
    R. Di Remigio, R. M. Richard, J. F. Gonthier, A. M. James,
    H. R. McAlexander, A. Kumar, M. Saitow, X. Wang, B. P. Pritchard,
    P. Verma, H. F. Schaefer III, K. Patkowski, R. A. King, E. F. Valeev,
    F. A. Evangelista, J. M. Turney, T. D. Crawford, and C. D. Sherrill,
    J. Chem. Theory Comput. 13(7) pp 3185--3197 (2017).
    (doi: 10.1021/acs.jctc.7b00174)


                         Additional Contributions by
    P. Kraus, H. Kruse, M. H. Lechner, M. C. Schieber, R. A. Shaw,
    A. Alenaizan, R. Galvelis, Z. L. Glick, S. Lehtola, and J. P. Misiewicz

    -----------------------------------------------------------------------


    Psi4 started on: Wednesday, 04 November 2020 11:10AM

    Process ID: 1921
    Host:       node142.bme.utexas.edu
    PSIDATADIR: /home/xy3866/psi4conda/share/psi4
    Memory:     500.0 MiB
    Threads:    8
    
  ==> Input File <==

--------------------------------------------------------------------------
#psi4
#
memory 32 gb

molecule  {
0 1
  C        0.0784890     0.5600950     0.0474820
  C       -1.2241748    -0.2199704    -0.0180753
  O        1.2367980    -0.2609050    -0.1110110
  H        0.1267890     1.2787770    -0.7736430
  H        0.1272170     1.1296450     0.9866060
  H       -2.0849510     0.4119050     0.0472240
  H        1.2481260    -0.8835950     0.6350260
  H       -1.2641960    -0.9621080     0.8017360
  H       -1.2562270    -0.7941330    -0.9631930
units angstrom
no_reorient  #important for SAPT in psi4, default
symmetry c1  #important for SAPT in psi4, default
}

set PROPERTIES_ORIGIN ["COM"]
properties('MP2/aug-cc-pvtz', properties = ['dipole'])
--------------------------------------------------------------------------

  Memory set to  29.802 GiB by Python driver.
    SCF Algorithm Type (re)set to DF.

*** tstart() called on node142.bme.utexas.edu
*** at Wed Nov  4 11:10:21 2020

   => Loading Basis Set <=

    Name: AUG-CC-PVTZ
    Role: ORBITAL
    Keyword: BASIS
    atoms 1-2 entry C          line   235 file /home/xy3866/psi4conda/share/psi4/basis/aug-cc-pvtz.gbs 
    atoms 3   entry O          line   327 file /home/xy3866/psi4conda/share/psi4/basis/aug-cc-pvtz.gbs 
    atoms 4-9 entry H          line    36 file /home/xy3866/psi4conda/share/psi4/basis/aug-cc-pvtz.gbs 


         ---------------------------------------------------------
                                   SCF
               by Justin Turney, Rob Parrish, Andy Simmonett
                          and Daniel G. A. Smith
                              RHF Reference
                        8 Threads,  30517 MiB Core
         ---------------------------------------------------------

  ==> Geometry <==

    Molecular point group: c1
    Full point group: C1

    Geometry (in Angstrom), charge = 0, multiplicity = 1:

       Center              X                  Y                   Z               Mass       
    ------------   -----------------  -----------------  -----------------  -----------------
         C            0.015356808139     0.558134928456     0.062321394652    12.000000000000
         C           -1.287306991861    -0.221930471544    -0.003235905348    12.000000000000
         O            1.173665808139    -0.262865071544    -0.096171605348    15.994914619570
         H            0.063656808139     1.276816928456    -0.758803605348     1.007825032230
         H            0.064084808139     1.127684928456     1.001445394652     1.007825032230
         H           -2.148083191861     0.409944928456     0.062063394652     1.007825032230
         H            1.184993808139    -0.885555071544     0.649865394652     1.007825032230
         H           -1.327328191861    -0.964068071544     0.816575394652     1.007825032230
         H           -1.319359191861    -0.796093071544    -0.948353605348     1.007825032230

  Running in c1 symmetry.

  Rotational constants: A =      1.15051  B =      0.30475  C =      0.26990 [cm^-1]
  Rotational constants: A =  34491.42022  B =   9136.28117  C =   8091.45296 [MHz]
  Nuclear repulsion =   81.490035746405965

  Charge       = 0
  Multiplicity = 1
  Electrons    = 26
  Nalpha       = 13
  Nbeta        = 13

  ==> Algorithm <==

  SCF Algorithm Type is DF.
  DIIS enabled.
  MOM disabled.
  Fractional occupation disabled.
  Guess Type is SAD.
  Energy threshold   = 1.00e-10
  Density threshold  = 1.00e-10
  Integral threshold = 0.00e+00

  ==> Primary Basis <==

  Basis Set: AUG-CC-PVTZ
    Blend: AUG-CC-PVTZ
    Number of shells: 96
    Number of basis function: 276
    Number of Cartesian functions: 315
    Spherical Harmonics?: true
    Max angular momentum: 3

   => Loading Basis Set <=

    Name: (AUG-CC-PVTZ AUX)
    Role: JKFIT
    Keyword: DF_BASIS_SCF
    atoms 1-2 entry C          line   162 file /home/xy3866/psi4conda/share/psi4/basis/aug-cc-pvtz-jkfit.gbs 
    atoms 3   entry O          line   286 file /home/xy3866/psi4conda/share/psi4/basis/aug-cc-pvtz-jkfit.gbs 
    atoms 4-9 entry H          line    70 file /home/xy3866/psi4conda/share/psi4/basis/aug-cc-pvtz-jkfit.gbs 

  ==> Pre-Iterations <==

   -------------------------------------------------------
    Irrep   Nso     Nmo     Nalpha   Nbeta   Ndocc  Nsocc
   -------------------------------------------------------
     A        276     276       0       0       0       0
   -------------------------------------------------------
    Total     276     276      13      13      13       0
   -------------------------------------------------------

  ==> Integral Setup <==

  DFHelper Memory: AOs need 0.356 GiB; user supplied 22.352 GiB. Using in-core AOs.

  ==> MemDFJK: Density-Fitted J/K Matrices <==

    J tasked:                   Yes
    K tasked:                   Yes
    wK tasked:                   No
    OpenMP threads:               8
    Memory [MiB]:             22888
    Algorithm:                 Core
    Schwarz Cutoff:           1E-12
    Mask sparsity (%):       0.1365
    Fitting Condition:        1E-10

   => Auxiliary Basis Set <=

  Basis Set: (AUG-CC-PVTZ AUX)
    Blend: AUG-CC-PVTZ-JKFIT
    Number of shells: 174
    Number of basis function: 588
    Number of Cartesian functions: 723
    Spherical Harmonics?: true
    Max angular momentum: 4

  Minimum eigenvalue in the overlap matrix is 2.1663405825E-05.
  Using Symmetric Orthogonalization.

  SCF Guess: Superposition of Atomic Densities via on-the-fly atomic UHF.

  ==> Iterations <==

                           Total Energy        Delta E     RMS |[F,P]|

   @DF-RHF iter SAD:  -153.39458698274916   -1.53395e+02   0.00000e+00 
   @DF-RHF iter   1:  -154.00371178640526   -6.09125e-01   1.85537e-03 DIIS
   @DF-RHF iter   2:  -154.11388587735073   -1.10174e-01   9.83438e-04 DIIS
   @DF-RHF iter   3:  -154.14133549313573   -2.74496e-02   1.68841e-04 DIIS
   @DF-RHF iter   4:  -154.14292131512406   -1.58582e-03   6.60759e-05 DIIS
   @DF-RHF iter   5:  -154.14311931165471   -1.97997e-04   1.24762e-05 DIIS
   @DF-RHF iter   6:  -154.14312995810747   -1.06465e-05   2.88464e-06 DIIS
   @DF-RHF iter   7:  -154.14313072004296   -7.61935e-07   8.24352e-07 DIIS
   @DF-RHF iter   8:  -154.14313077748037   -5.74374e-08   2.61882e-07 DIIS
   @DF-RHF iter   9:  -154.14313078380576   -6.32539e-09   6.67607e-08 DIIS
   @DF-RHF iter  10:  -154.14313078425090   -4.45141e-10   1.29908e-08 DIIS
   @DF-RHF iter  11:  -154.14313078426798   -1.70814e-11   3.31545e-09 DIIS
   @DF-RHF iter  12:  -154.14313078426872   -7.38964e-13   8.27600e-10 DIIS
   @DF-RHF iter  13:  -154.14313078426898   -2.55795e-13   2.10008e-10 DIIS
   @DF-RHF iter  14:  -154.14313078426875    2.27374e-13   5.39952e-11 DIIS
  Energy and wave function converged.


  ==> Post-Iterations <==

    Orbital Energies [Eh]
    ---------------------

    Doubly Occupied:                                                      

       1A    -20.557955     2A    -11.275973     3A    -11.220077  
       4A     -1.353960     5A     -1.012346     6A     -0.845601  
       7A     -0.684689     8A     -0.623454     9A     -0.604741  
      10A     -0.541050    11A     -0.528876    12A     -0.481058  
      13A     -0.444449  

    Virtual:                                                              

      14A      0.029272    15A      0.038953    16A      0.041566  
      17A      0.045469    18A      0.064486    19A      0.065794  
      20A      0.100020    21A      0.105776    22A      0.117768  
      23A      0.126791    24A      0.133715    25A      0.138417  
      26A      0.145199    27A      0.176771    28A      0.189775  
      29A      0.193334    30A      0.215543    31A      0.224878  
      32A      0.238732    33A      0.242076    34A      0.264336  
      35A      0.270431    36A      0.286582    37A      0.294250  
      38A      0.304910    39A      0.329135    40A      0.339221  
      41A      0.349028    42A      0.355699    43A      0.362464  
      44A      0.373133    45A      0.376632    46A      0.387547  
      47A      0.389401    48A      0.398908    49A      0.416198  
      50A      0.429822    51A      0.432242    52A      0.438192  
      53A      0.439926    54A      0.463318    55A      0.467252  
      56A      0.472418    57A      0.482244    58A      0.489677  
      59A      0.498616    60A      0.509875    61A      0.520189  
      62A      0.525409    63A      0.537014    64A      0.554781  
      65A      0.569647    66A      0.585156    67A      0.621302  
      68A      0.697252    69A      0.715190    70A      0.744614  
      71A      0.765072    72A      0.778172    73A      0.790527  
      74A      0.805165    75A      0.810350    76A      0.828250  
      77A      0.839797    78A      0.843894    79A      0.856842  
      80A      0.875471    81A      0.881282    82A      0.906050  
      83A      0.919109    84A      0.929308    85A      0.943959  
      86A      0.956143    87A      0.960527    88A      0.970201  
      89A      0.987142    90A      1.003401    91A      1.013764  
      92A      1.024003    93A      1.027998    94A      1.048496  
      95A      1.054152    96A      1.079872    97A      1.096290  
      98A      1.105205    99A      1.115515   100A      1.128973  
     101A      1.133850   102A      1.149963   103A      1.163293  
     104A      1.171537   105A      1.192906   106A      1.200118  
     107A      1.230164   108A      1.247072   109A      1.255399  
     110A      1.260878   111A      1.281543   112A      1.324656  
     113A      1.355676   114A      1.364727   115A      1.372384  
     116A      1.409543   117A      1.417667   118A      1.432028  
     119A      1.445610   120A      1.478000   121A      1.493657  
     122A      1.535333   123A      1.580002   124A      1.586385  
     125A      1.603660   126A      1.625121   127A      1.643893  
     128A      1.663361   129A      1.673777   130A      1.682198  
     131A      1.694297   132A      1.704860   133A      1.720935  
     134A      1.730295   135A      1.748542   136A      1.793984  
     137A      1.805925   138A      1.822051   139A      1.839123  
     140A      1.870283   141A      1.890119   142A      1.915495  
     143A      1.928758   144A      1.970223   145A      1.990811  
     146A      1.995308   147A      2.049658   148A      2.079070  
     149A      2.117354   150A      2.122018   151A      2.172306  
     152A      2.196189   153A      2.229324   154A      2.255713  
     155A      2.265466   156A      2.285182   157A      2.317009  
     158A      2.382935   159A      2.391146   160A      2.454821  
     161A      2.552094   162A      2.583999   163A      2.626286  
     164A      2.636871   165A      2.693080   166A      2.745252  
     167A      2.845276   168A      2.853874   169A      2.894231  
     170A      2.936771   171A      2.975675   172A      3.034829  
     173A      3.063032   174A      3.147741   175A      3.211673  
     176A      3.293269   177A      3.398937   178A      3.408491  
     179A      3.421688   180A      3.461384   181A      3.528631  
     182A      3.590298   183A      3.610024   184A      3.630075  
     185A      3.647985   186A      3.658767   187A      3.716044  
     188A      3.732582   189A      3.748537   190A      3.756039  
     191A      3.785026   192A      3.821723   193A      3.857216  
     194A      3.901190   195A      3.929156   196A      3.942922  
     197A      3.947881   198A      3.988529   199A      4.008687  
     200A      4.042421   201A      4.082955   202A      4.111476  
     203A      4.125772   204A      4.150144   205A      4.178899  
     206A      4.189892   207A      4.229805   208A      4.291844  
     209A      4.327873   210A      4.338690   211A      4.398642  
     212A      4.434959   213A      4.497798   214A      4.532610  
     215A      4.536063   216A      4.553788   217A      4.610638  
     218A      4.665632   219A      4.675011   220A      4.701137  
     221A      4.760056   222A      4.803142   223A      4.821942  
     224A      4.846780   225A      4.877833   226A      4.911204  
     227A      4.928927   228A      4.962161   229A      4.996613  
     230A      5.027886   231A      5.050749   232A      5.101666  
     233A      5.128858   234A      5.160169   235A      5.178644  
     236A      5.221199   237A      5.324651   238A      5.346817  
     239A      5.376373   240A      5.416702   241A      5.445308  
     242A      5.512104   243A      5.536627   244A      5.570124  
     245A      5.607912   246A      5.616585   247A      5.692702  
     248A      5.766424   249A      5.826137   250A      5.967127  
     251A      5.997041   252A      6.042428   253A      6.131217  
     254A      6.169079   255A      6.202355   256A      6.244423  
     257A      6.338524   258A      6.643295   259A      6.677053  
     260A      6.735473   261A      6.821274   262A      6.931676  
     263A      6.952524   264A      7.105332   265A      7.312896  
     266A      7.319538   267A      7.439211   268A      7.482712  
     269A      7.605604   270A      7.797966   271A      7.871496  
     272A      8.183921   273A      8.517009   274A     15.693026  
     275A     17.414419   276A     18.205204  

    Final Occupation by Irrep:
              A 
    DOCC [    13 ]

  @DF-RHF Final Energy:  -154.14313078426875

   => Energetics <=

    Nuclear Repulsion Energy =             81.4900357464059653
    One-Electron Energy =                -370.9178767429529557
    Two-Electron Energy =                 135.2847102122782417
    Total Energy =                       -154.1431307842687488

Computation Completed

*** tstop() called on node142.bme.utexas.edu at Wed Nov  4 11:10:25 2020
Module time:
	user time   =      27.24 seconds =       0.45 minutes
	system time =       1.61 seconds =       0.03 minutes
	total time  =          4 seconds =       0.07 minutes
Total time:
	user time   =      27.24 seconds =       0.45 minutes
	system time =       1.61 seconds =       0.03 minutes
	total time  =          4 seconds =       0.07 minutes
   => Loading Basis Set <=

    Name: (AUG-CC-PVTZ AUX)
    Role: RIFIT
    Keyword: DF_BASIS_MP2
    atoms 1-2 entry C          line   148 file /home/xy3866/psi4conda/share/psi4/basis/aug-cc-pvtz-ri.gbs 
    atoms 3   entry O          line   264 file /home/xy3866/psi4conda/share/psi4/basis/aug-cc-pvtz-ri.gbs 
    atoms 4-9 entry H          line    30 file /home/xy3866/psi4conda/share/psi4/basis/aug-cc-pvtz-ri.gbs 


*** tstart() called on node142.bme.utexas.edu
*** at Wed Nov  4 11:10:26 2020


  //>>>>>>>>>>>>>>>>>>>>>>>>>>>>>>>>>>>//
  //               DFMP2               //
  //<<<<<<<<<<<<<<<<<<<<<<<<<<<<<<<<<<<//

	 --------------------------------------------------------
	                          DF-MP2                         
	      2nd-Order Density-Fitted Moller-Plesset Theory     
	              RMP2 Wavefunction,   8 Threads             
	                                                         
	        Rob Parrish, Justin Turney, Andy Simmonett,      
	           Ed Hohenstein, and C. David Sherrill          
	 --------------------------------------------------------

   => Auxiliary Basis Set <=

  Basis Set: (AUG-CC-PVTZ AUX)
    Blend: AUG-CC-PVTZ-RI
    Number of shells: 168
    Number of basis function: 594
    Number of Cartesian functions: 738
    Spherical Harmonics?: true
    Max angular momentum: 4

	 --------------------------------------------------------
	                 NBF =   276, NAUX =   594
	 --------------------------------------------------------
	   CLASS    FOCC     OCC    AOCC    AVIR     VIR    FVIR
	   PAIRS       0      13      13     263     263       0
	 --------------------------------------------------------

  DFHelper Memory: AOs need 0.356 GiB; user supplied 22.352 GiB. Using in-core AOs.


         ------------------------------------------------------------
                                     CPHF                           
                                  Rob Parrish                       
         ------------------------------------------------------------

  ==> Geometry <==

    Molecular point group: c1
    Full point group: C1

    Geometry (in Angstrom), charge = 0, multiplicity = 1:

       Center              X                  Y                   Z               Mass       
    ------------   -----------------  -----------------  -----------------  -----------------
         C            0.015356808139     0.558134928456     0.062321394652    12.000000000000
         C           -1.287306991861    -0.221930471544    -0.003235905348    12.000000000000
         O            1.173665808139    -0.262865071544    -0.096171605348    15.994914619570
         H            0.063656808139     1.276816928456    -0.758803605348     1.007825032230
         H            0.064084808139     1.127684928456     1.001445394652     1.007825032230
         H           -2.148083191861     0.409944928456     0.062063394652     1.007825032230
         H            1.184993808139    -0.885555071544     0.649865394652     1.007825032230
         H           -1.327328191861    -0.964068071544     0.816575394652     1.007825032230
         H           -1.319359191861    -0.796093071544    -0.948353605348     1.007825032230

  Nuclear repulsion =   81.490035746405994
  Reference energy  = -154.143130784268749

  ==> Basis Set <==

  Basis Set: AUG-CC-PVTZ
    Blend: AUG-CC-PVTZ
    Number of shells: 96
    Number of basis function: 276
    Number of Cartesian functions: 315
    Spherical Harmonics?: true
    Max angular momentum: 3

  ==> CGRSolver (by Rob Parrish) <==

   Number of roots    =         1
   Preconditioning    =    JACOBI
   Convergence cutoff =     1E-06
   Maximum iterations =       100

  ==> CPHFRHamiltonian (by Rob Parrish) <== 

  ==> MemDFJK: Density-Fitted J/K Matrices <==

    J tasked:                   Yes
    K tasked:                   Yes
    wK tasked:                   No
    OpenMP threads:               8
    Memory [MiB]:             22888
    Algorithm:                 Core
    Schwarz Cutoff:           1E-12
    Mask sparsity (%):       0.1365
    Fitting Condition:        1E-10

   => Auxiliary Basis Set <=

  Basis Set: (AUG-CC-PVTZ AUX)
    Blend: AUG-CC-PVTZ-JKFIT
    Number of shells: 174
    Number of basis function: 588
    Number of Cartesian functions: 723
    Spherical Harmonics?: true
    Max angular momentum: 4

  ==> CPHF Iterations <==

  => Iterations <=

             Iter  Converged  Remaining    Residual
  CGR           1          0          1   7.394E-02
  CGR           2          0          1   1.766E-02
  CGR           3          0          1   7.531E-03
  CGR           4          0          1   1.722E-03
  CGR           5          0          1   3.874E-04
  CGR           6          0          1   1.118E-04
  CGR           7          0          1   2.815E-05
  CGR           8          0          1   8.862E-06
  CGR           9          0          1   1.895E-06
  CGR          10          1          0   4.736E-07

    CGRSolver converged.

	-----------------------------------------------------------
	 ==================> DF-MP2 Energies <==================== 
	-----------------------------------------------------------
	 Reference Energy          =    -154.1431307842687488 [Eh]
	 Singles Energy            =      -0.0000000000000000 [Eh]
	 Same-Spin Energy          =      -0.1482135295943889 [Eh]
	 Opposite-Spin Energy      =      -0.5182524920400217 [Eh]
	 Correlation Energy        =      -0.6664660216344105 [Eh]
	 Total Energy              =    -154.8095968059031691 [Eh]
	-----------------------------------------------------------
	 ================> DF-SCS-MP2 Energies <================== 
	-----------------------------------------------------------
	 SCS Same-Spin Scale       =       0.3333333333333333 [-]
	 SCS Opposite-Spin Scale   =       1.2000000000000000 [-]
	 SCS Same-Spin Energy      =      -0.0494045098647963 [Eh]
	 SCS Opposite-Spin Energy  =      -0.6219029904480260 [Eh]
	 SCS Correlation Energy    =      -0.6713075003128223 [Eh]
	 SCS Total Energy          =    -154.8144382845815699 [Eh]
	-----------------------------------------------------------



Properties will be evaluated at   0.000000,   0.000000,   0.000000 [a0]

Properties computed using the MP2 density matrix

  Nuclear Dipole Moment: [e a0]
     X:    -3.2587      Y:     0.1569      Z:     0.7709

  Electronic Dipole Moment: [e a0]
     X:     2.7516      Y:    -0.1798      Z:    -0.3038

  Dipole Moment: [e a0]
     X:    -0.5071      Y:    -0.0229      Z:     0.4671     Total:     0.6898

  Dipole Moment: [D]
     X:    -1.2888      Y:    -0.0582      Z:     1.1872     Total:     1.7532


*** tstop() called on node142.bme.utexas.edu at Wed Nov  4 11:10:35 2020
Module time:
	user time   =      63.62 seconds =       1.06 minutes
	system time =       2.18 seconds =       0.04 minutes
	total time  =          9 seconds =       0.15 minutes
Total time:
	user time   =      91.71 seconds =       1.53 minutes
	system time =       3.85 seconds =       0.06 minutes
	total time  =         14 seconds =       0.23 minutes

    Psi4 stopped on: Wednesday, 04 November 2020 11:10AM
    Psi4 wall time for execution: 0:00:14.29

*** Psi4 exiting successfully. Buy a developer a beer!
