
    -----------------------------------------------------------------------
          Psi4: An Open-Source Ab Initio Electronic Structure Package
                               Psi4 1.3.2 release

                         Git: Rev {HEAD} ecbda83 


    R. M. Parrish, L. A. Burns, D. G. A. Smith, A. C. Simmonett,
    A. E. DePrince III, E. G. Hohenstein, U. Bozkaya, A. Yu. Sokolov,
    R. Di Remigio, R. M. Richard, J. F. Gonthier, A. M. James,
    H. R. McAlexander, A. Kumar, M. Saitow, X. Wang, B. P. Pritchard,
    P. Verma, H. F. Schaefer III, K. Patkowski, R. A. King, E. F. Valeev,
    F. A. Evangelista, J. M. Turney, T. D. Crawford, and C. D. Sherrill,
    J. Chem. Theory Comput. 13(7) pp 3185--3197 (2017).
    (doi: 10.1021/acs.jctc.7b00174)


                         Additional Contributions by
    P. Kraus, H. Kruse, M. H. Lechner, M. C. Schieber, R. A. Shaw,
    A. Alenaizan, R. Galvelis, Z. L. Glick, S. Lehtola, and J. P. Misiewicz

    -----------------------------------------------------------------------


    Psi4 started on: Wednesday, 10 February 2021 06:43PM

    Process ID: 8284
    Host:       node144.bme.utexas.edu
    PSIDATADIR: /home/xy3866/psi4conda/share/psi4
    Memory:     500.0 MiB
    Threads:    8
    
  ==> Input File <==

--------------------------------------------------------------------------
#psi4
#
memory 32 gb

molecule  {
0 1
  S       -1.4679970    -1.1088850     0.1509200
  O        1.4861710    -1.4617920    -0.3475990
  N        2.0488620     0.7112420     0.1011850
  C       -0.2741490     0.1040806    -0.0029775
  C        1.1480630    -0.2971330    -0.1085980
  C       -0.8491840     1.3674970    -0.1820640
  C       -2.2598870     1.3270920    -0.0933710
  C       -2.7341550     0.0450510     0.0925010
  C        3.4678020     0.4025420     0.1643440
  H       -0.2776640     2.2711280    -0.3728590
  H        1.7182220     1.5388600     0.5795510
  H       -2.9045110     2.1962980    -0.1738640
  H       -3.7641930    -0.2736150     0.1955190
  H        3.7134240    -0.2643480    -0.6614350
  H        3.7418120    -0.0946250     1.1012270
  H        4.0344840     1.3296500     0.0646150
units angstrom
no_reorient  #important for SAPT in psi4, default
symmetry c1  #important for SAPT in psi4, default
}

set PROPERTIES_ORIGIN ["COM"]
properties('MP2/aug-cc-pvtz', properties = ['dipole'])
--------------------------------------------------------------------------

  Memory set to  29.802 GiB by Python driver.
    SCF Algorithm Type (re)set to DF.

*** tstart() called on node144.bme.utexas.edu
*** at Wed Feb 10 18:43:14 2021

   => Loading Basis Set <=

    Name: AUG-CC-PVTZ
    Role: ORBITAL
    Keyword: BASIS
    atoms 1     entry S          line   902 file /home/xy3866/psi4conda/share/psi4/basis/aug-cc-pvtz.gbs 
    atoms 2     entry O          line   327 file /home/xy3866/psi4conda/share/psi4/basis/aug-cc-pvtz.gbs 
    atoms 3     entry N          line   281 file /home/xy3866/psi4conda/share/psi4/basis/aug-cc-pvtz.gbs 
    atoms 4-9   entry C          line   235 file /home/xy3866/psi4conda/share/psi4/basis/aug-cc-pvtz.gbs 
    atoms 10-16 entry H          line    36 file /home/xy3866/psi4conda/share/psi4/basis/aug-cc-pvtz.gbs 


         ---------------------------------------------------------
                                   SCF
               by Justin Turney, Rob Parrish, Andy Simmonett
                          and Daniel G. A. Smith
                              RHF Reference
                        8 Threads,  30517 MiB Core
         ---------------------------------------------------------

  ==> Geometry <==

    Molecular point group: c1
    Full point group: C1

    Geometry (in Angstrom), charge = 0, multiplicity = 1:

       Center              X                  Y                   Z               Mass       
    ------------   -----------------  -----------------  -----------------  -----------------
         S           -1.424168485097    -1.061165341974     0.151921160387    31.972071174400
         O            1.529999514903    -1.414072341974    -0.346597839613    15.994914619570
         N            2.092690514903     0.758961658026     0.102186160387    14.003074004430
         C           -0.230320485097     0.151800258026    -0.001976339613    12.000000000000
         C            1.191891514903    -0.249413341974    -0.107596839613    12.000000000000
         C           -0.805355485097     1.415216658026    -0.181062839613    12.000000000000
         C           -2.216058485097     1.374811658026    -0.092369839613    12.000000000000
         C           -2.690326485097     0.092770658026     0.093502160387    12.000000000000
         C            3.511630514903     0.450261658026     0.165345160387    12.000000000000
         H           -0.233835485097     2.318847658026    -0.371857839613     1.007825032230
         H            1.762050514903     1.586579658026     0.580552160387     1.007825032230
         H           -2.860682485097     2.244017658026    -0.172862839613     1.007825032230
         H           -3.720364485097    -0.225895341974     0.196520160387     1.007825032230
         H            3.757252514903    -0.216628341974    -0.660433839613     1.007825032230
         H            3.785640514903    -0.046905341974     1.102228160387     1.007825032230
         H            4.078312514903     1.377369658026     0.065616160387     1.007825032230

  Running in c1 symmetry.

  Rotational constants: A =      0.11433  B =      0.03012  C =      0.02425 [cm^-1]
  Rotational constants: A =   3427.63215  B =    902.86339  C =    727.11486 [MHz]
  Nuclear repulsion =  499.990103965311619

  Charge       = 0
  Multiplicity = 1
  Electrons    = 74
  Nalpha       = 37
  Nbeta        = 37

  ==> Algorithm <==

  SCF Algorithm Type is DF.
  DIIS enabled.
  MOM disabled.
  Fractional occupation disabled.
  Guess Type is SAD.
  Energy threshold   = 1.00e-10
  Density threshold  = 1.00e-10
  Integral threshold = 0.00e+00

  ==> Primary Basis <==

  Basis Set: AUG-CC-PVTZ
    Blend: AUG-CC-PVTZ
    Number of shells: 191
    Number of basis function: 579
    Number of Cartesian functions: 674
    Spherical Harmonics?: true
    Max angular momentum: 3

   => Loading Basis Set <=

    Name: (AUG-CC-PVTZ AUX)
    Role: JKFIT
    Keyword: DF_BASIS_SCF
    atoms 1     entry S          line   730 file /home/xy3866/psi4conda/share/psi4/basis/aug-cc-pvtz-jkfit.gbs 
    atoms 2     entry O          line   286 file /home/xy3866/psi4conda/share/psi4/basis/aug-cc-pvtz-jkfit.gbs 
    atoms 3     entry N          line   224 file /home/xy3866/psi4conda/share/psi4/basis/aug-cc-pvtz-jkfit.gbs 
    atoms 4-9   entry C          line   162 file /home/xy3866/psi4conda/share/psi4/basis/aug-cc-pvtz-jkfit.gbs 
    atoms 10-16 entry H          line    70 file /home/xy3866/psi4conda/share/psi4/basis/aug-cc-pvtz-jkfit.gbs 

  ==> Pre-Iterations <==

   -------------------------------------------------------
    Irrep   Nso     Nmo     Nalpha   Nbeta   Ndocc  Nsocc
   -------------------------------------------------------
     A        579     579       0       0       0       0
   -------------------------------------------------------
    Total     579     579      37      37      37       0
   -------------------------------------------------------

  ==> Integral Setup <==

  DFHelper Memory: AOs need 3.135 GiB; user supplied 22.352 GiB. Using in-core AOs.

  ==> MemDFJK: Density-Fitted J/K Matrices <==

    J tasked:                   Yes
    K tasked:                   Yes
    wK tasked:                   No
    OpenMP threads:               8
    Memory [MiB]:             22888
    Algorithm:                 Disk
    Schwarz Cutoff:           1E-12
    Mask sparsity (%):       6.5314
    Fitting Condition:        1E-10

   => Auxiliary Basis Set <=

  Basis Set: (AUG-CC-PVTZ AUX)
    Blend: AUG-CC-PVTZ-JKFIT
    Number of shells: 380
    Number of basis function: 1300
    Number of Cartesian functions: 1613
    Spherical Harmonics?: true
    Max angular momentum: 4

  Minimum eigenvalue in the overlap matrix is 3.6113169486E-06.
  Using Symmetric Orthogonalization.

  SCF Guess: Superposition of Atomic Densities via on-the-fly atomic UHF.

  ==> Iterations <==

                           Total Energy        Delta E     RMS |[F,P]|

   @DF-RHF iter SAD:  -757.72727655982544   -7.57727e+02   0.00000e+00 
   @DF-RHF iter   1:  -757.97533404736248   -2.48057e-01   1.26038e-03 DIIS
   @DF-RHF iter   2:  -758.17524497258319   -1.99911e-01   7.84395e-04 DIIS
   @DF-RHF iter   3:  -758.26115823054556   -8.59133e-02   1.33884e-04 DIIS
   @DF-RHF iter   4:  -758.26597276995210   -4.81454e-03   5.93320e-05 DIIS
   @DF-RHF iter   5:  -758.26688202455773   -9.09255e-04   1.90221e-05 DIIS
   @DF-RHF iter   6:  -758.26706357083310   -1.81546e-04   9.47937e-06 DIIS
   @DF-RHF iter   7:  -758.26712467452955   -6.11037e-05   4.48420e-06 DIIS
   @DF-RHF iter   8:  -758.26713953836861   -1.48638e-05   1.51945e-06 DIIS
   @DF-RHF iter   9:  -758.26714117153142   -1.63316e-06   4.77139e-07 DIIS
   @DF-RHF iter  10:  -758.26714131622293   -1.44692e-07   1.70143e-07 DIIS
   @DF-RHF iter  11:  -758.26714133237124   -1.61483e-08   7.49229e-08 DIIS
   @DF-RHF iter  12:  -758.26714133421683   -1.84559e-09   2.87761e-08 DIIS
   @DF-RHF iter  13:  -758.26714133469500   -4.78167e-10   8.92954e-09 DIIS
   @DF-RHF iter  14:  -758.26714133474695   -5.19549e-11   3.44657e-09 DIIS
   @DF-RHF iter  15:  -758.26714133475173   -4.77485e-12   1.62029e-09 DIIS
   @DF-RHF iter  16:  -758.26714133475218   -4.54747e-13   6.19149e-10 DIIS
   @DF-RHF iter  17:  -758.26714133475332   -1.13687e-12   3.18974e-10 DIIS
   @DF-RHF iter  18:  -758.26714133475161    1.70530e-12   9.95151e-11 DIIS
  Energy and wave function converged.


  ==> Post-Iterations <==

    Orbital Energies [Eh]
    ---------------------

    Doubly Occupied:                                                      

       1A    -91.997148     2A    -20.522901     3A    -15.590354  
       4A    -11.362395     5A    -11.279141     6A    -11.277225  
       7A    -11.264290     8A    -11.261521     9A    -11.251196  
      10A     -8.997027    11A     -6.677863    12A     -6.677329  
      13A     -6.676642    14A     -1.377733    15A     -1.232888  
      16A     -1.184377    17A     -1.020019    18A     -1.001506  
      19A     -0.945695    20A     -0.832695    21A     -0.770489  
      22A     -0.769126    23A     -0.721471    24A     -0.645947  
      25A     -0.641494    26A     -0.625675    27A     -0.578759  
      28A     -0.573270    29A     -0.557937    30A     -0.552619  
      31A     -0.534421    32A     -0.511802    33A     -0.486928  
      34A     -0.436562    35A     -0.399857    36A     -0.356748  
      37A     -0.334979  

    Virtual:                                                              

      38A      0.022143    39A      0.029029    40A      0.036297  
      41A      0.043389    42A      0.045824    43A      0.053374  
      44A      0.063205    45A      0.070867    46A      0.080370  
      47A      0.084688    48A      0.091184    49A      0.097001  
      50A      0.109396    51A      0.110793    52A      0.112502  
      53A      0.114494    54A      0.120335    55A      0.122268  
      56A      0.129510    57A      0.132853    58A      0.139669  
      59A      0.142152    60A      0.143260    61A      0.146172  
      62A      0.148024    63A      0.156586    64A      0.164386  
      65A      0.173249    66A      0.179834    67A      0.181030  
      68A      0.186592    69A      0.197028    70A      0.201190  
      71A      0.211148    72A      0.213034    73A      0.219722  
      74A      0.231781    75A      0.236908    76A      0.244409  
      77A      0.249946    78A      0.251567    79A      0.258066  
      80A      0.261454    81A      0.270667    82A      0.273584  
      83A      0.281669    84A      0.287753    85A      0.293897  
      86A      0.297294    87A      0.300819    88A      0.305571  
      89A      0.307593    90A      0.315964    91A      0.324088  
      92A      0.329738    93A      0.333211    94A      0.339831  
      95A      0.347767    96A      0.351219    97A      0.356653  
      98A      0.361525    99A      0.365887   100A      0.371164  
     101A      0.377570   102A      0.391883   103A      0.395512  
     104A      0.400463   105A      0.406423   106A      0.410999  
     107A      0.416360   108A      0.416570   109A      0.423578  
     110A      0.424098   111A      0.431301   112A      0.441876  
     113A      0.447433   114A      0.450777   115A      0.452918  
     116A      0.459732   117A      0.468576   118A      0.469370  
     119A      0.469799   120A      0.479565   121A      0.484948  
     122A      0.487463   123A      0.491528   124A      0.493589  
     125A      0.498774   126A      0.509811   127A      0.515795  
     128A      0.521680   129A      0.530572   130A      0.532399  
     131A      0.533316   132A      0.540513   133A      0.546782  
     134A      0.552073   135A      0.554097   136A      0.563912  
     137A      0.568532   138A      0.571494   139A      0.579428  
     140A      0.586284   141A      0.592365   142A      0.598419  
     143A      0.607143   144A      0.616952   145A      0.624314  
     146A      0.641693   147A      0.648045   148A      0.652017  
     149A      0.668312   150A      0.675498   151A      0.677160  
     152A      0.690144   153A      0.697789   154A      0.706046  
     155A      0.721056   156A      0.726629   157A      0.731798  
     158A      0.739040   159A      0.746685   160A      0.762431  
     161A      0.767208   162A      0.777957   163A      0.784029  
     164A      0.788817   165A      0.798494   166A      0.811447  
     167A      0.815286   168A      0.828846   169A      0.831409  
     170A      0.845930   171A      0.848878   172A      0.853726  
     173A      0.855164   174A      0.870173   175A      0.878649  
     176A      0.884443   177A      0.888219   178A      0.896816  
     179A      0.899295   180A      0.909334   181A      0.912942  
     182A      0.921257   183A      0.926905   184A      0.931700  
     185A      0.937799   186A      0.942515   187A      0.945831  
     188A      0.952315   189A      0.953550   190A      0.962001  
     191A      0.967049   192A      0.972321   193A      0.978970  
     194A      0.984464   195A      0.991397   196A      1.001869  
     197A      1.006609   198A      1.013692   199A      1.019404  
     200A      1.024899   201A      1.032249   202A      1.039684  
     203A      1.050716   204A      1.053233   205A      1.062174  
     206A      1.070511   207A      1.074004   208A      1.076807  
     209A      1.085019   210A      1.088077   211A      1.096142  
     212A      1.101025   213A      1.110342   214A      1.110689  
     215A      1.123577   216A      1.125675   217A      1.131701  
     218A      1.144193   219A      1.145640   220A      1.150997  
     221A      1.158286   222A      1.168872   223A      1.181526  
     224A      1.184401   225A      1.190315   226A      1.193613  
     227A      1.199711   228A      1.201935   229A      1.208091  
     230A      1.220276   231A      1.222354   232A      1.225733  
     233A      1.238803   234A      1.245289   235A      1.254191  
     236A      1.259367   237A      1.279454   238A      1.282203  
     239A      1.291846   240A      1.305337   241A      1.313501  
     242A      1.321067   243A      1.332226   244A      1.341002  
     245A      1.355393   246A      1.360807   247A      1.377383  
     248A      1.389848   249A      1.394884   250A      1.407050  
     251A      1.415539   252A      1.421146   253A      1.433429  
     254A      1.435895   255A      1.449747   256A      1.463755  
     257A      1.476037   258A      1.485796   259A      1.493398  
     260A      1.496965   261A      1.519220   262A      1.524091  
     263A      1.524522   264A      1.539136   265A      1.560330  
     266A      1.566187   267A      1.568031   268A      1.579473  
     269A      1.584484   270A      1.599080   271A      1.601893  
     272A      1.609240   273A      1.630814   274A      1.635627  
     275A      1.658505   276A      1.662109   277A      1.677631  
     278A      1.685413   279A      1.696498   280A      1.700550  
     281A      1.716972   282A      1.726250   283A      1.734351  
     284A      1.743659   285A      1.759039   286A      1.764670  
     287A      1.779420   288A      1.800042   289A      1.812113  
     290A      1.814645   291A      1.817821   292A      1.820059  
     293A      1.829347   294A      1.851204   295A      1.864371  
     296A      1.871258   297A      1.882276   298A      1.896800  
     299A      1.908315   300A      1.912244   301A      1.918450  
     302A      1.939608   303A      1.947268   304A      1.962704  
     305A      1.977884   306A      1.985192   307A      1.994106  
     308A      1.999733   309A      2.010456   310A      2.020947  
     311A      2.026456   312A      2.036445   313A      2.053699  
     314A      2.072237   315A      2.082495   316A      2.093179  
     317A      2.101243   318A      2.110921   319A      2.135936  
     320A      2.143704   321A      2.150541   322A      2.164334  
     323A      2.178258   324A      2.192032   325A      2.206327  
     326A      2.216103   327A      2.222413   328A      2.235669  
     329A      2.248250   330A      2.263154   331A      2.285871  
     332A      2.307751   333A      2.320985   334A      2.334562  
     335A      2.346397   336A      2.350006   337A      2.364763  
     338A      2.371795   339A      2.390365   340A      2.407122  
     341A      2.428681   342A      2.430773   343A      2.433376  
     344A      2.449585   345A      2.462564   346A      2.482214  
     347A      2.485754   348A      2.516277   349A      2.525447  
     350A      2.534489   351A      2.551311   352A      2.558420  
     353A      2.578801   354A      2.582938   355A      2.607330  
     356A      2.613482   357A      2.630830   358A      2.651465  
     359A      2.672864   360A      2.678108   361A      2.689294  
     362A      2.720221   363A      2.734990   364A      2.765667  
     365A      2.780455   366A      2.795000   367A      2.820715  
     368A      2.845669   369A      2.862726   370A      2.880597  
     371A      2.908742   372A      2.950580   373A      2.963837  
     374A      2.993967   375A      3.023263   376A      3.036210  
     377A      3.055960   378A      3.062520   379A      3.078759  
     380A      3.123939   381A      3.149513   382A      3.166690  
     383A      3.186713   384A      3.229465   385A      3.239722  
     386A      3.253578   387A      3.275169   388A      3.289285  
     389A      3.319525   390A      3.332770   391A      3.355793  
     392A      3.359804   393A      3.380148   394A      3.386320  
     395A      3.410746   396A      3.417750   397A      3.427703  
     398A      3.464913   399A      3.478840   400A      3.499179  
     401A      3.502112   402A      3.524869   403A      3.542109  
     404A      3.548239   405A      3.558090   406A      3.572048  
     407A      3.573769   408A      3.592256   409A      3.631054  
     410A      3.652460   411A      3.654049   412A      3.678792  
     413A      3.680869   414A      3.700540   415A      3.716563  
     416A      3.722293   417A      3.731939   418A      3.741807  
     419A      3.768657   420A      3.786937   421A      3.793837  
     422A      3.806660   423A      3.817912   424A      3.835732  
     425A      3.842601   426A      3.868455   427A      3.871925  
     428A      3.888080   429A      3.895223   430A      3.910070  
     431A      3.924358   432A      3.927798   433A      3.930959  
     434A      3.947521   435A      3.958368   436A      3.978821  
     437A      3.998642   438A      4.003164   439A      4.009874  
     440A      4.023798   441A      4.046824   442A      4.056022  
     443A      4.064911   444A      4.092597   445A      4.100371  
     446A      4.111046   447A      4.134810   448A      4.142880  
     449A      4.160816   450A      4.166509   451A      4.187801  
     452A      4.196465   453A      4.209760   454A      4.215102  
     455A      4.231453   456A      4.243052   457A      4.276138  
     458A      4.279774   459A      4.286064   460A      4.297692  
     461A      4.314949   462A      4.321883   463A      4.340662  
     464A      4.348046   465A      4.368916   466A      4.396005  
     467A      4.408913   468A      4.429779   469A      4.453451  
     470A      4.460720   471A      4.486829   472A      4.524338  
     473A      4.536566   474A      4.562154   475A      4.588744  
     476A      4.593239   477A      4.609947   478A      4.612744  
     479A      4.636881   480A      4.672690   481A      4.683167  
     482A      4.706559   483A      4.719246   484A      4.746363  
     485A      4.771551   486A      4.788071   487A      4.798526  
     488A      4.816286   489A      4.823335   490A      4.834003  
     491A      4.855688   492A      4.883763   493A      4.905245  
     494A      4.926944   495A      4.930009   496A      4.941759  
     497A      4.951746   498A      4.988331   499A      5.009423  
     500A      5.017608   501A      5.027264   502A      5.056689  
     503A      5.086565   504A      5.091948   505A      5.103050  
     506A      5.140181   507A      5.153453   508A      5.159491  
     509A      5.175696   510A      5.198554   511A      5.204711  
     512A      5.247840   513A      5.283217   514A      5.289197  
     515A      5.320048   516A      5.370043   517A      5.402813  
     518A      5.433357   519A      5.451613   520A      5.469075  
     521A      5.493967   522A      5.509340   523A      5.579724  
     524A      5.606874   525A      5.626046   526A      5.660615  
     527A      5.679662   528A      5.685592   529A      5.727380  
     530A      5.757871   531A      5.786793   532A      5.813621  
     533A      5.834404   534A      5.877548   535A      5.910546  
     536A      5.996915   537A      6.021788   538A      6.102301  
     539A      6.129649   540A      6.146279   541A      6.186319  
     542A      6.204179   543A      6.231329   544A      6.245387  
     545A      6.336435   546A      6.392622   547A      6.495386  
     548A      6.527940   549A      6.646285   550A      6.692936  
     551A      6.725589   552A      6.748027   553A      6.759281  
     554A      6.765123   555A      6.802085   556A      6.820826  
     557A      6.890004   558A      6.912260   559A      6.998407  
     560A      7.065038   561A      7.196666   562A      7.227818  
     563A      7.430509   564A      7.443945   565A      7.596844  
     566A      7.705073   567A      7.729192   568A      7.763790  
     569A      7.916362   570A      8.018152   571A      9.195983  
     572A     15.208700   573A     16.092065   574A     16.511808  
     575A     17.204805   576A     17.746228   577A     18.396582  
     578A     18.666014   579A     20.123687  

    Final Occupation by Irrep:
              A 
    DOCC [    37 ]

  @DF-RHF Final Energy:  -758.26714133475161

   => Energetics <=

    Nuclear Repulsion Energy =            499.9901039653116186
    One-Electron Energy =               -2032.6584332705883753
    Two-Electron Energy =                 774.4011879705251431
    Total Energy =                       -758.2671413347516136

Computation Completed

*** tstop() called on node144.bme.utexas.edu at Wed Feb 10 18:44:11 2021
Module time:
	user time   =     253.58 seconds =       4.23 minutes
	system time =      32.72 seconds =       0.55 minutes
	total time  =         57 seconds =       0.95 minutes
Total time:
	user time   =     253.58 seconds =       4.23 minutes
	system time =      32.72 seconds =       0.55 minutes
	total time  =         57 seconds =       0.95 minutes
   => Loading Basis Set <=

    Name: (AUG-CC-PVTZ AUX)
    Role: RIFIT
    Keyword: DF_BASIS_MP2
    atoms 1     entry S          line   666 file /home/xy3866/psi4conda/share/psi4/basis/aug-cc-pvtz-ri.gbs 
    atoms 2     entry O          line   264 file /home/xy3866/psi4conda/share/psi4/basis/aug-cc-pvtz-ri.gbs 
    atoms 3     entry N          line   206 file /home/xy3866/psi4conda/share/psi4/basis/aug-cc-pvtz-ri.gbs 
    atoms 4-9   entry C          line   148 file /home/xy3866/psi4conda/share/psi4/basis/aug-cc-pvtz-ri.gbs 
    atoms 10-16 entry H          line    30 file /home/xy3866/psi4conda/share/psi4/basis/aug-cc-pvtz-ri.gbs 


*** tstart() called on node144.bme.utexas.edu
*** at Wed Feb 10 18:44:11 2021


  //>>>>>>>>>>>>>>>>>>>>>>>>>>>>>>>>>>>//
  //               DFMP2               //
  //<<<<<<<<<<<<<<<<<<<<<<<<<<<<<<<<<<<//

	 --------------------------------------------------------
	                          DF-MP2                         
	      2nd-Order Density-Fitted Moller-Plesset Theory     
	              RMP2 Wavefunction,   8 Threads             
	                                                         
	        Rob Parrish, Justin Turney, Andy Simmonett,      
	           Ed Hohenstein, and C. David Sherrill          
	 --------------------------------------------------------

   => Auxiliary Basis Set <=

  Basis Set: (AUG-CC-PVTZ AUX)
    Blend: AUG-CC-PVTZ-RI
    Number of shells: 359
    Number of basis function: 1317
    Number of Cartesian functions: 1664
    Spherical Harmonics?: true
    Max angular momentum: 4

	 --------------------------------------------------------
	                 NBF =   579, NAUX =  1317
	 --------------------------------------------------------
	   CLASS    FOCC     OCC    AOCC    AVIR     VIR    FVIR
	   PAIRS       0      37      37     542     542       0
	 --------------------------------------------------------

  DFHelper Memory: AOs need 3.135 GiB; user supplied 22.352 GiB. Using in-core AOs.


         ------------------------------------------------------------
                                     CPHF                           
                                  Rob Parrish                       
         ------------------------------------------------------------

  ==> Geometry <==

    Molecular point group: c1
    Full point group: C1

    Geometry (in Angstrom), charge = 0, multiplicity = 1:

       Center              X                  Y                   Z               Mass       
    ------------   -----------------  -----------------  -----------------  -----------------
         S           -1.424168485097    -1.061165341974     0.151921160387    31.972071174400
         O            1.529999514903    -1.414072341974    -0.346597839613    15.994914619570
         N            2.092690514903     0.758961658026     0.102186160387    14.003074004430
         C           -0.230320485097     0.151800258026    -0.001976339613    12.000000000000
         C            1.191891514903    -0.249413341974    -0.107596839613    12.000000000000
         C           -0.805355485097     1.415216658026    -0.181062839613    12.000000000000
         C           -2.216058485097     1.374811658026    -0.092369839613    12.000000000000
         C           -2.690326485097     0.092770658026     0.093502160387    12.000000000000
         C            3.511630514903     0.450261658026     0.165345160387    12.000000000000
         H           -0.233835485097     2.318847658026    -0.371857839613     1.007825032230
         H            1.762050514903     1.586579658026     0.580552160387     1.007825032230
         H           -2.860682485097     2.244017658026    -0.172862839613     1.007825032230
         H           -3.720364485097    -0.225895341974     0.196520160387     1.007825032230
         H            3.757252514903    -0.216628341974    -0.660433839613     1.007825032230
         H            3.785640514903    -0.046905341974     1.102228160387     1.007825032230
         H            4.078312514903     1.377369658026     0.065616160387     1.007825032230

  Nuclear repulsion =  499.990103965311619
  Reference energy  = -758.267141334751614

  ==> Basis Set <==

  Basis Set: AUG-CC-PVTZ
    Blend: AUG-CC-PVTZ
    Number of shells: 191
    Number of basis function: 579
    Number of Cartesian functions: 674
    Spherical Harmonics?: true
    Max angular momentum: 3

  ==> CGRSolver (by Rob Parrish) <==

   Number of roots    =         1
   Preconditioning    =    JACOBI
   Convergence cutoff =     1E-06
   Maximum iterations =       100

  ==> CPHFRHamiltonian (by Rob Parrish) <== 

  ==> MemDFJK: Density-Fitted J/K Matrices <==

    J tasked:                   Yes
    K tasked:                   Yes
    wK tasked:                   No
    OpenMP threads:               8
    Memory [MiB]:             22888
    Algorithm:                 Disk
    Schwarz Cutoff:           1E-12
    Mask sparsity (%):       6.5314
    Fitting Condition:        1E-10

   => Auxiliary Basis Set <=

  Basis Set: (AUG-CC-PVTZ AUX)
    Blend: AUG-CC-PVTZ-JKFIT
    Number of shells: 380
    Number of basis function: 1300
    Number of Cartesian functions: 1613
    Spherical Harmonics?: true
    Max angular momentum: 4

  ==> CPHF Iterations <==

  => Iterations <=

             Iter  Converged  Remaining    Residual
  CGR           1          0          1   1.329E-01
  CGR           2          0          1   4.521E-02
  CGR           3          0          1   2.484E-02
  CGR           4          0          1   8.723E-03
  CGR           5          0          1   3.754E-03
  CGR           6          0          1   1.533E-03
  CGR           7          0          1   5.895E-04
  CGR           8          0          1   2.305E-04
  CGR           9          0          1   9.956E-05
  CGR          10          0          1   4.603E-05
  CGR          11          0          1   1.643E-05
  CGR          12          0          1   5.392E-06
  CGR          13          0          1   1.943E-06
  CGR          14          1          0   6.710E-07

    CGRSolver converged.

	-----------------------------------------------------------
	 ==================> DF-MP2 Energies <==================== 
	-----------------------------------------------------------
	 Reference Energy          =    -758.2671413347516136 [Eh]
	 Singles Energy            =      -0.0000000000000000 [Eh]
	 Same-Spin Energy          =      -0.4438010208984370 [Eh]
	 Opposite-Spin Energy      =      -1.3480503206868917 [Eh]
	 Correlation Energy        =      -1.7918513415853288 [Eh]
	 Total Energy              =    -760.0589926763369704 [Eh]
	-----------------------------------------------------------
	 ================> DF-SCS-MP2 Energies <================== 
	-----------------------------------------------------------
	 SCS Same-Spin Scale       =       0.3333333333333333 [-]
	 SCS Opposite-Spin Scale   =       1.2000000000000000 [-]
	 SCS Same-Spin Energy      =      -0.1479336736328123 [Eh]
	 SCS Opposite-Spin Energy  =      -1.6176603848242699 [Eh]
	 SCS Correlation Energy    =      -1.7655940584570822 [Eh]
	 SCS Total Energy          =    -760.0327353932086680 [Eh]
	-----------------------------------------------------------



Properties will be evaluated at   0.000000,   0.000000,   0.000000 [a0]

Properties computed using the MP2 density matrix

  Nuclear Dipole Moment: [e a0]
     X:     6.1213      Y:     6.5603      Z:     0.6956

  Electronic Dipole Moment: [e a0]
     X:    -6.2622      Y:    -5.1460      Z:    -0.2804

  Dipole Moment: [e a0]
     X:    -0.1409      Y:     1.4143      Z:     0.4151     Total:     1.4807

  Dipole Moment: [D]
     X:    -0.3581      Y:     3.5949      Z:     1.0552     Total:     3.7636


*** tstop() called on node144.bme.utexas.edu at Wed Feb 10 18:46:15 2021
Module time:
	user time   =     727.69 seconds =      12.13 minutes
	system time =      37.78 seconds =       0.63 minutes
	total time  =        124 seconds =       2.07 minutes
Total time:
	user time   =     981.42 seconds =      16.36 minutes
	system time =      70.50 seconds =       1.18 minutes
	total time  =        181 seconds =       3.02 minutes

    Psi4 stopped on: Wednesday, 10 February 2021 06:46PM
    Psi4 wall time for execution: 0:03:00.88

*** Psi4 exiting successfully. Buy a developer a beer!
