
    -----------------------------------------------------------------------
          Psi4: An Open-Source Ab Initio Electronic Structure Package
                               Psi4 1.3.2 release

                         Git: Rev {HEAD} ecbda83 


    R. M. Parrish, L. A. Burns, D. G. A. Smith, A. C. Simmonett,
    A. E. DePrince III, E. G. Hohenstein, U. Bozkaya, A. Yu. Sokolov,
    R. Di Remigio, R. M. Richard, J. F. Gonthier, A. M. James,
    H. R. McAlexander, A. Kumar, M. Saitow, X. Wang, B. P. Pritchard,
    P. Verma, H. F. Schaefer III, K. Patkowski, R. A. King, E. F. Valeev,
    F. A. Evangelista, J. M. Turney, T. D. Crawford, and C. D. Sherrill,
    J. Chem. Theory Comput. 13(7) pp 3185--3197 (2017).
    (doi: 10.1021/acs.jctc.7b00174)


                         Additional Contributions by
    P. Kraus, H. Kruse, M. H. Lechner, M. C. Schieber, R. A. Shaw,
    A. Alenaizan, R. Galvelis, Z. L. Glick, S. Lehtola, and J. P. Misiewicz

    -----------------------------------------------------------------------


    Psi4 started on: Wednesday, 10 February 2021 06:24PM

    Process ID: 7889
    Host:       node144.bme.utexas.edu
    PSIDATADIR: /home/xy3866/psi4conda/share/psi4
    Memory:     500.0 MiB
    Threads:    8
    
  ==> Input File <==

--------------------------------------------------------------------------
#psi4
#
memory 32 gb

molecule  {
0 1
  S       -1.4679970    -1.1088850     0.1509200
  O        1.4861710    -1.4617920    -0.3475990
  N        2.0488620     0.7112420     0.1011850
  C       -0.2734750     0.1140250    -0.0519740
  C        1.1480630    -0.2971330    -0.1085980
  C       -0.8460962     1.3733888    -0.1325085
  C       -2.2598870     1.3270920    -0.0933710
  C       -2.7341550     0.0450510     0.0925010
  C        3.4678020     0.4025420     0.1643440
  H       -0.2776640     2.2711280    -0.3728590
  H        1.7182220     1.5388600     0.5795510
  H       -2.9045110     2.1962980    -0.1738640
  H       -3.7641930    -0.2736150     0.1955190
  H        3.7134240    -0.2643480    -0.6614350
  H        3.7418120    -0.0946250     1.1012270
  H        4.0344840     1.3296500     0.0646150
units angstrom
no_reorient  #important for SAPT in psi4, default
symmetry c1  #important for SAPT in psi4, default
}

set PROPERTIES_ORIGIN ["COM"]
properties('MP2/aug-cc-pvtz', properties = ['dipole'])
--------------------------------------------------------------------------

  Memory set to  29.802 GiB by Python driver.
    SCF Algorithm Type (re)set to DF.

*** tstart() called on node144.bme.utexas.edu
*** at Wed Feb 10 18:24:43 2021

   => Loading Basis Set <=

    Name: AUG-CC-PVTZ
    Role: ORBITAL
    Keyword: BASIS
    atoms 1     entry S          line   902 file /home/xy3866/psi4conda/share/psi4/basis/aug-cc-pvtz.gbs 
    atoms 2     entry O          line   327 file /home/xy3866/psi4conda/share/psi4/basis/aug-cc-pvtz.gbs 
    atoms 3     entry N          line   281 file /home/xy3866/psi4conda/share/psi4/basis/aug-cc-pvtz.gbs 
    atoms 4-9   entry C          line   235 file /home/xy3866/psi4conda/share/psi4/basis/aug-cc-pvtz.gbs 
    atoms 10-16 entry H          line    36 file /home/xy3866/psi4conda/share/psi4/basis/aug-cc-pvtz.gbs 


         ---------------------------------------------------------
                                   SCF
               by Justin Turney, Rob Parrish, Andy Simmonett
                          and Daniel G. A. Smith
                              RHF Reference
                        8 Threads,  30517 MiB Core
         ---------------------------------------------------------

  ==> Geometry <==

    Molecular point group: c1
    Full point group: C1

    Geometry (in Angstrom), charge = 0, multiplicity = 1:

       Center              X                  Y                   Z               Mass       
    ------------   -----------------  -----------------  -----------------  -----------------
         S           -1.424488581909    -1.062512866330     0.151873594297    31.972071174400
         O            1.529679418091    -1.415419866330    -0.346645405703    15.994914619570
         N            2.092370418091     0.757614133670     0.102138594297    14.003074004430
         C           -0.229966581909     0.160397133670    -0.051020405703    12.000000000000
         C            1.191571418091    -0.250760866330    -0.107644405703    12.000000000000
         C           -0.802587781909     1.419760933670    -0.131554905703    12.000000000000
         C           -2.216378581909     1.373464133670    -0.092417405703    12.000000000000
         C           -2.690646581909     0.091423133670     0.093454594297    12.000000000000
         C            3.511310418091     0.448914133670     0.165297594297    12.000000000000
         H           -0.234155581909     2.317500133670    -0.371905405703     1.007825032230
         H            1.761730418091     1.585232133670     0.580504594297     1.007825032230
         H           -2.861002581909     2.242670133670    -0.172910405703     1.007825032230
         H           -3.720684581909    -0.227242866330     0.196472594297     1.007825032230
         H            3.756932418091    -0.217975866330    -0.660481405703     1.007825032230
         H            3.785320418091    -0.048252866330     1.102180594297     1.007825032230
         H            4.077992418091     1.376022133670     0.065568594297     1.007825032230

  Running in c1 symmetry.

  Rotational constants: A =      0.11427  B =      0.03013  C =      0.02425 [cm^-1]
  Rotational constants: A =   3425.80062  B =    903.22647  C =    726.92088 [MHz]
  Nuclear repulsion =  499.929553635413413

  Charge       = 0
  Multiplicity = 1
  Electrons    = 74
  Nalpha       = 37
  Nbeta        = 37

  ==> Algorithm <==

  SCF Algorithm Type is DF.
  DIIS enabled.
  MOM disabled.
  Fractional occupation disabled.
  Guess Type is SAD.
  Energy threshold   = 1.00e-10
  Density threshold  = 1.00e-10
  Integral threshold = 0.00e+00

  ==> Primary Basis <==

  Basis Set: AUG-CC-PVTZ
    Blend: AUG-CC-PVTZ
    Number of shells: 191
    Number of basis function: 579
    Number of Cartesian functions: 674
    Spherical Harmonics?: true
    Max angular momentum: 3

   => Loading Basis Set <=

    Name: (AUG-CC-PVTZ AUX)
    Role: JKFIT
    Keyword: DF_BASIS_SCF
    atoms 1     entry S          line   730 file /home/xy3866/psi4conda/share/psi4/basis/aug-cc-pvtz-jkfit.gbs 
    atoms 2     entry O          line   286 file /home/xy3866/psi4conda/share/psi4/basis/aug-cc-pvtz-jkfit.gbs 
    atoms 3     entry N          line   224 file /home/xy3866/psi4conda/share/psi4/basis/aug-cc-pvtz-jkfit.gbs 
    atoms 4-9   entry C          line   162 file /home/xy3866/psi4conda/share/psi4/basis/aug-cc-pvtz-jkfit.gbs 
    atoms 10-16 entry H          line    70 file /home/xy3866/psi4conda/share/psi4/basis/aug-cc-pvtz-jkfit.gbs 

  ==> Pre-Iterations <==

   -------------------------------------------------------
    Irrep   Nso     Nmo     Nalpha   Nbeta   Ndocc  Nsocc
   -------------------------------------------------------
     A        579     579       0       0       0       0
   -------------------------------------------------------
    Total     579     579      37      37      37       0
   -------------------------------------------------------

  ==> Integral Setup <==

  DFHelper Memory: AOs need 3.135 GiB; user supplied 22.352 GiB. Using in-core AOs.

  ==> MemDFJK: Density-Fitted J/K Matrices <==

    J tasked:                   Yes
    K tasked:                   Yes
    wK tasked:                   No
    OpenMP threads:               8
    Memory [MiB]:             22888
    Algorithm:                 Disk
    Schwarz Cutoff:           1E-12
    Mask sparsity (%):       6.5332
    Fitting Condition:        1E-10

   => Auxiliary Basis Set <=

  Basis Set: (AUG-CC-PVTZ AUX)
    Blend: AUG-CC-PVTZ-JKFIT
    Number of shells: 380
    Number of basis function: 1300
    Number of Cartesian functions: 1613
    Spherical Harmonics?: true
    Max angular momentum: 4

  Minimum eigenvalue in the overlap matrix is 3.6180816503E-06.
  Using Symmetric Orthogonalization.

  SCF Guess: Superposition of Atomic Densities via on-the-fly atomic UHF.

  ==> Iterations <==

                           Total Energy        Delta E     RMS |[F,P]|

   @DF-RHF iter SAD:  -757.72679926230524   -7.57727e+02   0.00000e+00 
   @DF-RHF iter   1:  -757.97487653353573   -2.48077e-01   1.26272e-03 DIIS
   @DF-RHF iter   2:  -758.17545467896434   -2.00578e-01   7.85573e-04 DIIS
   @DF-RHF iter   3:  -758.26180041780674   -8.63457e-02   1.33253e-04 DIIS
   @DF-RHF iter   4:  -758.26664245212055   -4.84203e-03   5.85064e-05 DIIS
   @DF-RHF iter   5:  -758.26754532812481   -9.02876e-04   1.91017e-05 DIIS
   @DF-RHF iter   6:  -758.26773103099538   -1.85703e-04   9.56254e-06 DIIS
   @DF-RHF iter   7:  -758.26779383576263   -6.28048e-05   4.50418e-06 DIIS
   @DF-RHF iter   8:  -758.26780879739181   -1.49616e-05   1.51600e-06 DIIS
   @DF-RHF iter   9:  -758.26781038753586   -1.59014e-06   4.64964e-07 DIIS
   @DF-RHF iter  10:  -758.26781052387901   -1.36343e-07   1.66203e-07 DIIS
   @DF-RHF iter  11:  -758.26781053857167   -1.46927e-08   6.93668e-08 DIIS
   @DF-RHF iter  12:  -758.26781054015646   -1.58479e-09   2.87166e-08 DIIS
   @DF-RHF iter  13:  -758.26781054057722   -4.20755e-10   7.82731e-09 DIIS
   @DF-RHF iter  14:  -758.26781054061269   -3.54703e-11   3.17725e-09 DIIS
   @DF-RHF iter  15:  -758.26781054062008   -7.38964e-12   1.36703e-09 DIIS
   @DF-RHF iter  16:  -758.26781054062110   -1.02318e-12   5.71207e-10 DIIS
   @DF-RHF iter  17:  -758.26781054062360   -2.50111e-12   2.66058e-10 DIIS
   @DF-RHF iter  18:  -758.26781054062201    1.59162e-12   8.42592e-11 DIIS
  Energy and wave function converged.


  ==> Post-Iterations <==

    Orbital Energies [Eh]
    ---------------------

    Doubly Occupied:                                                      

       1A    -91.996431     2A    -20.523489     3A    -15.590702  
       4A    -11.362735     5A    -11.279209     6A    -11.277327  
       7A    -11.262969     8A    -11.261661     9A    -11.251142  
      10A     -8.996158    11A     -6.676990    12A     -6.676437  
      13A     -6.675766    14A     -1.378177    15A     -1.233280  
      16A     -1.184235    17A     -1.020626    18A     -1.000823  
      19A     -0.946172    20A     -0.833136    21A     -0.770988  
      22A     -0.769240    23A     -0.721320    24A     -0.646095  
      25A     -0.641754    26A     -0.626119    27A     -0.579375  
      28A     -0.573125    29A     -0.557265    30A     -0.552764  
      31A     -0.533354    32A     -0.511635    33A     -0.486241  
      34A     -0.436744    35A     -0.400352    36A     -0.357190  
      37A     -0.336016  

    Virtual:                                                              

      38A      0.022128    39A      0.029025    40A      0.036291  
      41A      0.043168    42A      0.045790    43A      0.053352  
      44A      0.062837    45A      0.071978    46A      0.079858  
      47A      0.083654    48A      0.092674    49A      0.096921  
      50A      0.109188    51A      0.110906    52A      0.112432  
      53A      0.114746    54A      0.119989    55A      0.121415  
      56A      0.128795    57A      0.132600    58A      0.140756  
      59A      0.141408    60A      0.144475    61A      0.146352  
      62A      0.148019    63A      0.156749    64A      0.164673  
      65A      0.172639    66A      0.178814    67A      0.181612  
      68A      0.185810    69A      0.197682    70A      0.201356  
      71A      0.211428    72A      0.212811    73A      0.220859  
      74A      0.232909    75A      0.235948    76A      0.244882  
      77A      0.249359    78A      0.251032    79A      0.259004  
      80A      0.262100    81A      0.269371    82A      0.274463  
      83A      0.281347    84A      0.288770    85A      0.294300  
      86A      0.297227    87A      0.300141    88A      0.304919  
      89A      0.306899    90A      0.315360    91A      0.323289  
      92A      0.329021    93A      0.335250    94A      0.340361  
      95A      0.348670    96A      0.350433    97A      0.355358  
      98A      0.362675    99A      0.363720   100A      0.369076  
     101A      0.378112   102A      0.392751   103A      0.396511  
     104A      0.398594   105A      0.405530   106A      0.411889  
     107A      0.413119   108A      0.418348   109A      0.422930  
     110A      0.424271   111A      0.431346   112A      0.438758  
     113A      0.448082   114A      0.449975   115A      0.455676  
     116A      0.460536   117A      0.465319   118A      0.468229  
     119A      0.474955   120A      0.481101   121A      0.485826  
     122A      0.488530   123A      0.490487   124A      0.494001  
     125A      0.500088   126A      0.508867   127A      0.514985  
     128A      0.520302   129A      0.527274   130A      0.532455  
     131A      0.534054   132A      0.540543   133A      0.546555  
     134A      0.550558   135A      0.557760   136A      0.561611  
     137A      0.571106   138A      0.573937   139A      0.579775  
     140A      0.585708   141A      0.593301   142A      0.599443  
     143A      0.608819   144A      0.614798   145A      0.623983  
     146A      0.642534   147A      0.644313   148A      0.655470  
     149A      0.666118   150A      0.674946   151A      0.678876  
     152A      0.685129   153A      0.692199   154A      0.703487  
     155A      0.720859   156A      0.725814   157A      0.729899  
     158A      0.747660   159A      0.757884   160A      0.761716  
     161A      0.766234   162A      0.779760   163A      0.786107  
     164A      0.791926   165A      0.802073   166A      0.809225  
     167A      0.815136   168A      0.825937   169A      0.834372  
     170A      0.841660   171A      0.849276   172A      0.858402  
     173A      0.865841   174A      0.874707   175A      0.878882  
     176A      0.883410   177A      0.892787   178A      0.896307  
     179A      0.901447   180A      0.908184   181A      0.914592  
     182A      0.918021   183A      0.925184   184A      0.930985  
     185A      0.934689   186A      0.941759   187A      0.944630  
     188A      0.947615   189A      0.954089   190A      0.960878  
     191A      0.968967   192A      0.972359   193A      0.979719  
     194A      0.985444   195A      0.993265   196A      0.998107  
     197A      1.006735   198A      1.013014   199A      1.019376  
     200A      1.029103   201A      1.032583   202A      1.037822  
     203A      1.049127   204A      1.052018   205A      1.060687  
     206A      1.070938   207A      1.074418   208A      1.076469  
     209A      1.085769   210A      1.088269   211A      1.096912  
     212A      1.098293   213A      1.104803   214A      1.114339  
     215A      1.119826   216A      1.125740   217A      1.133339  
     218A      1.143725   219A      1.144972   220A      1.150865  
     221A      1.156464   222A      1.171557   223A      1.179306  
     224A      1.182717   225A      1.189430   226A      1.192991  
     227A      1.198152   228A      1.203689   229A      1.211181  
     230A      1.215828   231A      1.225419   232A      1.228120  
     233A      1.237276   234A      1.243336   235A      1.250238  
     236A      1.261702   237A      1.278899   238A      1.283075  
     239A      1.296131   240A      1.303005   241A      1.313171  
     242A      1.323446   243A      1.326543   244A      1.339356  
     245A      1.353425   246A      1.356854   247A      1.375790  
     248A      1.391557   249A      1.400690   250A      1.405950  
     251A      1.418707   252A      1.421167   253A      1.432175  
     254A      1.436760   255A      1.446731   256A      1.464460  
     257A      1.476779   258A      1.481372   259A      1.489711  
     260A      1.498623   261A      1.518919   262A      1.520420  
     263A      1.526638   264A      1.543919   265A      1.559111  
     266A      1.565949   267A      1.571318   268A      1.578473  
     269A      1.585039   270A      1.599795   271A      1.603292  
     272A      1.610953   273A      1.631155   274A      1.637451  
     275A      1.658515   276A      1.661899   277A      1.674378  
     278A      1.688987   279A      1.691536   280A      1.706766  
     281A      1.717004   282A      1.724503   283A      1.737848  
     284A      1.745651   285A      1.755305   286A      1.767345  
     287A      1.783702   288A      1.792135   289A      1.808951  
     290A      1.813093   291A      1.817376   292A      1.826253  
     293A      1.833538   294A      1.850706   295A      1.859346  
     296A      1.871464   297A      1.883529   298A      1.899545  
     299A      1.913926   300A      1.915525   301A      1.925827  
     302A      1.938164   303A      1.951381   304A      1.960600  
     305A      1.977445   306A      1.989566   307A      1.992831  
     308A      1.996414   309A      2.012635   310A      2.021241  
     311A      2.030266   312A      2.035286   313A      2.053237  
     314A      2.068300   315A      2.083563   316A      2.094330  
     317A      2.104550   318A      2.109659   319A      2.140156  
     320A      2.148261   321A      2.153972   322A      2.165450  
     323A      2.166462   324A      2.195344   325A      2.211425  
     326A      2.216265   327A      2.223322   328A      2.237371  
     329A      2.250757   330A      2.263283   331A      2.290974  
     332A      2.299692   333A      2.314623   334A      2.345366  
     335A      2.349953   336A      2.354322   337A      2.367703  
     338A      2.374336   339A      2.385527   340A      2.407457  
     341A      2.428612   342A      2.431332   343A      2.441677  
     344A      2.444078   345A      2.467732   346A      2.477745  
     347A      2.487711   348A      2.515654   349A      2.519439  
     350A      2.541563   351A      2.553883   352A      2.564034  
     353A      2.576439   354A      2.581261   355A      2.603297  
     356A      2.615973   357A      2.632747   358A      2.653099  
     359A      2.669430   360A      2.682842   361A      2.686052  
     362A      2.718552   363A      2.727599   364A      2.752186  
     365A      2.792093   366A      2.799079   367A      2.815335  
     368A      2.843440   369A      2.863823   370A      2.879594  
     371A      2.903407   372A      2.941277   373A      2.956420  
     374A      2.990025   375A      3.020771   376A      3.039232  
     377A      3.046764   378A      3.061668   379A      3.079143  
     380A      3.120312   381A      3.155462   382A      3.168837  
     383A      3.178253   384A      3.229884   385A      3.240126  
     386A      3.252145   387A      3.279195   388A      3.298525  
     389A      3.316097   390A      3.336839   391A      3.356071  
     392A      3.364241   393A      3.380022   394A      3.389776  
     395A      3.408371   396A      3.419435   397A      3.430405  
     398A      3.467602   399A      3.481777   400A      3.489244  
     401A      3.505928   402A      3.519684   403A      3.546634  
     404A      3.549134   405A      3.557617   406A      3.572565  
     407A      3.585084   408A      3.600224   409A      3.625724  
     410A      3.645614   411A      3.651266   412A      3.667839  
     413A      3.683800   414A      3.706960   415A      3.713606  
     416A      3.729547   417A      3.736096   418A      3.741797  
     419A      3.760570   420A      3.781344   421A      3.794918  
     422A      3.809745   423A      3.817398   424A      3.838034  
     425A      3.851760   426A      3.865673   427A      3.874806  
     428A      3.882146   429A      3.901981   430A      3.914969  
     431A      3.920738   432A      3.929832   433A      3.931466  
     434A      3.953114   435A      3.961557   436A      3.978667  
     437A      3.993165   438A      4.004464   439A      4.012254  
     440A      4.035726   441A      4.045968   442A      4.060743  
     443A      4.066946   444A      4.092747   445A      4.097747  
     446A      4.115649   447A      4.131467   448A      4.147918  
     449A      4.156916   450A      4.163406   451A      4.188272  
     452A      4.196058   453A      4.215051   454A      4.217121  
     455A      4.231421   456A      4.238692   457A      4.261265  
     458A      4.277716   459A      4.285806   460A      4.311289  
     461A      4.323008   462A      4.327602   463A      4.335098  
     464A      4.352953   465A      4.377405   466A      4.395159  
     467A      4.415205   468A      4.421465   469A      4.457368  
     470A      4.465191   471A      4.480081   472A      4.529400  
     473A      4.534073   474A      4.553104   475A      4.588320  
     476A      4.594667   477A      4.612574   478A      4.621848  
     479A      4.643499   480A      4.670057   481A      4.682249  
     482A      4.711744   483A      4.714852   484A      4.756753  
     485A      4.774255   486A      4.786589   487A      4.811411  
     488A      4.817194   489A      4.826191   490A      4.837958  
     491A      4.855926   492A      4.886097   493A      4.906276  
     494A      4.918179   495A      4.933969   496A      4.950324  
     497A      4.960216   498A      4.984879   499A      4.999840  
     500A      5.015161   501A      5.048115   502A      5.057118  
     503A      5.081046   504A      5.089458   505A      5.102687  
     506A      5.140274   507A      5.155861   508A      5.160119  
     509A      5.173844   510A      5.203989   511A      5.212401  
     512A      5.256066   513A      5.284012   514A      5.294829  
     515A      5.318892   516A      5.377328   517A      5.405824  
     518A      5.437509   519A      5.454378   520A      5.482233  
     521A      5.492212   522A      5.509291   523A      5.582276  
     524A      5.601106   525A      5.625375   526A      5.657923  
     527A      5.680510   528A      5.691599   529A      5.727462  
     530A      5.754468   531A      5.791362   532A      5.814179  
     533A      5.832658   534A      5.882834   535A      5.912342  
     536A      5.997270   537A      6.011404   538A      6.102578  
     539A      6.125304   540A      6.148209   541A      6.193241  
     542A      6.206234   543A      6.227156   544A      6.240392  
     545A      6.338304   546A      6.388515   547A      6.500507  
     548A      6.542051   549A      6.638271   550A      6.691822  
     551A      6.719682   552A      6.743917   553A      6.760260  
     554A      6.763573   555A      6.799965   556A      6.823826  
     557A      6.891135   558A      6.914974   559A      7.003422  
     560A      7.057528   561A      7.197436   562A      7.223406  
     563A      7.426564   564A      7.445303   565A      7.599263  
     566A      7.706866   567A      7.728321   568A      7.769018  
     569A      7.913897   570A      8.016201   571A      9.126786  
     572A     15.238651   573A     16.170690   574A     16.556823  
     575A     17.312200   576A     17.738153   577A     18.429496  
     578A     18.731795   579A     20.129086  

    Final Occupation by Irrep:
              A 
    DOCC [    37 ]

  @DF-RHF Final Energy:  -758.26781054062201

   => Energetics <=

    Nuclear Repulsion Energy =            499.9295536354134128
    One-Electron Energy =               -2032.5406498262273089
    Two-Electron Energy =                 774.3432856501918877
    Total Energy =                       -758.2678105406220084

Computation Completed

*** tstop() called on node144.bme.utexas.edu at Wed Feb 10 18:25:42 2021
Module time:
	user time   =     257.46 seconds =       4.29 minutes
	system time =      34.32 seconds =       0.57 minutes
	total time  =         59 seconds =       0.98 minutes
Total time:
	user time   =     257.46 seconds =       4.29 minutes
	system time =      34.32 seconds =       0.57 minutes
	total time  =         59 seconds =       0.98 minutes
   => Loading Basis Set <=

    Name: (AUG-CC-PVTZ AUX)
    Role: RIFIT
    Keyword: DF_BASIS_MP2
    atoms 1     entry S          line   666 file /home/xy3866/psi4conda/share/psi4/basis/aug-cc-pvtz-ri.gbs 
    atoms 2     entry O          line   264 file /home/xy3866/psi4conda/share/psi4/basis/aug-cc-pvtz-ri.gbs 
    atoms 3     entry N          line   206 file /home/xy3866/psi4conda/share/psi4/basis/aug-cc-pvtz-ri.gbs 
    atoms 4-9   entry C          line   148 file /home/xy3866/psi4conda/share/psi4/basis/aug-cc-pvtz-ri.gbs 
    atoms 10-16 entry H          line    30 file /home/xy3866/psi4conda/share/psi4/basis/aug-cc-pvtz-ri.gbs 


*** tstart() called on node144.bme.utexas.edu
*** at Wed Feb 10 18:25:42 2021


  //>>>>>>>>>>>>>>>>>>>>>>>>>>>>>>>>>>>//
  //               DFMP2               //
  //<<<<<<<<<<<<<<<<<<<<<<<<<<<<<<<<<<<//

	 --------------------------------------------------------
	                          DF-MP2                         
	      2nd-Order Density-Fitted Moller-Plesset Theory     
	              RMP2 Wavefunction,   8 Threads             
	                                                         
	        Rob Parrish, Justin Turney, Andy Simmonett,      
	           Ed Hohenstein, and C. David Sherrill          
	 --------------------------------------------------------

   => Auxiliary Basis Set <=

  Basis Set: (AUG-CC-PVTZ AUX)
    Blend: AUG-CC-PVTZ-RI
    Number of shells: 359
    Number of basis function: 1317
    Number of Cartesian functions: 1664
    Spherical Harmonics?: true
    Max angular momentum: 4

	 --------------------------------------------------------
	                 NBF =   579, NAUX =  1317
	 --------------------------------------------------------
	   CLASS    FOCC     OCC    AOCC    AVIR     VIR    FVIR
	   PAIRS       0      37      37     542     542       0
	 --------------------------------------------------------

  DFHelper Memory: AOs need 3.135 GiB; user supplied 22.352 GiB. Using in-core AOs.


         ------------------------------------------------------------
                                     CPHF                           
                                  Rob Parrish                       
         ------------------------------------------------------------

  ==> Geometry <==

    Molecular point group: c1
    Full point group: C1

    Geometry (in Angstrom), charge = 0, multiplicity = 1:

       Center              X                  Y                   Z               Mass       
    ------------   -----------------  -----------------  -----------------  -----------------
         S           -1.424488581909    -1.062512866330     0.151873594297    31.972071174400
         O            1.529679418091    -1.415419866330    -0.346645405703    15.994914619570
         N            2.092370418091     0.757614133670     0.102138594297    14.003074004430
         C           -0.229966581909     0.160397133670    -0.051020405703    12.000000000000
         C            1.191571418091    -0.250760866330    -0.107644405703    12.000000000000
         C           -0.802587781909     1.419760933670    -0.131554905703    12.000000000000
         C           -2.216378581909     1.373464133670    -0.092417405703    12.000000000000
         C           -2.690646581909     0.091423133670     0.093454594297    12.000000000000
         C            3.511310418091     0.448914133670     0.165297594297    12.000000000000
         H           -0.234155581909     2.317500133670    -0.371905405703     1.007825032230
         H            1.761730418091     1.585232133670     0.580504594297     1.007825032230
         H           -2.861002581909     2.242670133670    -0.172910405703     1.007825032230
         H           -3.720684581909    -0.227242866330     0.196472594297     1.007825032230
         H            3.756932418091    -0.217975866330    -0.660481405703     1.007825032230
         H            3.785320418091    -0.048252866330     1.102180594297     1.007825032230
         H            4.077992418091     1.376022133670     0.065568594297     1.007825032230

  Nuclear repulsion =  499.929553635413413
  Reference energy  = -758.267810540622008

  ==> Basis Set <==

  Basis Set: AUG-CC-PVTZ
    Blend: AUG-CC-PVTZ
    Number of shells: 191
    Number of basis function: 579
    Number of Cartesian functions: 674
    Spherical Harmonics?: true
    Max angular momentum: 3

  ==> CGRSolver (by Rob Parrish) <==

   Number of roots    =         1
   Preconditioning    =    JACOBI
   Convergence cutoff =     1E-06
   Maximum iterations =       100

  ==> CPHFRHamiltonian (by Rob Parrish) <== 

  ==> MemDFJK: Density-Fitted J/K Matrices <==

    J tasked:                   Yes
    K tasked:                   Yes
    wK tasked:                   No
    OpenMP threads:               8
    Memory [MiB]:             22888
    Algorithm:                 Disk
    Schwarz Cutoff:           1E-12
    Mask sparsity (%):       6.5332
    Fitting Condition:        1E-10

   => Auxiliary Basis Set <=

  Basis Set: (AUG-CC-PVTZ AUX)
    Blend: AUG-CC-PVTZ-JKFIT
    Number of shells: 380
    Number of basis function: 1300
    Number of Cartesian functions: 1613
    Spherical Harmonics?: true
    Max angular momentum: 4

  ==> CPHF Iterations <==

  => Iterations <=

             Iter  Converged  Remaining    Residual
  CGR           1          0          1   1.340E-01
  CGR           2          0          1   4.574E-02
  CGR           3          0          1   2.498E-02
  CGR           4          0          1   8.636E-03
  CGR           5          0          1   3.654E-03
  CGR           6          0          1   1.478E-03
  CGR           7          0          1   5.656E-04
  CGR           8          0          1   2.197E-04
  CGR           9          0          1   9.456E-05
  CGR          10          0          1   4.415E-05
  CGR          11          0          1   1.597E-05
  CGR          12          0          1   5.246E-06
  CGR          13          0          1   1.880E-06
  CGR          14          1          0   6.361E-07

    CGRSolver converged.

	-----------------------------------------------------------
	 ==================> DF-MP2 Energies <==================== 
	-----------------------------------------------------------
	 Reference Energy          =    -758.2678105406220084 [Eh]
	 Singles Energy            =      -0.0000000000000000 [Eh]
	 Same-Spin Energy          =      -0.4435649512219507 [Eh]
	 Opposite-Spin Energy      =      -1.3479009695259445 [Eh]
	 Correlation Energy        =      -1.7914659207478951 [Eh]
	 Total Energy              =    -760.0592764613699046 [Eh]
	-----------------------------------------------------------
	 ================> DF-SCS-MP2 Energies <================== 
	-----------------------------------------------------------
	 SCS Same-Spin Scale       =       0.3333333333333333 [-]
	 SCS Opposite-Spin Scale   =       1.2000000000000000 [-]
	 SCS Same-Spin Energy      =      -0.1478549837406502 [Eh]
	 SCS Opposite-Spin Energy  =      -1.6174811634311335 [Eh]
	 SCS Correlation Energy    =      -1.7653361471717837 [Eh]
	 SCS Total Energy          =    -760.0331466877937601 [Eh]
	-----------------------------------------------------------



Properties will be evaluated at   0.000000,   0.000000,   0.000000 [a0]

Properties computed using the MP2 density matrix

  Nuclear Dipole Moment: [e a0]
     X:     6.1192      Y:     6.5515      Z:     0.6952

  Electronic Dipole Moment: [e a0]
     X:    -6.2546      Y:    -5.1350      Z:    -0.2813

  Dipole Moment: [e a0]
     X:    -0.1354      Y:     1.4165      Z:     0.4139     Total:     1.4819

  Dipole Moment: [D]
     X:    -0.3441      Y:     3.6004      Z:     1.0521     Total:     3.7667


*** tstop() called on node144.bme.utexas.edu at Wed Feb 10 18:27:46 2021
Module time:
	user time   =     730.43 seconds =      12.17 minutes
	system time =      38.10 seconds =       0.64 minutes
	total time  =        124 seconds =       2.07 minutes
Total time:
	user time   =     988.04 seconds =      16.47 minutes
	system time =      72.42 seconds =       1.21 minutes
	total time  =        183 seconds =       3.05 minutes

    Psi4 stopped on: Wednesday, 10 February 2021 06:27PM
    Psi4 wall time for execution: 0:03:03.03

*** Psi4 exiting successfully. Buy a developer a beer!
