10057715                                                                
Freq      RMP2-FC                                                     6-31G(d)            
Number of atoms                            I               22
Info1-9                                    I   N=           9
          34          32        1002           0           0         100
           6           2           1
Charge                                     I                0
Multiplicity                               I                1
Number of electrons                        I               82
Number of alpha electrons                  I               41
Number of beta electrons                   I               41
Number of basis functions                  I              187
Number of independent functions            I              187
Number of point charges in /Mol/           I                0
Number of translation vectors              I                0
Atomic numbers                             I   N=          22
           8           7           7           7           6           6
           6           6           6           6           6           1
           1           1           1           1           1           1
           1           1           1           1
Nuclear charges                            R   N=          22
  8.00000000E+00  7.00000000E+00  7.00000000E+00  7.00000000E+00  6.00000000E+00
  6.00000000E+00  6.00000000E+00  6.00000000E+00  6.00000000E+00  6.00000000E+00
  6.00000000E+00  1.00000000E+00  1.00000000E+00  1.00000000E+00  1.00000000E+00
  1.00000000E+00  1.00000000E+00  1.00000000E+00  1.00000000E+00  1.00000000E+00
  1.00000000E+00  1.00000000E+00
Current cartesian coordinates              R   N=          66
 -1.44957985E+00  3.25201390E+00 -8.22957156E-01  3.18664840E+00  8.97141339E-01
  2.62408310E-01 -3.64562667E+00 -3.62035521E-01  8.57846196E-02  1.44362107E+00
 -2.85133966E+00 -6.57197026E-01  9.79341325E-01 -4.08365200E-01 -1.55486804E-01
 -1.46570382E+00  9.53899625E-01 -3.06777165E-01  5.12391192E+00 -8.08125312E-01
  3.94930661E-02  3.52742002E+00  3.58379624E+00  8.04483187E-01 -6.02916796E+00
  9.51582064E-01 -3.02155871E-01 -3.87457462E+00 -2.92179940E+00  1.06682448E+00
  4.00822425E+00 -3.09771203E+00 -5.28078674E-01  7.07102190E+00 -2.55859496E-01
  3.18717395E-01  2.15328101E+00  4.19311123E+00  2.20746402E+00  5.43973011E+00
  3.83208626E+00  1.53481431E+00  3.25417174E+00  4.69452442E+00 -9.06102885E-01
 -7.26931276E+00 -2.18045295E-01 -1.47383227E+00 -5.65320021E+00  2.74394855E+00
 -1.23654228E+00 -6.96868534E+00  1.30650455E+00  1.50999515E+00 -2.03007222E+00
 -3.68008949E+00  1.54121756E+00 -4.74185016E+00 -4.15432753E+00 -3.52250352E-01
 -5.09061397E+00 -2.88564953E+00  2.74352369E+00  4.92296248E+00 -4.89833389E+00
 -8.50131748E-01
Force Field                                I                0
Int Atom Types                             I   N=          22
           0           0           0           0           0           0
           0           0           0           0           0           0
           0           0           0           0           0           0
           0           0           0           0
MM charges                                 R   N=          22
  0.00000000E+00  0.00000000E+00  0.00000000E+00  0.00000000E+00  0.00000000E+00
  0.00000000E+00  0.00000000E+00  0.00000000E+00  0.00000000E+00  0.00000000E+00
  0.00000000E+00  0.00000000E+00  0.00000000E+00  0.00000000E+00  0.00000000E+00
  0.00000000E+00  0.00000000E+00  0.00000000E+00  0.00000000E+00  0.00000000E+00
  0.00000000E+00  0.00000000E+00
Integer atomic weights                     I   N=          22
          16          14          14          14          12          12
          12          12          12          12          12           1
           1           1           1           1           1           1
           1           1           1           1
Real atomic weights                        R   N=          22
  1.59949146E+01  1.40030740E+01  1.40030740E+01  1.40030740E+01  1.20000000E+01
  1.20000000E+01  1.20000000E+01  1.20000000E+01  1.20000000E+01  1.20000000E+01
  1.20000000E+01  1.00782504E+00  1.00782504E+00  1.00782504E+00  1.00782504E+00
  1.00782504E+00  1.00782504E+00  1.00782504E+00  1.00782504E+00  1.00782504E+00
  1.00782504E+00  1.00782504E+00
Atom fragment info                         I   N=          22
           0           0           0           0           0           0
           0           0           0           0           0           0
           0           0           0           0           0           0
           0           0           0           0
Atom residue num                           I   N=          22
           0           0           0           0           0           0
           0           0           0           0           0           0
           0           0           0           0           0           0
           0           0           0           0
Nuclear spins                              I   N=          22
           0           2           2           2           0           0
           0           0           0           0           0           1
           1           1           1           1           1           1
           1           1           1           1
Nuclear ZEff                               R   N=          22
 -5.60000000E+00 -4.55000000E+00 -4.55000000E+00 -4.55000000E+00 -3.60000000E+00
 -3.60000000E+00 -3.60000000E+00 -3.60000000E+00 -3.60000000E+00 -3.60000000E+00
 -3.60000000E+00 -1.00000000E+00 -1.00000000E+00 -1.00000000E+00 -1.00000000E+00
 -1.00000000E+00 -1.00000000E+00 -1.00000000E+00 -1.00000000E+00 -1.00000000E+00
 -1.00000000E+00 -1.00000000E+00
Nuclear QMom                               R   N=          22
  0.00000000E+00  2.04400000E+00  2.04400000E+00  2.04400000E+00  0.00000000E+00
  0.00000000E+00  0.00000000E+00  0.00000000E+00  0.00000000E+00  0.00000000E+00
  0.00000000E+00  0.00000000E+00  0.00000000E+00  0.00000000E+00  0.00000000E+00
  0.00000000E+00  0.00000000E+00  0.00000000E+00  0.00000000E+00  0.00000000E+00
  0.00000000E+00  0.00000000E+00
Nuclear GFac                               R   N=          22
  0.00000000E+00  4.03761000E-01  4.03761000E-01  4.03761000E-01  0.00000000E+00
  0.00000000E+00  0.00000000E+00  0.00000000E+00  0.00000000E+00  0.00000000E+00
  0.00000000E+00  2.79284600E+00  2.79284600E+00  2.79284600E+00  2.79284600E+00
  2.79284600E+00  2.79284600E+00  2.79284600E+00  2.79284600E+00  2.79284600E+00
  2.79284600E+00  2.79284600E+00
MicOpt                                     I   N=          22
          -1          -1          -1          -1          -1          -1
          -1          -1          -1          -1          -1          -1
          -1          -1          -1          -1          -1          -1
          -1          -1          -1          -1
Number of contracted shells                I               66
Number of primitive shells                 I              165
Pure/Cartesian d shells                    I                1
Pure/Cartesian f shells                    I                0
Highest angular momentum                   I                2
Largest degree of contraction              I                6
Shell types                                I   N=          66
           0          -1          -1           2           0          -1
          -1           2           0          -1          -1           2
           0          -1          -1           2           0          -1
          -1           2           0          -1          -1           2
           0          -1          -1           2           0          -1
          -1           2           0          -1          -1           2
           0          -1          -1           2           0          -1
          -1           2           0           0           0           0
           0           0           0           0           0           0
           0           0           0           0           0           0
           0           0           0           0           0           0
Number of primitives per shell             I   N=          66
           6           3           1           1           6           3
           1           1           6           3           1           1
           6           3           1           1           6           3
           1           1           6           3           1           1
           6           3           1           1           6           3
           1           1           6           3           1           1
           6           3           1           1           6           3
           1           1           3           1           3           1
           3           1           3           1           3           1
           3           1           3           1           3           1
           3           1           3           1           3           1
Shell to atom map                          I   N=          66
           1           1           1           1           2           2
           2           2           3           3           3           3
           4           4           4           4           5           5
           5           5           6           6           6           6
           7           7           7           7           8           8
           8           8           9           9           9           9
          10          10          10          10          11          11
          11          11          12          12          13          13
          14          14          15          15          16          16
          17          17          18          18          19          19
          20          20          21          21          22          22
Primitive exponents                        R   N=         165
  5.48467166E+03  8.25234946E+02  1.88046958E+02  5.29645000E+01  1.68975704E+01
  5.79963534E+00  1.55396162E+01  3.59993359E+00  1.01376175E+00  2.70005823E-01
  8.00000000E-01  4.17351146E+03  6.27457911E+02  1.42902093E+02  4.02343293E+01
  1.28202129E+01  4.39043701E+00  1.16263619E+01  2.71627981E+00  7.72218397E-01
  2.12031498E-01  8.00000000E-01  4.17351146E+03  6.27457911E+02  1.42902093E+02
  4.02343293E+01  1.28202129E+01  4.39043701E+00  1.16263619E+01  2.71627981E+00
  7.72218397E-01  2.12031498E-01  8.00000000E-01  4.17351146E+03  6.27457911E+02
  1.42902093E+02  4.02343293E+01  1.28202129E+01  4.39043701E+00  1.16263619E+01
  2.71627981E+00  7.72218397E-01  2.12031498E-01  8.00000000E-01  3.04752488E+03
  4.57369518E+02  1.03948685E+02  2.92101553E+01  9.28666296E+00  3.16392696E+00
  7.86827235E+00  1.88128854E+00  5.44249258E-01  1.68714478E-01  8.00000000E-01
  3.04752488E+03  4.57369518E+02  1.03948685E+02  2.92101553E+01  9.28666296E+00
  3.16392696E+00  7.86827235E+00  1.88128854E+00  5.44249258E-01  1.68714478E-01
  8.00000000E-01  3.04752488E+03  4.57369518E+02  1.03948685E+02  2.92101553E+01
  9.28666296E+00  3.16392696E+00  7.86827235E+00  1.88128854E+00  5.44249258E-01
  1.68714478E-01  8.00000000E-01  3.04752488E+03  4.57369518E+02  1.03948685E+02
  2.92101553E+01  9.28666296E+00  3.16392696E+00  7.86827235E+00  1.88128854E+00
  5.44249258E-01  1.68714478E-01  8.00000000E-01  3.04752488E+03  4.57369518E+02
  1.03948685E+02  2.92101553E+01  9.28666296E+00  3.16392696E+00  7.86827235E+00
  1.88128854E+00  5.44249258E-01  1.68714478E-01  8.00000000E-01  3.04752488E+03
  4.57369518E+02  1.03948685E+02  2.92101553E+01  9.28666296E+00  3.16392696E+00
  7.86827235E+00  1.88128854E+00  5.44249258E-01  1.68714478E-01  8.00000000E-01
  3.04752488E+03  4.57369518E+02  1.03948685E+02  2.92101553E+01  9.28666296E+00
  3.16392696E+00  7.86827235E+00  1.88128854E+00  5.44249258E-01  1.68714478E-01
  8.00000000E-01  1.87311370E+01  2.82539436E+00  6.40121692E-01  1.61277759E-01
  1.87311370E+01  2.82539436E+00  6.40121692E-01  1.61277759E-01  1.87311370E+01
  2.82539436E+00  6.40121692E-01  1.61277759E-01  1.87311370E+01  2.82539436E+00
  6.40121692E-01  1.61277759E-01  1.87311370E+01  2.82539436E+00  6.40121692E-01
  1.61277759E-01  1.87311370E+01  2.82539436E+00  6.40121692E-01  1.61277759E-01
  1.87311370E+01  2.82539436E+00  6.40121692E-01  1.61277759E-01  1.87311370E+01
  2.82539436E+00  6.40121692E-01  1.61277759E-01  1.87311370E+01  2.82539436E+00
  6.40121692E-01  1.61277759E-01  1.87311370E+01  2.82539436E+00  6.40121692E-01
  1.61277759E-01  1.87311370E+01  2.82539436E+00  6.40121692E-01  1.61277759E-01
Contraction coefficients                   R   N=         165
  1.83107443E-03  1.39501722E-02  6.84450781E-02  2.32714336E-01  4.70192898E-01
  3.58520853E-01 -1.10777550E-01 -1.48026263E-01  1.13076702E+00  1.00000000E+00
  1.00000000E+00  1.83477216E-03  1.39946270E-02  6.85865518E-02  2.32240873E-01
  4.69069948E-01  3.60455199E-01 -1.14961182E-01 -1.69117479E-01  1.14585195E+00
  1.00000000E+00  1.00000000E+00  1.83477216E-03  1.39946270E-02  6.85865518E-02
  2.32240873E-01  4.69069948E-01  3.60455199E-01 -1.14961182E-01 -1.69117479E-01
  1.14585195E+00  1.00000000E+00  1.00000000E+00  1.83477216E-03  1.39946270E-02
  6.85865518E-02  2.32240873E-01  4.69069948E-01  3.60455199E-01 -1.14961182E-01
 -1.69117479E-01  1.14585195E+00  1.00000000E+00  1.00000000E+00  1.83473713E-03
  1.40373228E-02  6.88426223E-02  2.32184443E-01  4.67941348E-01  3.62311985E-01
 -1.19332420E-01 -1.60854152E-01  1.14345644E+00  1.00000000E+00  1.00000000E+00
  1.83473713E-03  1.40373228E-02  6.88426223E-02  2.32184443E-01  4.67941348E-01
  3.62311985E-01 -1.19332420E-01 -1.60854152E-01  1.14345644E+00  1.00000000E+00
  1.00000000E+00  1.83473713E-03  1.40373228E-02  6.88426223E-02  2.32184443E-01
  4.67941348E-01  3.62311985E-01 -1.19332420E-01 -1.60854152E-01  1.14345644E+00
  1.00000000E+00  1.00000000E+00  1.83473713E-03  1.40373228E-02  6.88426223E-02
  2.32184443E-01  4.67941348E-01  3.62311985E-01 -1.19332420E-01 -1.60854152E-01
  1.14345644E+00  1.00000000E+00  1.00000000E+00  1.83473713E-03  1.40373228E-02
  6.88426223E-02  2.32184443E-01  4.67941348E-01  3.62311985E-01 -1.19332420E-01
 -1.60854152E-01  1.14345644E+00  1.00000000E+00  1.00000000E+00  1.83473713E-03
  1.40373228E-02  6.88426223E-02  2.32184443E-01  4.67941348E-01  3.62311985E-01
 -1.19332420E-01 -1.60854152E-01  1.14345644E+00  1.00000000E+00  1.00000000E+00
  1.83473713E-03  1.40373228E-02  6.88426223E-02  2.32184443E-01  4.67941348E-01
  3.62311985E-01 -1.19332420E-01 -1.60854152E-01  1.14345644E+00  1.00000000E+00
  1.00000000E+00  3.34946043E-02  2.34726953E-01  8.13757326E-01  1.00000000E+00
  3.34946043E-02  2.34726953E-01  8.13757326E-01  1.00000000E+00  3.34946043E-02
  2.34726953E-01  8.13757326E-01  1.00000000E+00  3.34946043E-02  2.34726953E-01
  8.13757326E-01  1.00000000E+00  3.34946043E-02  2.34726953E-01  8.13757326E-01
  1.00000000E+00  3.34946043E-02  2.34726953E-01  8.13757326E-01  1.00000000E+00
  3.34946043E-02  2.34726953E-01  8.13757326E-01  1.00000000E+00  3.34946043E-02
  2.34726953E-01  8.13757326E-01  1.00000000E+00  3.34946043E-02  2.34726953E-01
  8.13757326E-01  1.00000000E+00  3.34946043E-02  2.34726953E-01  8.13757326E-01
  1.00000000E+00  3.34946043E-02  2.34726953E-01  8.13757326E-01  1.00000000E+00
P(S=P) Contraction coefficients            R   N=         165
  0.00000000E+00  0.00000000E+00  0.00000000E+00  0.00000000E+00  0.00000000E+00
  0.00000000E+00  7.08742682E-02  3.39752839E-01  7.27158577E-01  1.00000000E+00
  0.00000000E+00  0.00000000E+00  0.00000000E+00  0.00000000E+00  0.00000000E+00
  0.00000000E+00  0.00000000E+00  6.75797439E-02  3.23907296E-01  7.40895140E-01
  1.00000000E+00  0.00000000E+00  0.00000000E+00  0.00000000E+00  0.00000000E+00
  0.00000000E+00  0.00000000E+00  0.00000000E+00  6.75797439E-02  3.23907296E-01
  7.40895140E-01  1.00000000E+00  0.00000000E+00  0.00000000E+00  0.00000000E+00
  0.00000000E+00  0.00000000E+00  0.00000000E+00  0.00000000E+00  6.75797439E-02
  3.23907296E-01  7.40895140E-01  1.00000000E+00  0.00000000E+00  0.00000000E+00
  0.00000000E+00  0.00000000E+00  0.00000000E+00  0.00000000E+00  0.00000000E+00
  6.89990666E-02  3.16423961E-01  7.44308291E-01  1.00000000E+00  0.00000000E+00
  0.00000000E+00  0.00000000E+00  0.00000000E+00  0.00000000E+00  0.00000000E+00
  0.00000000E+00  6.89990666E-02  3.16423961E-01  7.44308291E-01  1.00000000E+00
  0.00000000E+00  0.00000000E+00  0.00000000E+00  0.00000000E+00  0.00000000E+00
  0.00000000E+00  0.00000000E+00  6.89990666E-02  3.16423961E-01  7.44308291E-01
  1.00000000E+00  0.00000000E+00  0.00000000E+00  0.00000000E+00  0.00000000E+00
  0.00000000E+00  0.00000000E+00  0.00000000E+00  6.89990666E-02  3.16423961E-01
  7.44308291E-01  1.00000000E+00  0.00000000E+00  0.00000000E+00  0.00000000E+00
  0.00000000E+00  0.00000000E+00  0.00000000E+00  0.00000000E+00  6.89990666E-02
  3.16423961E-01  7.44308291E-01  1.00000000E+00  0.00000000E+00  0.00000000E+00
  0.00000000E+00  0.00000000E+00  0.00000000E+00  0.00000000E+00  0.00000000E+00
  6.89990666E-02  3.16423961E-01  7.44308291E-01  1.00000000E+00  0.00000000E+00
  0.00000000E+00  0.00000000E+00  0.00000000E+00  0.00000000E+00  0.00000000E+00
  0.00000000E+00  6.89990666E-02  3.16423961E-01  7.44308291E-01  1.00000000E+00
  0.00000000E+00  0.00000000E+00  0.00000000E+00  0.00000000E+00  0.00000000E+00
  0.00000000E+00  0.00000000E+00  0.00000000E+00  0.00000000E+00  0.00000000E+00
  0.00000000E+00  0.00000000E+00  0.00000000E+00  0.00000000E+00  0.00000000E+00
  0.00000000E+00  0.00000000E+00  0.00000000E+00  0.00000000E+00  0.00000000E+00
  0.00000000E+00  0.00000000E+00  0.00000000E+00  0.00000000E+00  0.00000000E+00
  0.00000000E+00  0.00000000E+00  0.00000000E+00  0.00000000E+00  0.00000000E+00
  0.00000000E+00  0.00000000E+00  0.00000000E+00  0.00000000E+00  0.00000000E+00
  0.00000000E+00  0.00000000E+00  0.00000000E+00  0.00000000E+00  0.00000000E+00
  0.00000000E+00  0.00000000E+00  0.00000000E+00  0.00000000E+00  0.00000000E+00
Coordinates of each shell                  R   N=         198
 -1.44957985E+00  3.25201390E+00 -8.22957156E-01 -1.44957985E+00  3.25201390E+00
 -8.22957156E-01 -1.44957985E+00  3.25201390E+00 -8.22957156E-01 -1.44957985E+00
  3.25201390E+00 -8.22957156E-01  3.18664840E+00  8.97141339E-01  2.62408310E-01
  3.18664840E+00  8.97141339E-01  2.62408310E-01  3.18664840E+00  8.97141339E-01
  2.62408310E-01  3.18664840E+00  8.97141339E-01  2.62408310E-01 -3.64562667E+00
 -3.62035521E-01  8.57846196E-02 -3.64562667E+00 -3.62035521E-01  8.57846196E-02
 -3.64562667E+00 -3.62035521E-01  8.57846196E-02 -3.64562667E+00 -3.62035521E-01
  8.57846196E-02  1.44362107E+00 -2.85133966E+00 -6.57197026E-01  1.44362107E+00
 -2.85133966E+00 -6.57197026E-01  1.44362107E+00 -2.85133966E+00 -6.57197026E-01
  1.44362107E+00 -2.85133966E+00 -6.57197026E-01  9.79341325E-01 -4.08365200E-01
 -1.55486804E-01  9.79341325E-01 -4.08365200E-01 -1.55486804E-01  9.79341325E-01
 -4.08365200E-01 -1.55486804E-01  9.79341325E-01 -4.08365200E-01 -1.55486804E-01
 -1.46570382E+00  9.53899625E-01 -3.06777165E-01 -1.46570382E+00  9.53899625E-01
 -3.06777165E-01 -1.46570382E+00  9.53899625E-01 -3.06777165E-01 -1.46570382E+00
  9.53899625E-01 -3.06777165E-01  5.12391192E+00 -8.08125312E-01  3.94930661E-02
  5.12391192E+00 -8.08125312E-01  3.94930661E-02  5.12391192E+00 -8.08125312E-01
  3.94930661E-02  5.12391192E+00 -8.08125312E-01  3.94930661E-02  3.52742002E+00
  3.58379624E+00  8.04483187E-01  3.52742002E+00  3.58379624E+00  8.04483187E-01
  3.52742002E+00  3.58379624E+00  8.04483187E-01  3.52742002E+00  3.58379624E+00
  8.04483187E-01 -6.02916796E+00  9.51582064E-01 -3.02155871E-01 -6.02916796E+00
  9.51582064E-01 -3.02155871E-01 -6.02916796E+00  9.51582064E-01 -3.02155871E-01
 -6.02916796E+00  9.51582064E-01 -3.02155871E-01 -3.87457462E+00 -2.92179940E+00
  1.06682448E+00 -3.87457462E+00 -2.92179940E+00  1.06682448E+00 -3.87457462E+00
 -2.92179940E+00  1.06682448E+00 -3.87457462E+00 -2.92179940E+00  1.06682448E+00
  4.00822425E+00 -3.09771203E+00 -5.28078674E-01  4.00822425E+00 -3.09771203E+00
 -5.28078674E-01  4.00822425E+00 -3.09771203E+00 -5.28078674E-01  4.00822425E+00
 -3.09771203E+00 -5.28078674E-01  7.07102190E+00 -2.55859496E-01  3.18717395E-01
  7.07102190E+00 -2.55859496E-01  3.18717395E-01  2.15328101E+00  4.19311123E+00
  2.20746402E+00  2.15328101E+00  4.19311123E+00  2.20746402E+00  5.43973011E+00
  3.83208626E+00  1.53481431E+00  5.43973011E+00  3.83208626E+00  1.53481431E+00
  3.25417174E+00  4.69452442E+00 -9.06102885E-01  3.25417174E+00  4.69452442E+00
 -9.06102885E-01 -7.26931276E+00 -2.18045295E-01 -1.47383227E+00 -7.26931276E+00
 -2.18045295E-01 -1.47383227E+00 -5.65320021E+00  2.74394855E+00 -1.23654228E+00
 -5.65320021E+00  2.74394855E+00 -1.23654228E+00 -6.96868534E+00  1.30650455E+00
  1.50999515E+00 -6.96868534E+00  1.30650455E+00  1.50999515E+00 -2.03007222E+00
 -3.68008949E+00  1.54121756E+00 -2.03007222E+00 -3.68008949E+00  1.54121756E+00
 -4.74185016E+00 -4.15432753E+00 -3.52250352E-01 -4.74185016E+00 -4.15432753E+00
 -3.52250352E-01 -5.09061397E+00 -2.88564953E+00  2.74352369E+00 -5.09061397E+00
 -2.88564953E+00  2.74352369E+00  4.92296248E+00 -4.89833389E+00 -8.50131748E-01
  4.92296248E+00 -4.89833389E+00 -8.50131748E-01
Constraint Structure                       R   N=          66
 -1.44957985E+00  3.25201390E+00 -8.22957156E-01  3.18664840E+00  8.97141339E-01
  2.62408310E-01 -3.64562667E+00 -3.62035521E-01  8.57846196E-02  1.44362107E+00
 -2.85133966E+00 -6.57197026E-01  9.79341325E-01 -4.08365200E-01 -1.55486804E-01
 -1.46570382E+00  9.53899625E-01 -3.06777165E-01  5.12391192E+00 -8.08125312E-01
  3.94930661E-02  3.52742002E+00  3.58379624E+00  8.04483187E-01 -6.02916796E+00
  9.51582064E-01 -3.02155871E-01 -3.87457462E+00 -2.92179940E+00  1.06682448E+00
  4.00822425E+00 -3.09771203E+00 -5.28078674E-01  7.07102190E+00 -2.55859496E-01
  3.18717395E-01  2.15328101E+00  4.19311123E+00  2.20746402E+00  5.43973011E+00
  3.83208626E+00  1.53481431E+00  3.25417174E+00  4.69452442E+00 -9.06102885E-01
 -7.26931276E+00 -2.18045295E-01 -1.47383227E+00 -5.65320021E+00  2.74394855E+00
 -1.23654228E+00 -6.96868534E+00  1.30650455E+00  1.50999515E+00 -2.03007222E+00
 -3.68008949E+00  1.54121756E+00 -4.74185016E+00 -4.15432753E+00 -3.52250352E-01
 -5.09061397E+00 -2.88564953E+00  2.74352369E+00  4.92296248E+00 -4.89833389E+00
 -8.50131748E-01
Num ILSW                                   I              100
ILSW                                       I   N=         100
           0           1           0           0           2           0
           0           0           0           0           0          -1
           0           0           0           0           0           0
           0           0           0           0           1           0
           1           0           0           0           0           0
           0           0      100000           0          -1           0
           0           0           0           0           0           0
           0           0           0           1           1           0
           0           0           1           0           0           0
           0           0           4          40           0           0
           0           0           0           0           0           0
           0           0           0           0           0           0
           0           0           0           0           0           0
           0           0           0           0           0           0
           0           0           0           0           0           0
           0           0           0           0           0           0
           0           0           0           0
Num RLSW                                   I               40
RLSW                                       R   N=          40
  1.00000000E+00  1.00000000E+00  1.00000000E+00  1.00000000E+00  1.00000000E+00
  0.00000000E+00  0.00000000E+00  1.00000000E+00  0.00000000E+00  0.00000000E+00
  0.00000000E+00  0.00000000E+00  1.00000000E+00  0.00000000E+00  0.00000000E+00
  0.00000000E+00  0.00000000E+00  1.00000000E+00  0.00000000E+00  0.00000000E+00
  0.00000000E+00  0.00000000E+00  1.00000000E+00  0.00000000E+00  0.00000000E+00
  0.00000000E+00  0.00000000E+00  1.00000000E+00  0.00000000E+00  0.00000000E+00
  0.00000000E+00  0.00000000E+00  0.00000000E+00  0.00000000E+00  0.00000000E+00
  0.00000000E+00  0.00000000E+00  0.00000000E+00  1.00000000E+00  1.00000000E+00
MxBond                                     I                4
NBond                                      I   N=          22
           1           3           3           2           3           3
           3           4           4           4           3           1
           1           1           1           1           1           1
           1           1           1           1
IBond                                      I   N=          88
           6           0           0           0           5           7
           8           0           6           9          10           0
           5          11           0           0           2           4
           6           0           1           3           5           0
           2          11          12           0           2          13
          14          15           3          16          17          18
           3          19          20          21           4           7
          22           0           7           0           0           0
           8           0           0           0           8           0
           0           0           8           0           0           0
           9           0           0           0           9           0
           0           0           9           0           0           0
          10           0           0           0          10           0
           0           0          10           0           0           0
          11           0           0           0
RBond                                      R   N=          88
  2.00000000E+00  0.00000000E+00  0.00000000E+00  0.00000000E+00  1.50000000E+00
  1.50000000E+00  1.00000000E+00  0.00000000E+00  1.00000000E+00  1.00000000E+00
  1.00000000E+00  0.00000000E+00  2.00000000E+00  1.00000000E+00  0.00000000E+00
  0.00000000E+00  1.50000000E+00  2.00000000E+00  1.00000000E+00  0.00000000E+00
  2.00000000E+00  1.00000000E+00  1.00000000E+00  0.00000000E+00  1.50000000E+00
  1.50000000E+00  1.00000000E+00  0.00000000E+00  1.00000000E+00  1.00000000E+00
  1.00000000E+00  1.00000000E+00  1.00000000E+00  1.00000000E+00  1.00000000E+00
  1.00000000E+00  1.00000000E+00  1.00000000E+00  1.00000000E+00  1.00000000E+00
  1.00000000E+00  1.50000000E+00  1.00000000E+00  0.00000000E+00  1.00000000E+00
  0.00000000E+00  0.00000000E+00  0.00000000E+00  1.00000000E+00  0.00000000E+00
  0.00000000E+00  0.00000000E+00  1.00000000E+00  0.00000000E+00  0.00000000E+00
  0.00000000E+00  1.00000000E+00  0.00000000E+00  0.00000000E+00  0.00000000E+00
  1.00000000E+00  0.00000000E+00  0.00000000E+00  0.00000000E+00  1.00000000E+00
  0.00000000E+00  0.00000000E+00  0.00000000E+00  1.00000000E+00  0.00000000E+00
  0.00000000E+00  0.00000000E+00  1.00000000E+00  0.00000000E+00  0.00000000E+00
  0.00000000E+00  1.00000000E+00  0.00000000E+00  0.00000000E+00  0.00000000E+00
  1.00000000E+00  0.00000000E+00  0.00000000E+00  0.00000000E+00  1.00000000E+00
  0.00000000E+00  0.00000000E+00  0.00000000E+00
Virial Ratio                               R      2.002660982748908E+00
SCF Energy                                 R     -5.096799606182948E+02
MP2 Energy                                 R     -5.112560184331405E+02
Total Energy                               R     -5.112560184331405E+02
Post-SCF wavefunction norm                 R      1.745225340303158E+00
RMS Force                                  R      1.542708027856913E-07
RMS Density                                R      2.237707695138938E-09
External E-field                           R   N=          35
  0.00000000E+00  0.00000000E+00  0.00000000E+00  0.00000000E+00  0.00000000E+00
  0.00000000E+00  0.00000000E+00  0.00000000E+00  0.00000000E+00  0.00000000E+00
  0.00000000E+00  0.00000000E+00  0.00000000E+00  0.00000000E+00  0.00000000E+00
  0.00000000E+00  0.00000000E+00  0.00000000E+00  0.00000000E+00  0.00000000E+00
  0.00000000E+00  0.00000000E+00  0.00000000E+00  0.00000000E+00  0.00000000E+00
  0.00000000E+00  0.00000000E+00  0.00000000E+00  0.00000000E+00  0.00000000E+00
  0.00000000E+00  0.00000000E+00  0.00000000E+00  0.00000000E+00  0.00000000E+00
IOpCl                                      I                0
IROHF                                      I                0
Alpha Orbital Energies                     R   N=         187
 -2.05224611E+01 -1.56372029E+01 -1.55936391E+01 -1.55621088E+01 -1.13630324E+01
 -1.13024624E+01 -1.12721881E+01 -1.12692430E+01 -1.12540409E+01 -1.12516668E+01
 -1.12495583E+01 -1.37661874E+00 -1.33914741E+00 -1.24194449E+00 -1.18578449E+00
 -1.02902876E+00 -9.75084076E-01 -9.64514786E-01 -9.36521471E-01 -8.28389564E-01
 -8.07880570E-01 -7.39020220E-01 -7.07013200E-01 -6.58323009E-01 -6.51057398E-01
 -6.42579299E-01 -6.36758059E-01 -6.03246434E-01 -5.89889614E-01 -5.70164554E-01
 -5.61561093E-01 -5.54582942E-01 -5.52133226E-01 -5.50640803E-01 -5.24813793E-01
 -5.17360123E-01 -4.44263016E-01 -4.21345205E-01 -3.85414625E-01 -3.66434700E-01
 -3.16120627E-01  1.20517421E-01  2.15305159E-01  2.40625214E-01  2.47650900E-01
  2.67113204E-01  2.73326924E-01  2.99226868E-01  3.03034011E-01  3.14039510E-01
  3.18522557E-01  3.21443887E-01  3.29677353E-01  3.34895163E-01  3.38814275E-01
  3.50367941E-01  3.67935615E-01  4.02510517E-01  4.16957101E-01  4.50816347E-01