
    -----------------------------------------------------------------------
          Psi4: An Open-Source Ab Initio Electronic Structure Package
                               Psi4 1.3.2 release

                         Git: Rev {HEAD} ecbda83 


    R. M. Parrish, L. A. Burns, D. G. A. Smith, A. C. Simmonett,
    A. E. DePrince III, E. G. Hohenstein, U. Bozkaya, A. Yu. Sokolov,
    R. Di Remigio, R. M. Richard, J. F. Gonthier, A. M. James,
    H. R. McAlexander, A. Kumar, M. Saitow, X. Wang, B. P. Pritchard,
    P. Verma, H. F. Schaefer III, K. Patkowski, R. A. King, E. F. Valeev,
    F. A. Evangelista, J. M. Turney, T. D. Crawford, and C. D. Sherrill,
    J. Chem. Theory Comput. 13(7) pp 3185--3197 (2017).
    (doi: 10.1021/acs.jctc.7b00174)


                         Additional Contributions by
    P. Kraus, H. Kruse, M. H. Lechner, M. C. Schieber, R. A. Shaw,
    A. Alenaizan, R. Galvelis, Z. L. Glick, S. Lehtola, and J. P. Misiewicz

    -----------------------------------------------------------------------


    Psi4 started on: Tuesday, 03 November 2020 11:08PM

    Process ID: 60202
    Host:       node142.bme.utexas.edu
    PSIDATADIR: /home/xy3866/psi4conda/share/psi4
    Memory:     500.0 MiB
    Threads:    8
    
  ==> Input File <==

--------------------------------------------------------------------------
#psi4
#
memory 32 gb

molecule  {
0 1
  N       -1.5631460    -1.0786450     0.0000020
  C        0.9814170     1.4318910     0.0000000
  C        2.1554110     0.6922200     0.0000020
  C        2.1564419    -0.7625783    -0.0000049
  C        0.9343870    -1.4220840     0.0000000
  C       -0.2481830    -0.6706930     0.0000000
  C       -0.2522510     0.7528300     0.0000150
  C       -1.6207120     1.1681210    -0.0000080
  C       -2.3885810     0.0265560    -0.0000050
  H        1.0121500     2.5200250     0.0000050
  H        3.1140070     1.2059840    -0.0000050
  H        3.0718340    -1.2688090    -0.0000050
  H        0.9183210    -2.5105470    -0.0000040
  H       -1.9975130     2.1830700    -0.0000130
  H       -1.8769340    -2.0399470     0.0000180
  H       -3.4648550    -0.0903210     0.0000040
units angstrom
no_reorient  #important for SAPT in psi4, default
symmetry c1  #important for SAPT in psi4, default
}

set PROPERTIES_ORIGIN ["COM"]
properties('MP2/aug-cc-pvtz', properties = ['dipole'])
--------------------------------------------------------------------------

  Memory set to  29.802 GiB by Python driver.
    SCF Algorithm Type (re)set to DF.

*** tstart() called on node142.bme.utexas.edu
*** at Tue Nov  3 23:08:32 2020

   => Loading Basis Set <=

    Name: AUG-CC-PVTZ
    Role: ORBITAL
    Keyword: BASIS
    atoms 1     entry N          line   281 file /home/xy3866/psi4conda/share/psi4/basis/aug-cc-pvtz.gbs 
    atoms 2-9   entry C          line   235 file /home/xy3866/psi4conda/share/psi4/basis/aug-cc-pvtz.gbs 
    atoms 10-16 entry H          line    36 file /home/xy3866/psi4conda/share/psi4/basis/aug-cc-pvtz.gbs 


         ---------------------------------------------------------
                                   SCF
               by Justin Turney, Rob Parrish, Andy Simmonett
                          and Daniel G. A. Smith
                              RHF Reference
                        8 Threads,  30517 MiB Core
         ---------------------------------------------------------

  ==> Geometry <==

    Molecular point group: c1
    Full point group: C1

    Geometry (in Angstrom), charge = 0, multiplicity = 1:

       Center              X                  Y                   Z               Mass       
    ------------   -----------------  -----------------  -----------------  -----------------
         N           -1.558954908222    -1.074290378524     0.000001853012    14.003074004430
         C            0.985608091778     1.436245621476    -0.000000146988    12.000000000000
         C            2.159602091778     0.696574621476     0.000001853012    12.000000000000
         C            2.160632991778    -0.758223678524    -0.000005046988    12.000000000000
         C            0.938578091778    -1.417729378524    -0.000000146988    12.000000000000
         C           -0.243991908222    -0.666338378524    -0.000000146988    12.000000000000
         C           -0.248059908222     0.757184621476     0.000014853012    12.000000000000
         C           -1.616520908222     1.172475621476    -0.000008146988    12.000000000000
         C           -2.384389908222     0.030910621476    -0.000005146988    12.000000000000
         H            1.016341091778     2.524379621476     0.000004853012     1.007825032230
         H            3.118198091778     1.210338621476    -0.000005146988     1.007825032230
         H            3.076025091778    -1.264454378524    -0.000005146988     1.007825032230
         H            0.922512091778    -2.506192378524    -0.000004146988     1.007825032230
         H           -1.993321908222     2.187424621476    -0.000013146988     1.007825032230
         H           -1.872742908222    -2.035592378524     0.000017853012     1.007825032230
         H           -3.460663908222    -0.085966378524     0.000003853012     1.007825032230

  Running in c1 symmetry.

  Rotational constants: A =      0.12838  B =      0.05436  C =      0.03819 [cm^-1]
  Rotational constants: A =   3848.75961  B =   1629.56111  C =   1144.83786 [MHz]
  Nuclear repulsion =  399.263249974662529

  Charge       = 0
  Multiplicity = 1
  Electrons    = 62
  Nalpha       = 31
  Nbeta        = 31

  ==> Algorithm <==

  SCF Algorithm Type is DF.
  DIIS enabled.
  MOM disabled.
  Fractional occupation disabled.
  Guess Type is SAD.
  Energy threshold   = 1.00e-10
  Density threshold  = 1.00e-10
  Integral threshold = 0.00e+00

  ==> Primary Basis <==

  Basis Set: AUG-CC-PVTZ
    Blend: AUG-CC-PVTZ
    Number of shells: 189
    Number of basis function: 575
    Number of Cartesian functions: 670
    Spherical Harmonics?: true
    Max angular momentum: 3

   => Loading Basis Set <=

    Name: (AUG-CC-PVTZ AUX)
    Role: JKFIT
    Keyword: DF_BASIS_SCF
    atoms 1     entry N          line   224 file /home/xy3866/psi4conda/share/psi4/basis/aug-cc-pvtz-jkfit.gbs 
    atoms 2-9   entry C          line   162 file /home/xy3866/psi4conda/share/psi4/basis/aug-cc-pvtz-jkfit.gbs 
    atoms 10-16 entry H          line    70 file /home/xy3866/psi4conda/share/psi4/basis/aug-cc-pvtz-jkfit.gbs 

  ==> Pre-Iterations <==

   -------------------------------------------------------
    Irrep   Nso     Nmo     Nalpha   Nbeta   Ndocc  Nsocc
   -------------------------------------------------------
     A        575     575       0       0       0       0
   -------------------------------------------------------
    Total     575     575      31      31      31       0
   -------------------------------------------------------

  ==> Integral Setup <==

  DFHelper Memory: AOs need 3.094 GiB; user supplied 22.352 GiB. Using in-core AOs.

  ==> MemDFJK: Density-Fitted J/K Matrices <==

    J tasked:                   Yes
    K tasked:                   Yes
    wK tasked:                   No
    OpenMP threads:               8
    Memory [MiB]:             22888
    Algorithm:                 Disk
    Schwarz Cutoff:           1E-12
    Mask sparsity (%):       3.3065
    Fitting Condition:        1E-10

   => Auxiliary Basis Set <=

  Basis Set: (AUG-CC-PVTZ AUX)
    Blend: AUG-CC-PVTZ-JKFIT
    Number of shells: 368
    Number of basis function: 1258
    Number of Cartesian functions: 1564
    Spherical Harmonics?: true
    Max angular momentum: 4

  Minimum eigenvalue in the overlap matrix is 6.1171545619E-07.
  Using Symmetric Orthogonalization.

  SCF Guess: Superposition of Atomic Densities via on-the-fly atomic UHF.

  ==> Iterations <==

                           Total Energy        Delta E     RMS |[F,P]|

   @DF-RHF iter SAD:  -361.34279941782529   -3.61343e+02   0.00000e+00 
   @DF-RHF iter   1:  -361.33377204009372    9.02738e-03   1.11715e-03 DIIS
   @DF-RHF iter   2:  -361.53067863336179   -1.96907e-01   5.59779e-04 DIIS
   @DF-RHF iter   3:  -361.58254457481326   -5.18659e-02   1.20830e-04 DIIS
   @DF-RHF iter   4:  -361.58558990476354   -3.04533e-03   5.02600e-05 DIIS
   @DF-RHF iter   5:  -361.58606615042726   -4.76246e-04   8.79456e-06 DIIS
   @DF-RHF iter   6:  -361.58609523839465   -2.90880e-05   4.18160e-06 DIIS
   @DF-RHF iter   7:  -361.58610231391225   -7.07552e-06   1.65072e-06 DIIS
   @DF-RHF iter   8:  -361.58610439838048   -2.08447e-06   6.52366e-07 DIIS
   @DF-RHF iter   9:  -361.58610472586253   -3.27482e-07   3.23580e-07 DIIS
   @DF-RHF iter  10:  -361.58610478654020   -6.06777e-08   1.44019e-07 DIIS
   @DF-RHF iter  11:  -361.58610480984350   -2.33033e-08   6.08844e-08 DIIS
   @DF-RHF iter  12:  -361.58610481320017   -3.35666e-09   2.90491e-08 DIIS
   @DF-RHF iter  13:  -361.58610481364201   -4.41844e-10   6.11150e-09 DIIS
   @DF-RHF iter  14:  -361.58610481365923   -1.72236e-11   2.22388e-09 DIIS
   @DF-RHF iter  15:  -361.58610481366003   -7.95808e-13   7.93685e-10 DIIS
   @DF-RHF iter  16:  -361.58610481366134   -1.30740e-12   2.95288e-10 DIIS
   @DF-RHF iter  17:  -361.58610481366338   -2.04636e-12   1.24413e-10 DIIS
   @DF-RHF iter  18:  -361.58610481366162    1.76215e-12   4.79293e-11 DIIS
  Energy and wave function converged.


  ==> Post-Iterations <==

    Orbital Energies [Eh]
    ---------------------

    Doubly Occupied:                                                      

       1A    -15.606800     2A    -11.273154     3A    -11.266968  
       4A    -11.234929     5A    -11.231533     6A    -11.231319  
       7A    -11.227467     8A    -11.226488     9A    -11.218963  
      10A     -1.296440    11A     -1.124470    12A     -1.056068  
      13A     -0.993659    14A     -0.975283    15A     -0.839571  
      16A     -0.809596    17A     -0.788856    18A     -0.726859  
      19A     -0.666798    20A     -0.646491    21A     -0.601712  
      22A     -0.592847    23A     -0.584053    24A     -0.572130  
      25A     -0.556571    26A     -0.511590    27A     -0.478274  
      28A     -0.461408    29A     -0.386240    30A     -0.299564  
      31A     -0.283599  

    Virtual:                                                              

      32A      0.024024    33A      0.031437    34A      0.034273  
      35A      0.044185    36A      0.045504    37A      0.063670  
      38A      0.065060    39A      0.074953    40A      0.092630  
      41A      0.096197    42A      0.105551    43A      0.106171  
      44A      0.108434    45A      0.110935    46A      0.113526  
      47A      0.121977    48A      0.122391    49A      0.122994  
      50A      0.128133    51A      0.130766    52A      0.135730  
      53A      0.137979    54A      0.138310    55A      0.144947  
      56A      0.153445    57A      0.158823    58A      0.160884  
      59A      0.170625    60A      0.176419    61A      0.177544  
      62A      0.180128    63A      0.183244    64A      0.192093  
      65A      0.204354    66A      0.208023    67A      0.219155  
      68A      0.220172    69A      0.234101    70A      0.238591  
      71A      0.246081    72A      0.252409    73A      0.257250  
      74A      0.265625    75A      0.275237    76A      0.287947  
      77A      0.288707    78A      0.297938    79A      0.301035  
      80A      0.303625    81A      0.307748    82A      0.318573  
      83A      0.321127    84A      0.333347    85A      0.336307  
      86A      0.340394    87A      0.340474    88A      0.347852  
      89A      0.352429    90A      0.353431    91A      0.365001  
      92A      0.367754    93A      0.369439    94A      0.377202  
      95A      0.378898    96A      0.387966    97A      0.403379  
      98A      0.404697    99A      0.410443   100A      0.411838  
     101A      0.416109   102A      0.430802   103A      0.435137  
     104A      0.438556   105A      0.450741   106A      0.452548  
     107A      0.455822   108A      0.457824   109A      0.459357  
     110A      0.473032   111A      0.475618   112A      0.481348  
     113A      0.481493   114A      0.490005   115A      0.498475  
     116A      0.502383   117A      0.504705   118A      0.509401  
     119A      0.513530   120A      0.516770   121A      0.519414  
     122A      0.522052   123A      0.524474   124A      0.533491  
     125A      0.537116   126A      0.545023   127A      0.551056  
     128A      0.553504   129A      0.556144   130A      0.569046  
     131A      0.572131   132A      0.572272   133A      0.599375  
     134A      0.617227   135A      0.617745   136A      0.626441  
     137A      0.631813   138A      0.635201   139A      0.647813  
     140A      0.654565   141A      0.655175   142A      0.672944  
     143A      0.677177   144A      0.691366   145A      0.696711  
     146A      0.702946   147A      0.714372   148A      0.719413  
     149A      0.721264   150A      0.727950   151A      0.735356  
     152A      0.737908   153A      0.750888   154A      0.757652  
     155A      0.765630   156A      0.772584   157A      0.777249  
     158A      0.780666   159A      0.789859   160A      0.803227  
     161A      0.810968   162A      0.815075   163A      0.835996  
     164A      0.841212   165A      0.850818   166A      0.851933  
     167A      0.863967   168A      0.864914   169A      0.880534  
     170A      0.885377   171A      0.886445   172A      0.893997  
     173A      0.898065   174A      0.903721   175A      0.909656  
     176A      0.920239   177A      0.925621   178A      0.944478  
     179A      0.948853   180A      0.951183   181A      0.955106  
     182A      0.960573   183A      0.963135   184A      0.973554  
     185A      0.982120   186A      0.982380   187A      0.997130  
     188A      1.000104   189A      1.003368   190A      1.006773  
     191A      1.009095   192A      1.026509   193A      1.034064  
     194A      1.039268   195A      1.044316   196A      1.045808  
     197A      1.055554   198A      1.062352   199A      1.073688  
     200A      1.074287   201A      1.078567   202A      1.089789  
     203A      1.097662   204A      1.100233   205A      1.104929  
     206A      1.116577   207A      1.123735   208A      1.132760  
     209A      1.133823   210A      1.143060   211A      1.156669  
     212A      1.158584   213A      1.161306   214A      1.172019  
     215A      1.172336   216A      1.188904   217A      1.190463  
     218A      1.194363   219A      1.204517   220A      1.205259  
     221A      1.210448   222A      1.216330   223A      1.220782  
     224A      1.234900   225A      1.235339   226A      1.248896  
     227A      1.258641   228A      1.264060   229A      1.272109  
     230A      1.289832   231A      1.294803   232A      1.300318  
     233A      1.314436   234A      1.325507   235A      1.330774  
     236A      1.335940   237A      1.349930   238A      1.367295  
     239A      1.369914   240A      1.374591   241A      1.384556  
     242A      1.387230   243A      1.401312   244A      1.405459  
     245A      1.415862   246A      1.417072   247A      1.420564  
     248A      1.437731   249A      1.441959   250A      1.464883  
     251A      1.468476   252A      1.471834   253A      1.476641  
     254A      1.487965   255A      1.491864   256A      1.497038  
     257A      1.515484   258A      1.540910   259A      1.543290  
     260A      1.566090   261A      1.578296   262A      1.580884  
     263A      1.600824   264A      1.616046   265A      1.630845  
     266A      1.631862   267A      1.649383   268A      1.657391  
     269A      1.684014   270A      1.688639   271A      1.701028  
     272A      1.705477   273A      1.711804   274A      1.730181  
     275A      1.731052   276A      1.761279   277A      1.766662  
     278A      1.784570   279A      1.799506   280A      1.812904  
     281A      1.822400   282A      1.844310   283A      1.846135  
     284A      1.848793   285A      1.865168   286A      1.866248  
     287A      1.879509   288A      1.883756   289A      1.896442  
     290A      1.900143   291A      1.907445   292A      1.917085  
     293A      1.943039   294A      1.955793   295A      1.965708  
     296A      1.984336   297A      1.991848   298A      2.004087  
     299A      2.013549   300A      2.021573   301A      2.026047  
     302A      2.035366   303A      2.036781   304A      2.043458  
     305A      2.051838   306A      2.052132   307A      2.075321  
     308A      2.088817   309A      2.111083   310A      2.121241  
     311A      2.127146   312A      2.141886   313A      2.150798  
     314A      2.157502   315A      2.159639   316A      2.163156  
     317A      2.169995   318A      2.176460   319A      2.224902  
     320A      2.228162   321A      2.245317   322A      2.252375  
     323A      2.265718   324A      2.280535   325A      2.285489  
     326A      2.286703   327A      2.312330   328A      2.346122  
     329A      2.349104   330A      2.359821   331A      2.382707  
     332A      2.390347   333A      2.395130   334A      2.420393  
     335A      2.427167   336A      2.441872   337A      2.454636  
     338A      2.488234   339A      2.505684   340A      2.522706  
     341A      2.546073   342A      2.547582   343A      2.573362  
     344A      2.588241   345A      2.597492   346A      2.615403  
     347A      2.629497   348A      2.664711   349A      2.675903  
     350A      2.702611   351A      2.720782   352A      2.735143  
     353A      2.761585   354A      2.812972   355A      2.825749  
     356A      2.850293   357A      2.862675   358A      2.873490  
     359A      2.903686   360A      2.945603   361A      2.979814  
     362A      2.993323   363A      3.040999   364A      3.050006  
     365A      3.096609   366A      3.152963   367A      3.207398  
     368A      3.237911   369A      3.239193   370A      3.249744  
     371A      3.258769   372A      3.296319   373A      3.303547  
     374A      3.324173   375A      3.327754   376A      3.347328  
     377A      3.368157   378A      3.369168   379A      3.384980  
     380A      3.404522   381A      3.423143   382A      3.430846  
     383A      3.434988   384A      3.442792   385A      3.473154  
     386A      3.485326   387A      3.487475   388A      3.505265  
     389A      3.522871   390A      3.535032   391A      3.545070  
     392A      3.557198   393A      3.570845   394A      3.578339  
     395A      3.579524   396A      3.582256   397A      3.608769  
     398A      3.622349   399A      3.624982   400A      3.637437  
     401A      3.646944   402A      3.658961   403A      3.669373  
     404A      3.675593   405A      3.706429   406A      3.715839  
     407A      3.723144   408A      3.748189   409A      3.761692  
     410A      3.786780   411A      3.788867   412A      3.825250  
     413A      3.830721   414A      3.830897   415A      3.850478  
     416A      3.853222   417A      3.864304   418A      3.893496  
     419A      3.904547   420A      3.905938   421A      3.913308  
     422A      3.929972   423A      3.932248   424A      3.943174  
     425A      3.958842   426A      3.976439   427A      3.981175  
     428A      3.991734   429A      4.012188   430A      4.032614  
     431A      4.037769   432A      4.055322   433A      4.065850  
     434A      4.068224   435A      4.075145   436A      4.096445  
     437A      4.101484   438A      4.134301   439A      4.145419  
     440A      4.159502   441A      4.166001   442A      4.171914  
     443A      4.197751   444A      4.200527   445A      4.208665  
     446A      4.230323   447A      4.239441   448A      4.263214  
     449A      4.272519   450A      4.285861   451A      4.289576  
     452A      4.303759   453A      4.306660   454A      4.321999  
     455A      4.322976   456A      4.359595   457A      4.361922  
     458A      4.375050   459A      4.380165   460A      4.391485  
     461A      4.396376   462A      4.415642   463A      4.416587  
     464A      4.426169   465A      4.447710   466A      4.459154  
     467A      4.471836   468A      4.498060   469A      4.509045  
     470A      4.514277   471A      4.539436   472A      4.555900  
     473A      4.559723   474A      4.576409   475A      4.612842  
     476A      4.627344   477A      4.635095   478A      4.678410  
     479A      4.702165   480A      4.705638   481A      4.725978  
     482A      4.732348   483A      4.733470   484A      4.739967  
     485A      4.789274   486A      4.810156   487A      4.826344  
     488A      4.849122   489A      4.871965   490A      4.884264  
     491A      4.935799   492A      4.942196   493A      4.961549  
     494A      4.976676   495A      5.002338   496A      5.008767  
     497A      5.023626   498A      5.027532   499A      5.044700  
     500A      5.046207   501A      5.074983   502A      5.097271  
     503A      5.118705   504A      5.118746   505A      5.134185  
     506A      5.152789   507A      5.167325   508A      5.168806  
     509A      5.191903   510A      5.201620   511A      5.206115  
     512A      5.246551   513A      5.266418   514A      5.277135  
     515A      5.283225   516A      5.286174   517A      5.356733  
     518A      5.373362   519A      5.402614   520A      5.405941  
     521A      5.427467   522A      5.455596   523A      5.495079  
     524A      5.523864   525A      5.561119   526A      5.597252  
     527A      5.600320   528A      5.628839   529A      5.661445  
     530A      5.673204   531A      5.689630   532A      5.706529  
     533A      5.728833   534A      5.733396   535A      5.831183  
     536A      5.838893   537A      5.901438   538A      5.928983  
     539A      5.938613   540A      6.011549   541A      6.072695  
     542A      6.075950   543A      6.155622   544A      6.199856  
     545A      6.211382   546A      6.222850   547A      6.277041  
     548A      6.296340   549A      6.365778   550A      6.412753  
     551A      6.427692   552A      6.521572   553A      6.554159  
     554A      6.619067   555A      6.652683   556A      6.758099  
     557A      6.815218   558A      6.868770   559A      6.959434  
     560A      7.001211   561A      7.063267   562A      7.095737  
     563A      7.161484   564A      7.222867   565A      7.573741  
     566A      7.838583   567A     16.088902   568A     16.620613  
     569A     17.052628   570A     18.713654   571A     18.980442  
     572A     19.420676   573A     19.944048   574A     20.072602  
     575A     20.396769  

    Final Occupation by Irrep:
              A 
    DOCC [    31 ]

  @DF-RHF Final Energy:  -361.58610481366162

   => Energetics <=

    Nuclear Repulsion Energy =            399.2632499746625285
    One-Electron Energy =               -1280.1593110129047091
    Two-Electron Energy =                 519.3099562245805600
    Total Energy =                       -361.5861048136615636

Computation Completed

*** tstop() called on node142.bme.utexas.edu at Tue Nov  3 23:10:07 2020
Module time:
	user time   =     407.20 seconds =       6.79 minutes
	system time =      46.72 seconds =       0.78 minutes
	total time  =         95 seconds =       1.58 minutes
Total time:
	user time   =     407.20 seconds =       6.79 minutes
	system time =      46.72 seconds =       0.78 minutes
	total time  =         95 seconds =       1.58 minutes
   => Loading Basis Set <=

    Name: (AUG-CC-PVTZ AUX)
    Role: RIFIT
    Keyword: DF_BASIS_MP2
    atoms 1     entry N          line   206 file /home/xy3866/psi4conda/share/psi4/basis/aug-cc-pvtz-ri.gbs 
    atoms 2-9   entry C          line   148 file /home/xy3866/psi4conda/share/psi4/basis/aug-cc-pvtz-ri.gbs 
    atoms 10-16 entry H          line    30 file /home/xy3866/psi4conda/share/psi4/basis/aug-cc-pvtz-ri.gbs 


*** tstart() called on node142.bme.utexas.edu
*** at Tue Nov  3 23:10:08 2020


  //>>>>>>>>>>>>>>>>>>>>>>>>>>>>>>>>>>>//
  //               DFMP2               //
  //<<<<<<<<<<<<<<<<<<<<<<<<<<<<<<<<<<<//

	 --------------------------------------------------------
	                          DF-MP2                         
	      2nd-Order Density-Fitted Moller-Plesset Theory     
	              RMP2 Wavefunction,   8 Threads             
	                                                         
	        Rob Parrish, Justin Turney, Andy Simmonett,      
	           Ed Hohenstein, and C. David Sherrill          
	 --------------------------------------------------------

   => Auxiliary Basis Set <=

  Basis Set: (AUG-CC-PVTZ AUX)
    Blend: AUG-CC-PVTZ-RI
    Number of shells: 350
    Number of basis function: 1276
    Number of Cartesian functions: 1609
    Spherical Harmonics?: true
    Max angular momentum: 4

	 --------------------------------------------------------
	                 NBF =   575, NAUX =  1276
	 --------------------------------------------------------
	   CLASS    FOCC     OCC    AOCC    AVIR     VIR    FVIR
	   PAIRS       0      31      31     544     544       0
	 --------------------------------------------------------

  DFHelper Memory: AOs need 3.094 GiB; user supplied 22.352 GiB. Using in-core AOs.


         ------------------------------------------------------------
                                     CPHF                           
                                  Rob Parrish                       
         ------------------------------------------------------------

  ==> Geometry <==

    Molecular point group: c1
    Full point group: C1

    Geometry (in Angstrom), charge = 0, multiplicity = 1:

       Center              X                  Y                   Z               Mass       
    ------------   -----------------  -----------------  -----------------  -----------------
         N           -1.558954908222    -1.074290378524     0.000001853012    14.003074004430
         C            0.985608091778     1.436245621476    -0.000000146988    12.000000000000
         C            2.159602091778     0.696574621476     0.000001853012    12.000000000000
         C            2.160632991778    -0.758223678524    -0.000005046988    12.000000000000
         C            0.938578091778    -1.417729378524    -0.000000146988    12.000000000000
         C           -0.243991908222    -0.666338378524    -0.000000146988    12.000000000000
         C           -0.248059908222     0.757184621476     0.000014853012    12.000000000000
         C           -1.616520908222     1.172475621476    -0.000008146988    12.000000000000
         C           -2.384389908222     0.030910621476    -0.000005146988    12.000000000000
         H            1.016341091778     2.524379621476     0.000004853012     1.007825032230
         H            3.118198091778     1.210338621476    -0.000005146988     1.007825032230
         H            3.076025091778    -1.264454378524    -0.000005146988     1.007825032230
         H            0.922512091778    -2.506192378524    -0.000004146988     1.007825032230
         H           -1.993321908222     2.187424621476    -0.000013146988     1.007825032230
         H           -1.872742908222    -2.035592378524     0.000017853012     1.007825032230
         H           -3.460663908222    -0.085966378524     0.000003853012     1.007825032230

  Nuclear repulsion =  399.263249974662529
  Reference energy  = -361.586104813661620

  ==> Basis Set <==

  Basis Set: AUG-CC-PVTZ
    Blend: AUG-CC-PVTZ
    Number of shells: 189
    Number of basis function: 575
    Number of Cartesian functions: 670
    Spherical Harmonics?: true
    Max angular momentum: 3

  ==> CGRSolver (by Rob Parrish) <==

   Number of roots    =         1
   Preconditioning    =    JACOBI
   Convergence cutoff =     1E-06
   Maximum iterations =       100

  ==> CPHFRHamiltonian (by Rob Parrish) <== 

  ==> MemDFJK: Density-Fitted J/K Matrices <==

    J tasked:                   Yes
    K tasked:                   Yes
    wK tasked:                   No
    OpenMP threads:               8
    Memory [MiB]:             22888
    Algorithm:                 Disk
    Schwarz Cutoff:           1E-12
    Mask sparsity (%):       3.3065
    Fitting Condition:        1E-10

   => Auxiliary Basis Set <=

  Basis Set: (AUG-CC-PVTZ AUX)
    Blend: AUG-CC-PVTZ-JKFIT
    Number of shells: 368
    Number of basis function: 1258
    Number of Cartesian functions: 1564
    Spherical Harmonics?: true
    Max angular momentum: 4

  ==> CPHF Iterations <==

  => Iterations <=

             Iter  Converged  Remaining    Residual
  CGR           1          0          1   8.798E-02
  CGR           2          0          1   2.936E-02
  CGR           3          0          1   1.563E-02
  CGR           4          0          1   5.701E-03
  CGR           5          0          1   2.382E-03
  CGR           6          0          1   1.448E-03
  CGR           7          0          1   4.918E-04
  CGR           8          0          1   1.603E-04
  CGR           9          0          1   5.715E-05
  CGR          10          0          1   2.783E-05
  CGR          11          0          1   1.494E-05
  CGR          12          0          1   5.327E-06
  CGR          13          0          1   1.841E-06
  CGR          14          1          0   5.626E-07

    CGRSolver converged.

	-----------------------------------------------------------
	 ==================> DF-MP2 Energies <==================== 
	-----------------------------------------------------------
	 Reference Energy          =    -361.5861048136616205 [Eh]
	 Singles Energy            =      -0.0000000000000000 [Eh]
	 Same-Spin Energy          =      -0.4078670018174962 [Eh]
	 Opposite-Spin Energy      =      -1.2482018171536553 [Eh]
	 Correlation Energy        =      -1.6560688189711517 [Eh]
	 Total Energy              =    -363.2421736326327846 [Eh]
	-----------------------------------------------------------
	 ================> DF-SCS-MP2 Energies <================== 
	-----------------------------------------------------------
	 SCS Same-Spin Scale       =       0.3333333333333333 [-]
	 SCS Opposite-Spin Scale   =       1.2000000000000000 [-]
	 SCS Same-Spin Energy      =      -0.1359556672724987 [Eh]
	 SCS Opposite-Spin Energy  =      -1.4978421805843862 [Eh]
	 SCS Correlation Energy    =      -1.6337978478568851 [Eh]
	 SCS Total Energy          =    -363.2199026615185176 [Eh]
	-----------------------------------------------------------



Properties will be evaluated at  -0.000000,  -0.000000,   0.000000 [a0]

Properties computed using the MP2 density matrix

  Nuclear Dipole Moment: [e a0]
     X:     0.7605      Y:     0.0312      Z:    -0.0000

  Electronic Dipole Moment: [e a0]
     X:    -1.3454      Y:    -0.6421      Z:     0.0000

  Dipole Moment: [e a0]
     X:    -0.5850      Y:    -0.6109      Z:     0.0000     Total:     0.8458

  Dipole Moment: [D]
     X:    -1.4869      Y:    -1.5527      Z:     0.0000     Total:     2.1498


*** tstop() called on node142.bme.utexas.edu at Tue Nov  3 23:13:25 2020
Module time:
	user time   =    1137.62 seconds =      18.96 minutes
	system time =      51.77 seconds =       0.86 minutes
	total time  =        197 seconds =       3.28 minutes
Total time:
	user time   =    1546.08 seconds =      25.77 minutes
	system time =      98.60 seconds =       1.64 minutes
	total time  =        293 seconds =       4.88 minutes

    Psi4 stopped on: Tuesday, 03 November 2020 11:13PM
    Psi4 wall time for execution: 0:04:52.88

*** Psi4 exiting successfully. Buy a developer a beer!
