
    -----------------------------------------------------------------------
          Psi4: An Open-Source Ab Initio Electronic Structure Package
                               Psi4 1.3.2 release

                         Git: Rev {HEAD} ecbda83 


    R. M. Parrish, L. A. Burns, D. G. A. Smith, A. C. Simmonett,
    A. E. DePrince III, E. G. Hohenstein, U. Bozkaya, A. Yu. Sokolov,
    R. Di Remigio, R. M. Richard, J. F. Gonthier, A. M. James,
    H. R. McAlexander, A. Kumar, M. Saitow, X. Wang, B. P. Pritchard,
    P. Verma, H. F. Schaefer III, K. Patkowski, R. A. King, E. F. Valeev,
    F. A. Evangelista, J. M. Turney, T. D. Crawford, and C. D. Sherrill,
    J. Chem. Theory Comput. 13(7) pp 3185--3197 (2017).
    (doi: 10.1021/acs.jctc.7b00174)


                         Additional Contributions by
    P. Kraus, H. Kruse, M. H. Lechner, M. C. Schieber, R. A. Shaw,
    A. Alenaizan, R. Galvelis, Z. L. Glick, S. Lehtola, and J. P. Misiewicz

    -----------------------------------------------------------------------


    Psi4 started on: Tuesday, 03 November 2020 08:16PM

    Process ID: 2544
    Host:       node37.bme.utexas.edu
    PSIDATADIR: /home/xy3866/psi4conda/share/psi4
    Memory:     500.0 MiB
    Threads:    8
    
  ==> Input File <==

--------------------------------------------------------------------------
#psi4
#
memory 32 gb

molecule  {
0 1
  O       -2.5352353    -0.4826263     0.0638780
  O       -0.0903380    -1.4616610     0.1717700
  N        0.9259230     0.4056680    -0.6455280
  C       -1.5147550     0.4028960    -0.3432490
  C        2.2711600    -0.1378510    -0.5222970
  C       -0.1583790    -0.2975740    -0.2472510
  C       -1.6254868     1.6011956     0.5912556
  C        2.8531060     0.0659690     0.8699860
  H       -1.6669500     0.7105100    -1.3901450
  H        2.2044940    -1.2028750    -0.7525030
  H        2.8934660     0.3357800    -1.2867330
  H        0.8101310     1.3771570    -0.9023240
  H       -1.3564630     1.3269670     1.5921410
  H       -2.5982940     2.0269070     0.5395510
  H       -0.8919110     2.4138320     0.2596650
  H        2.9042670     1.1289430     1.1200310
  H        2.2261210    -0.4398610     1.6074960
  H        3.8631580    -0.3501450     0.9292180
  H       -2.0326010    -1.3422410     0.2291570
units angstrom
no_reorient  #important for SAPT in psi4, default
symmetry c1  #important for SAPT in psi4, default
}

set PROPERTIES_ORIGIN ["COM"]
properties('MP2/aug-cc-pvtz', properties = ['dipole'])
--------------------------------------------------------------------------

  Memory set to  29.802 GiB by Python driver.
    SCF Algorithm Type (re)set to DF.

*** tstart() called on node37.bme.utexas.edu
*** at Tue Nov  3 20:16:01 2020

   => Loading Basis Set <=

    Name: AUG-CC-PVTZ
    Role: ORBITAL
    Keyword: BASIS
    atoms 1-2  entry O          line   327 file /home/xy3866/psi4conda/share/psi4/basis/aug-cc-pvtz.gbs 
    atoms 3    entry N          line   281 file /home/xy3866/psi4conda/share/psi4/basis/aug-cc-pvtz.gbs 
    atoms 4-8  entry C          line   235 file /home/xy3866/psi4conda/share/psi4/basis/aug-cc-pvtz.gbs 
    atoms 9-19 entry H          line    36 file /home/xy3866/psi4conda/share/psi4/basis/aug-cc-pvtz.gbs 


         ---------------------------------------------------------
                                   SCF
               by Justin Turney, Rob Parrish, Andy Simmonett
                          and Daniel G. A. Smith
                              RHF Reference
                        8 Threads,  30517 MiB Core
         ---------------------------------------------------------

  ==> Geometry <==

    Molecular point group: c1
    Full point group: C1

    Geometry (in Angstrom), charge = 0, multiplicity = 1:

       Center              X                  Y                   Z               Mass       
    ------------   -----------------  -----------------  -----------------  -----------------
         O           -2.529109856070    -0.484585007558     0.056430834697    15.994914619570
         O           -0.084212556070    -1.463619707558     0.164322834697    15.994914619570
         N            0.932048443930     0.403709292442    -0.652975165303    14.003074004430
         C           -1.508629556070     0.400937292442    -0.350696165303    12.000000000000
         C            2.277285443930    -0.139809707558    -0.529744165303    12.000000000000
         C           -0.152253556070    -0.299532707558    -0.254698165303    12.000000000000
         C           -1.619361356070     1.599236892442     0.583808434697    12.000000000000
         C            2.859231443930     0.064010292442     0.862538834697    12.000000000000
         H           -1.660824556070     0.708551292442    -1.397592165303     1.007825032230
         H            2.210619443930    -1.204833707558    -0.759950165303     1.007825032230
         H            2.899591443930     0.333821292442    -1.294180165303     1.007825032230
         H            0.816256443930     1.375198292442    -0.909771165303     1.007825032230
         H           -1.350337556070     1.325008292442     1.584693834697     1.007825032230
         H           -2.592168556070     2.024948292442     0.532103834697     1.007825032230
         H           -0.885785556070     2.411873292442     0.252217834697     1.007825032230
         H            2.910392443930     1.126984292442     1.112583834697     1.007825032230
         H            2.232246443930    -0.441819707558     1.600048834697     1.007825032230
         H            3.869283443930    -0.352103707558     0.921770834697     1.007825032230
         H           -2.026475556070    -1.344199707558     0.221709834697     1.007825032230

  Running in c1 symmetry.

  Rotational constants: A =      0.12976  B =      0.03907  C =      0.03460 [cm^-1]
  Rotational constants: A =   3890.08942  B =   1171.38183  C =   1037.41313 [MHz]
  Nuclear repulsion =  400.183994389319082

  Charge       = 0
  Multiplicity = 1
  Electrons    = 64
  Nalpha       = 32
  Nbeta        = 32

  ==> Algorithm <==

  SCF Algorithm Type is DF.
  DIIS enabled.
  MOM disabled.
  Fractional occupation disabled.
  Guess Type is SAD.
  Energy threshold   = 1.00e-10
  Density threshold  = 1.00e-10
  Integral threshold = 0.00e+00

  ==> Primary Basis <==

  Basis Set: AUG-CC-PVTZ
    Blend: AUG-CC-PVTZ
    Number of shells: 211
    Number of basis function: 621
    Number of Cartesian functions: 715
    Spherical Harmonics?: true
    Max angular momentum: 3

   => Loading Basis Set <=

    Name: (AUG-CC-PVTZ AUX)
    Role: JKFIT
    Keyword: DF_BASIS_SCF
    atoms 1-2  entry O          line   286 file /home/xy3866/psi4conda/share/psi4/basis/aug-cc-pvtz-jkfit.gbs 
    atoms 3    entry N          line   224 file /home/xy3866/psi4conda/share/psi4/basis/aug-cc-pvtz-jkfit.gbs 
    atoms 4-8  entry C          line   162 file /home/xy3866/psi4conda/share/psi4/basis/aug-cc-pvtz-jkfit.gbs 
    atoms 9-19 entry H          line    70 file /home/xy3866/psi4conda/share/psi4/basis/aug-cc-pvtz-jkfit.gbs 

  ==> Pre-Iterations <==

   -------------------------------------------------------
    Irrep   Nso     Nmo     Nalpha   Nbeta   Ndocc  Nsocc
   -------------------------------------------------------
     A        621     621       0       0       0       0
   -------------------------------------------------------
    Total     621     621      32      32      32       0
   -------------------------------------------------------

  ==> Integral Setup <==

  DFHelper Memory: AOs need 3.760 GiB; user supplied 22.352 GiB. Using in-core AOs.

  ==> MemDFJK: Density-Fitted J/K Matrices <==

    J tasked:                   Yes
    K tasked:                   Yes
    wK tasked:                   No
    OpenMP threads:               8
    Memory [MiB]:             22888
    Algorithm:                 Disk
    Schwarz Cutoff:           1E-12
    Mask sparsity (%):       5.1571
    Fitting Condition:        1E-10

   => Auxiliary Basis Set <=

  Basis Set: (AUG-CC-PVTZ AUX)
    Blend: AUG-CC-PVTZ-JKFIT
    Number of shells: 394
    Number of basis function: 1338
    Number of Cartesian functions: 1653
    Spherical Harmonics?: true
    Max angular momentum: 4

  Minimum eigenvalue in the overlap matrix is 4.2046566396E-06.
  Using Symmetric Orthogonalization.

  SCF Guess: Superposition of Atomic Densities via on-the-fly atomic UHF.

  ==> Iterations <==

                           Total Energy        Delta E     RMS |[F,P]|

   @DF-RHF iter SAD:  -399.19934533287051   -3.99199e+02   0.00000e+00 
   @DF-RHF iter   1:  -399.77379902453578   -5.74454e-01   1.24050e-03 DIIS
   @DF-RHF iter   2:  -400.00890801271970   -2.35109e-01   6.92875e-04 DIIS
   @DF-RHF iter   3:  -400.07646395497818   -6.75559e-02   1.36823e-04 DIIS
   @DF-RHF iter   4:  -400.08072939848938   -4.26544e-03   5.82248e-05 DIIS
   @DF-RHF iter   5:  -400.08146710789617   -7.37709e-04   1.19201e-05 DIIS
   @DF-RHF iter   6:  -400.08151674432889   -4.96364e-05   5.42650e-06 DIIS
   @DF-RHF iter   7:  -400.08152580420983   -9.05988e-06   1.77967e-06 DIIS
   @DF-RHF iter   8:  -400.08152769551731   -1.89131e-06   7.85037e-07 DIIS
   @DF-RHF iter   9:  -400.08152805934986   -3.63833e-07   2.49949e-07 DIIS
   @DF-RHF iter  10:  -400.08152809738181   -3.80319e-08   8.54875e-08 DIIS
   @DF-RHF iter  11:  -400.08152810015986   -2.77805e-09   2.67511e-08 DIIS
   @DF-RHF iter  12:  -400.08152810043788   -2.78021e-10   8.17929e-09 DIIS
   @DF-RHF iter  13:  -400.08152810046204   -2.41585e-11   2.27290e-09 DIIS
   @DF-RHF iter  14:  -400.08152810046545   -3.41061e-12   7.66292e-10 DIIS
   @DF-RHF iter  15:  -400.08152810046482    6.25278e-13   2.38680e-10 DIIS
   @DF-RHF iter  16:  -400.08152810046494   -1.13687e-13   9.87525e-11 DIIS
  Energy and wave function converged.


  ==> Post-Iterations <==

    Orbital Energies [Eh]
    ---------------------

    Doubly Occupied:                                                      

       1A    -20.549838     2A    -20.535020     3A    -15.599404  
       4A    -11.360684     5A    -11.297504     6A    -11.274185  
       7A    -11.230472     8A    -11.224639     9A     -1.398228  
      10A     -1.344108    11A     -1.246564    12A     -1.051155  
      13A     -1.011841    14A     -0.904038    15A     -0.848986  
      16A     -0.794844    17A     -0.741117    18A     -0.676598  
      19A     -0.648846    20A     -0.643331    21A     -0.611069  
      22A     -0.599034    23A     -0.573370    24A     -0.568319  
      25A     -0.542762    26A     -0.528406    27A     -0.521868  
      28A     -0.514029    29A     -0.503035    30A     -0.444742  
      31A     -0.437647    32A     -0.404150  

    Virtual:                                                              

      33A      0.021124    34A      0.032715    35A      0.034184  
      36A      0.041341    37A      0.049802    38A      0.050680  
      39A      0.055633    40A      0.060620    41A      0.065569  
      42A      0.074440    43A      0.077245    44A      0.096355  
      45A      0.105588    46A      0.109816    47A      0.113932  
      48A      0.115895    49A      0.121318    50A      0.122177  
      51A      0.130226    52A      0.136399    53A      0.141844  
      54A      0.146536    55A      0.148940    56A      0.154994  
      57A      0.157402    58A      0.159647    59A      0.167261  
      60A      0.174056    61A      0.180371    62A      0.187598  
      63A      0.191477    64A      0.199617    65A      0.204235  
      66A      0.211180    67A      0.221215    68A      0.232916  
      69A      0.241769    70A      0.246738    71A      0.255893  
      72A      0.261476    73A      0.266301    74A      0.268714  
      75A      0.272138    76A      0.280075    77A      0.280202  
      78A      0.283360    79A      0.295766    80A      0.305280  
      81A      0.310623    82A      0.317626    83A      0.321361  
      84A      0.324472    85A      0.329083    86A      0.335770  
      87A      0.339211    88A      0.346974    89A      0.353752  
      90A      0.356221    91A      0.358312    92A      0.368836  
      93A      0.374438    94A      0.377786    95A      0.380235  
      96A      0.385455    97A      0.388657    98A      0.394630  
      99A      0.403496   100A      0.404889   101A      0.410693  
     102A      0.415287   103A      0.418589   104A      0.422720  
     105A      0.431570   106A      0.435266   107A      0.437540  
     108A      0.444584   109A      0.447621   110A      0.451442  
     111A      0.453743   112A      0.460214   113A      0.469966  
     114A      0.473696   115A      0.475173   116A      0.480567  
     117A      0.484837   118A      0.492249   119A      0.497944  
     120A      0.507661   121A      0.512411   122A      0.513684  
     123A      0.517223   124A      0.522350   125A      0.530658  
     126A      0.539171   127A      0.548646   128A      0.550820  
     129A      0.555179   130A      0.556210   131A      0.557333  
     132A      0.561667   133A      0.570990   134A      0.576693  
     135A      0.585296   136A      0.595098   137A      0.599711  
     138A      0.603143   139A      0.610722   140A      0.621932  
     141A      0.630054   142A      0.632872   143A      0.635527  
     144A      0.646195   145A      0.652506   146A      0.671812  
     147A      0.674802   148A      0.693149   149A      0.699095  
     150A      0.711761   151A      0.726999   152A      0.730907  
     153A      0.736131   154A      0.744712   155A      0.757775  
     156A      0.764696   157A      0.769834   158A      0.776568  
     159A      0.787497   160A      0.794848   161A      0.808100  
     162A      0.816832   163A      0.819563   164A      0.825939  
     165A      0.830863   166A      0.840345   167A      0.845653  
     168A      0.849949   169A      0.857535   170A      0.860732  
     171A      0.877205   172A      0.878514   173A      0.886266  
     174A      0.890522   175A      0.897976   176A      0.902240  
     177A      0.906533   178A      0.915573   179A      0.922087  
     180A      0.929017   181A      0.937200   182A      0.946699  
     183A      0.950312   184A      0.957941   185A      0.961548  
     186A      0.969698   187A      0.973990   188A      0.984850  
     189A      0.993522   190A      0.996337   191A      1.000621  
     192A      1.006206   193A      1.010214   194A      1.021565  
     195A      1.025685   196A      1.031504   197A      1.044938  
     198A      1.047027   199A      1.057552   200A      1.058416  
     201A      1.079401   202A      1.082083   203A      1.089595  
     204A      1.094985   205A      1.102742   206A      1.110853  
     207A      1.111674   208A      1.120640   209A      1.122995  
     210A      1.129332   211A      1.135371   212A      1.143464  
     213A      1.151065   214A      1.157144   215A      1.164002  
     216A      1.172347   217A      1.179826   218A      1.184009  
     219A      1.193140   220A      1.210740   221A      1.215758  
     222A      1.218632   223A      1.226354   224A      1.236267  
     225A      1.242067   226A      1.251079   227A      1.260276  
     228A      1.264380   229A      1.270949   230A      1.275177  
     231A      1.288412   232A      1.295114   233A      1.303709  
     234A      1.307968   235A      1.315798   236A      1.323166  
     237A      1.325337   238A      1.339736   239A      1.350804  
     240A      1.357502   241A      1.361558   242A      1.371737  
     243A      1.381831   244A      1.383053   245A      1.389938  
     246A      1.404610   247A      1.411545   248A      1.426620  
     249A      1.430944   250A      1.439745   251A      1.444586  
     252A      1.448236   253A      1.465929   254A      1.479877  
     255A      1.494679   256A      1.501797   257A      1.505933  
     258A      1.514218   259A      1.519180   260A      1.528445  
     261A      1.534826   262A      1.549508   263A      1.559171  
     264A      1.571407   265A      1.583502   266A      1.589000  
     267A      1.589338   268A      1.615041   269A      1.621470  
     270A      1.630855   271A      1.634856   272A      1.637833  
     273A      1.654414   274A      1.656148   275A      1.666079  
     276A      1.675394   277A      1.688883   278A      1.692133  
     279A      1.697169   280A      1.701890   281A      1.713429  
     282A      1.716438   283A      1.721966   284A      1.738989  
     285A      1.741657   286A      1.755997   287A      1.760600  
     288A      1.765667   289A      1.773462   290A      1.778999  
     291A      1.782981   292A      1.805355   293A      1.809430  
     294A      1.813300   295A      1.821288   296A      1.828951  
     297A      1.851160   298A      1.859907   299A      1.867954  
     300A      1.888470   301A      1.890630   302A      1.903389  
     303A      1.909064   304A      1.910804   305A      1.935047  
     306A      1.940191   307A      1.950798   308A      1.958152  
     309A      1.972210   310A      1.974318   311A      1.980587  
     312A      1.989980   313A      1.997905   314A      2.015803  
     315A      2.020350   316A      2.027168   317A      2.038713  
     318A      2.061371   319A      2.065553   320A      2.085064  
     321A      2.090975   322A      2.103835   323A      2.114507  
     324A      2.130825   325A      2.151339   326A      2.165542  
     327A      2.177840   328A      2.197682   329A      2.204831  
     330A      2.223690   331A      2.236590   332A      2.240784  
     333A      2.250406   334A      2.258977   335A      2.266862  
     336A      2.285919   337A      2.290095   338A      2.290902  
     339A      2.312647   340A      2.317396   341A      2.334502  
     342A      2.340979   343A      2.354615   344A      2.368986  
     345A      2.388329   346A      2.410379   347A      2.422611  
     348A      2.428372   349A      2.459674   350A      2.468945  
     351A      2.478952   352A      2.495977   353A      2.504594  
     354A      2.529379   355A      2.531960   356A      2.569011  
     357A      2.588348   358A      2.595683   359A      2.606954  
     360A      2.623310   361A      2.646672   362A      2.660618  
     363A      2.674976   364A      2.690996   365A      2.716423  
     366A      2.744428   367A      2.760326   368A      2.775923  
     369A      2.791513   370A      2.800865   371A      2.836149  
     372A      2.851677   373A      2.868711   374A      2.873277  
     375A      2.908557   376A      2.942035   377A      2.972783  
     378A      2.990149   379A      2.995567   380A      3.022190  
     381A      3.030785   382A      3.042201   383A      3.070953  
     384A      3.099809   385A      3.118557   386A      3.144118  
     387A      3.180037   388A      3.197931   389A      3.232153  
     390A      3.239190   391A      3.249910   392A      3.299409  
     393A      3.345566   394A      3.360210   395A      3.378353  
     396A      3.398355   397A      3.413003   398A      3.439081  
     399A      3.451896   400A      3.474913   401A      3.485572  
     402A      3.498468   403A      3.508441   404A      3.540979  
     405A      3.571142   406A      3.584044   407A      3.614905  
     408A      3.629648   409A      3.641319   410A      3.650244  
     411A      3.659118   412A      3.673034   413A      3.676695  
     414A      3.689605   415A      3.700321   416A      3.710301  
     417A      3.714347   418A      3.738618   419A      3.751881  
     420A      3.762364   421A      3.777125   422A      3.784212  
     423A      3.808446   424A      3.822395   425A      3.834969  
     426A      3.852147   427A      3.868831   428A      3.879821  
     429A      3.898123   430A      3.910595   431A      3.918692  
     432A      3.933567   433A      3.949759   434A      3.952365  
     435A      3.965323   436A      3.978415   437A      3.984755  
     438A      3.996975   439A      4.004076   440A      4.027213  
     441A      4.030928   442A      4.047311   443A      4.052047  
     444A      4.062550   445A      4.073602   446A      4.088214  
     447A      4.094443   448A      4.102325   449A      4.120891  
     450A      4.129869   451A      4.139046   452A      4.154059  
     453A      4.175700   454A      4.190727   455A      4.222497  
     456A      4.226430   457A      4.233004   458A      4.246760  
     459A      4.262524   460A      4.272300   461A      4.277801  
     462A      4.299267   463A      4.311045   464A      4.315424  
     465A      4.332846   466A      4.346309   467A      4.368801  
     468A      4.380859   469A      4.404607   470A      4.431864  
     471A      4.436392   472A      4.447576   473A      4.486443  
     474A      4.500039   475A      4.505416   476A      4.515126  
     477A      4.530656   478A      4.550321   479A      4.564902  
     480A      4.574241   481A      4.594846   482A      4.609110  
     483A      4.620201   484A      4.629058   485A      4.645801  
     486A      4.666652   487A      4.682192   488A      4.703261  
     489A      4.715783   490A      4.725002   491A      4.734656  
     492A      4.768431   493A      4.776045   494A      4.806080  
     495A      4.827846   496A      4.832116   497A      4.838232  
     498A      4.853808   499A      4.863716   500A      4.871692  
     501A      4.877013   502A      4.916781   503A      4.928130  
     504A      4.936419   505A      4.947497   506A      4.967995  
     507A      4.977440   508A      4.991315   509A      5.003708  
     510A      5.032411   511A      5.054859   512A      5.062635  
     513A      5.080946   514A      5.099385   515A      5.107223  
     516A      5.133706   517A      5.157774   518A      5.176731  
     519A      5.186864   520A      5.214125   521A      5.232959  
     522A      5.241631   523A      5.272929   524A      5.278576  
     525A      5.295390   526A      5.306720   527A      5.329851  
     528A      5.350628   529A      5.359771   530A      5.379581  
     531A      5.383492   532A      5.401520   533A      5.413318  
     534A      5.425041   535A      5.445549   536A      5.451630  
     537A      5.465740   538A      5.495580   539A      5.509906  
     540A      5.526043   541A      5.547065   542A      5.571680  
     543A      5.582304   544A      5.599759   545A      5.622546  
     546A      5.645037   547A      5.676285   548A      5.689746  
     549A      5.706709   550A      5.728471   551A      5.757163  
     552A      5.784243   553A      5.787755   554A      5.835499  
     555A      5.865554   556A      5.873208   557A      5.920264  
     558A      5.929808   559A      5.958881   560A      5.987448  
     561A      6.003261   562A      6.074985   563A      6.089328  
     564A      6.159381   565A      6.180626   566A      6.206990  
     567A      6.218349   568A      6.230847   569A      6.235815  
     570A      6.271409   571A      6.285338   572A      6.303313  
     573A      6.338567   574A      6.351956   575A      6.418052  
     576A      6.475507   577A      6.496353   578A      6.616164  
     579A      6.728281   580A      6.746294   581A      6.753603  
     582A      6.800891   583A      6.822525   584A      6.857269  
     585A      6.866348   586A      6.882278   587A      6.912037  
     588A      6.940000   589A      6.990683   590A      7.023052  
     591A      7.034514   592A      7.092984   593A      7.117101  
     594A      7.152558   595A      7.231536   596A      7.254497  
     597A      7.295510   598A      7.367144   599A      7.456821  
     600A      7.485729   601A      7.542632   602A      7.575874  
     603A      7.643649   604A      7.690551   605A      7.758007  
     606A      7.775564   607A      7.834566   608A      7.919323  
     609A      7.989488   610A      8.049034   611A      8.148989  
     612A      8.321844   613A      8.493324   614A     15.859888  
     615A     16.090028   616A     17.340215   617A     17.747423  
     618A     18.037473   619A     18.494921   620A     18.974433  
     621A     20.769503  

    Final Occupation by Irrep:
              A 
    DOCC [    32 ]

  @DF-RHF Final Energy:  -400.08152810046494

   => Energetics <=

    Nuclear Repulsion Energy =            400.1839943893190821
    One-Electron Energy =               -1339.2713780466106073
    Two-Electron Energy =                 539.0058555568266456
    Total Energy =                       -400.0815281004648796

Computation Completed

*** tstop() called on node37.bme.utexas.edu at Tue Nov  3 20:17:23 2020
Module time:
	user time   =     290.80 seconds =       4.85 minutes
	system time =      63.18 seconds =       1.05 minutes
	total time  =         82 seconds =       1.37 minutes
Total time:
	user time   =     290.80 seconds =       4.85 minutes
	system time =      63.18 seconds =       1.05 minutes
	total time  =         82 seconds =       1.37 minutes
   => Loading Basis Set <=

    Name: (AUG-CC-PVTZ AUX)
    Role: RIFIT
    Keyword: DF_BASIS_MP2
    atoms 1-2  entry O          line   264 file /home/xy3866/psi4conda/share/psi4/basis/aug-cc-pvtz-ri.gbs 
    atoms 3    entry N          line   206 file /home/xy3866/psi4conda/share/psi4/basis/aug-cc-pvtz-ri.gbs 
    atoms 4-8  entry C          line   148 file /home/xy3866/psi4conda/share/psi4/basis/aug-cc-pvtz-ri.gbs 
    atoms 9-19 entry H          line    30 file /home/xy3866/psi4conda/share/psi4/basis/aug-cc-pvtz-ri.gbs 


*** tstart() called on node37.bme.utexas.edu
*** at Tue Nov  3 20:17:23 2020


  //>>>>>>>>>>>>>>>>>>>>>>>>>>>>>>>>>>>//
  //               DFMP2               //
  //<<<<<<<<<<<<<<<<<<<<<<<<<<<<<<<<<<<//

	 --------------------------------------------------------
	                          DF-MP2                         
	      2nd-Order Density-Fitted Moller-Plesset Theory     
	              RMP2 Wavefunction,   8 Threads             
	                                                         
	        Rob Parrish, Justin Turney, Andy Simmonett,      
	           Ed Hohenstein, and C. David Sherrill          
	 --------------------------------------------------------

   => Auxiliary Basis Set <=

  Basis Set: (AUG-CC-PVTZ AUX)
    Blend: AUG-CC-PVTZ-RI
    Number of shells: 378
    Number of basis function: 1354
    Number of Cartesian functions: 1693
    Spherical Harmonics?: true
    Max angular momentum: 4

	 --------------------------------------------------------
	                 NBF =   621, NAUX =  1354
	 --------------------------------------------------------
	   CLASS    FOCC     OCC    AOCC    AVIR     VIR    FVIR
	   PAIRS       0      32      32     589     589       0
	 --------------------------------------------------------

  DFHelper Memory: AOs need 3.760 GiB; user supplied 22.352 GiB. Using in-core AOs.


         ------------------------------------------------------------
                                     CPHF                           
                                  Rob Parrish                       
         ------------------------------------------------------------

  ==> Geometry <==

    Molecular point group: c1
    Full point group: C1

    Geometry (in Angstrom), charge = 0, multiplicity = 1:

       Center              X                  Y                   Z               Mass       
    ------------   -----------------  -----------------  -----------------  -----------------
         O           -2.529109856070    -0.484585007558     0.056430834697    15.994914619570
         O           -0.084212556070    -1.463619707558     0.164322834697    15.994914619570
         N            0.932048443930     0.403709292442    -0.652975165303    14.003074004430
         C           -1.508629556070     0.400937292442    -0.350696165303    12.000000000000
         C            2.277285443930    -0.139809707558    -0.529744165303    12.000000000000
         C           -0.152253556070    -0.299532707558    -0.254698165303    12.000000000000
         C           -1.619361356070     1.599236892442     0.583808434697    12.000000000000
         C            2.859231443930     0.064010292442     0.862538834697    12.000000000000
         H           -1.660824556070     0.708551292442    -1.397592165303     1.007825032230
         H            2.210619443930    -1.204833707558    -0.759950165303     1.007825032230
         H            2.899591443930     0.333821292442    -1.294180165303     1.007825032230
         H            0.816256443930     1.375198292442    -0.909771165303     1.007825032230
         H           -1.350337556070     1.325008292442     1.584693834697     1.007825032230
         H           -2.592168556070     2.024948292442     0.532103834697     1.007825032230
         H           -0.885785556070     2.411873292442     0.252217834697     1.007825032230
         H            2.910392443930     1.126984292442     1.112583834697     1.007825032230
         H            2.232246443930    -0.441819707558     1.600048834697     1.007825032230
         H            3.869283443930    -0.352103707558     0.921770834697     1.007825032230
         H           -2.026475556070    -1.344199707558     0.221709834697     1.007825032230

  Nuclear repulsion =  400.183994389319025
  Reference energy  = -400.081528100464936

  ==> Basis Set <==

  Basis Set: AUG-CC-PVTZ
    Blend: AUG-CC-PVTZ
    Number of shells: 211
    Number of basis function: 621
    Number of Cartesian functions: 715
    Spherical Harmonics?: true
    Max angular momentum: 3

  ==> CGRSolver (by Rob Parrish) <==

   Number of roots    =         1
   Preconditioning    =    JACOBI
   Convergence cutoff =     1E-06
   Maximum iterations =       100

  ==> CPHFRHamiltonian (by Rob Parrish) <== 

  ==> MemDFJK: Density-Fitted J/K Matrices <==

    J tasked:                   Yes
    K tasked:                   Yes
    wK tasked:                   No
    OpenMP threads:               8
    Memory [MiB]:             22888
    Algorithm:                 Disk
    Schwarz Cutoff:           1E-12
    Mask sparsity (%):       5.1571
    Fitting Condition:        1E-10

   => Auxiliary Basis Set <=

  Basis Set: (AUG-CC-PVTZ AUX)
    Blend: AUG-CC-PVTZ-JKFIT
    Number of shells: 394
    Number of basis function: 1338
    Number of Cartesian functions: 1653
    Spherical Harmonics?: true
    Max angular momentum: 4

  ==> CPHF Iterations <==

  => Iterations <=

             Iter  Converged  Remaining    Residual
  CGR           1          0          1   1.122E-01
  CGR           2          0          1   3.264E-02
  CGR           3          0          1   1.258E-02
  CGR           4          0          1   3.381E-03
  CGR           5          0          1   1.270E-03
  CGR           6          0          1   3.826E-04
  CGR           7          0          1   1.281E-04
  CGR           8          0          1   4.635E-05
  CGR           9          0          1   2.239E-05
  CGR          10          0          1   8.117E-06
  CGR          11          0          1   2.098E-06
  CGR          12          1          0   5.271E-07

    CGRSolver converged.

	-----------------------------------------------------------
	 ==================> DF-MP2 Energies <==================== 
	-----------------------------------------------------------
	 Reference Energy          =    -400.0815281004649364 [Eh]
	 Singles Energy            =      -0.0000000000000000 [Eh]
	 Same-Spin Energy          =      -0.4026138830744633 [Eh]
	 Opposite-Spin Energy      =      -1.3088224425675909 [Eh]
	 Correlation Energy        =      -1.7114363256420542 [Eh]
	 Total Energy              =    -401.7929644261070052 [Eh]
	-----------------------------------------------------------
	 ================> DF-SCS-MP2 Energies <================== 
	-----------------------------------------------------------
	 SCS Same-Spin Scale       =       0.3333333333333333 [-]
	 SCS Opposite-Spin Scale   =       1.2000000000000000 [-]
	 SCS Same-Spin Energy      =      -0.1342046276914878 [Eh]
	 SCS Opposite-Spin Energy  =      -1.5705869310811091 [Eh]
	 SCS Correlation Energy    =      -1.7047915587725968 [Eh]
	 SCS Total Energy          =    -401.7863196592375061 [Eh]
	-----------------------------------------------------------



Properties will be evaluated at  -0.000000,   0.000000,  -0.000000 [a0]

Properties computed using the MP2 density matrix

  Nuclear Dipole Moment: [e a0]
     X:     6.0059      Y:     5.5800      Z:     1.7501

  Electronic Dipole Moment: [e a0]
     X:    -4.7768      Y:    -4.3728      Z:    -2.1865

  Dipole Moment: [e a0]
     X:     1.2291      Y:     1.2072      Z:    -0.4364     Total:     1.7772

  Dipole Moment: [D]
     X:     3.1241      Y:     3.0684      Z:    -1.1093     Total:     4.5173


*** tstop() called on node37.bme.utexas.edu at Tue Nov  3 20:20:17 2020
Module time:
	user time   =     822.49 seconds =      13.71 minutes
	system time =     119.20 seconds =       1.99 minutes
	total time  =        174 seconds =       2.90 minutes
Total time:
	user time   =    1114.52 seconds =      18.58 minutes
	system time =     182.48 seconds =       3.04 minutes
	total time  =        256 seconds =       4.27 minutes

    Psi4 stopped on: Tuesday, 03 November 2020 08:20PM
    Psi4 wall time for execution: 0:04:16.55

*** Psi4 exiting successfully. Buy a developer a beer!
