177_3-Chloropropanol Gaussian SP Calculation on node73.bme.utexas.edu   
Freq      RMP2-FC                                                     6-31G(d)            
Number of atoms                            I               12
Info1-9                                    I   N=           9
          23          22        1002           0           0         100
           6           2           1
Charge                                     I                0
Multiplicity                               I                1
Number of electrons                        I               50
Number of alpha electrons                  I               25
Number of beta electrons                   I               25
Number of basis functions                  I               93
Number of independent functions            I               93
Number of point charges in /Mol/           I                0
Number of translation vectors              I                0
Atomic numbers                             I   N=          12
          17           8           6           6           6           1
           1           1           1           1           1           1
Nuclear charges                            R   N=          12
  1.70000000E+01  8.00000000E+00  6.00000000E+00  6.00000000E+00  6.00000000E+00
  1.00000000E+00  1.00000000E+00  1.00000000E+00  1.00000000E+00  1.00000000E+00
  1.00000000E+00  1.00000000E+00
Current cartesian coordinates              R   N=          36
 -3.56464356E+00 -9.51912699E-01 -1.60314035E-01  5.01776553E+00 -8.52028534E-01
 -3.49183226E-01  1.02166579E+00  1.44801093E+00 -5.91933964E-01  2.53486686E+00
 -6.46191372E-01  6.78956489E-01 -1.63408212E+00  1.76026629E+00  4.50129939E-01
  9.55366617E-01  1.09050500E+00 -2.62698402E+00  2.00529590E+00  3.25664407E+00
 -3.16228772E-01  2.59209718E+00 -3.38592964E-01  2.73567973E+00  1.64804856E+00
 -2.47709548E+00  3.45334037E-01 -1.60937111E+00  2.02975548E+00  2.49655516E+00
 -2.58481237E+00  3.37218976E+00 -4.14247263E-01  5.91548830E+00  6.92823193E-01
  7.57807582E-02
Force Field                                I                0
Int Atom Types                             I   N=          12
           0           0           0           0           0           0
           0           0           0           0           0           0
MM charges                                 R   N=          12
  0.00000000E+00  0.00000000E+00  0.00000000E+00  0.00000000E+00  0.00000000E+00
  0.00000000E+00  0.00000000E+00  0.00000000E+00  0.00000000E+00  0.00000000E+00
  0.00000000E+00  0.00000000E+00
Integer atomic weights                     I   N=          12
          35          16          12          12          12           1
           1           1           1           1           1           1
Real atomic weights                        R   N=          12
  3.49688527E+01  1.59949146E+01  1.20000000E+01  1.20000000E+01  1.20000000E+01
  1.00782504E+00  1.00782504E+00  1.00782504E+00  1.00782504E+00  1.00782504E+00
  1.00782504E+00  1.00782504E+00
Atom fragment info                         I   N=          12
           0           0           0           0           0           0
           0           0           0           0           0           0
Atom residue num                           I   N=          12
           0           0           0           0           0           0
           0           0           0           0           0           0
Nuclear spins                              I   N=          12
           3           0           0           0           0           1
           1           1           1           1           1           1
Nuclear ZEff                               R   N=          12
 -1.42400000E+01 -5.60000000E+00 -3.60000000E+00 -3.60000000E+00 -3.60000000E+00
 -1.00000000E+00 -1.00000000E+00 -1.00000000E+00 -1.00000000E+00 -1.00000000E+00
 -1.00000000E+00 -1.00000000E+00
Nuclear QMom                               R   N=          12
 -8.16500000E+00  0.00000000E+00  0.00000000E+00  0.00000000E+00  0.00000000E+00
  0.00000000E+00  0.00000000E+00  0.00000000E+00  0.00000000E+00  0.00000000E+00
  0.00000000E+00  0.00000000E+00
Nuclear GFac                               R   N=          12
  8.21874000E-01  0.00000000E+00  0.00000000E+00  0.00000000E+00  0.00000000E+00
  2.79284600E+00  2.79284600E+00  2.79284600E+00  2.79284600E+00  2.79284600E+00
  2.79284600E+00  2.79284600E+00
MicOpt                                     I   N=          12
          -1          -1          -1          -1          -1          -1
          -1          -1          -1          -1          -1          -1
Number of contracted shells                I               35
Number of primitive shells                 I               89
Pure/Cartesian d shells                    I                1
Pure/Cartesian f shells                    I                0
Highest angular momentum                   I                2
Largest degree of contraction              I                6
Shell types                                I   N=          35
           0          -1          -1          -1           2           0
          -1          -1           2           0          -1          -1
           2           0          -1          -1           2           0
          -1          -1           2           0           0           0
           0           0           0           0           0           0
           0           0           0           0           0
Number of primitives per shell             I   N=          35
           6           6           3           1           1           6
           3           1           1           6           3           1
           1           6           3           1           1           6
           3           1           1           3           1           3
           1           3           1           3           1           3
           1           3           1           3           1
Shell to atom map                          I   N=          35
           1           1           1           1           1           2
           2           2           2           3           3           3
           3           4           4           4           4           5
           5           5           5           6           6           7
           7           8           8           9           9          10
          10          11          11          12          12
Primitive exponents                        R   N=          89
  2.51801000E+04  3.78035000E+03  8.60474000E+02  2.42145000E+02  7.73349000E+01
  2.62470000E+01  4.91765000E+02  1.16984000E+02  3.74153000E+01  1.37834000E+01
  5.45215000E+00  2.22588000E+00  3.18649000E+00  1.14427000E+00  4.20377000E-01
  1.42657000E-01  7.50000000E-01  5.48467166E+03  8.25234946E+02  1.88046958E+02
  5.29645000E+01  1.68975704E+01  5.79963534E+00  1.55396162E+01  3.59993359E+00
  1.01376175E+00  2.70005823E-01  8.00000000E-01  3.04752488E+03  4.57369518E+02
  1.03948685E+02  2.92101553E+01  9.28666296E+00  3.16392696E+00  7.86827235E+00
  1.88128854E+00  5.44249258E-01  1.68714478E-01  8.00000000E-01  3.04752488E+03
  4.57369518E+02  1.03948685E+02  2.92101553E+01  9.28666296E+00  3.16392696E+00
  7.86827235E+00  1.88128854E+00  5.44249258E-01  1.68714478E-01  8.00000000E-01
  3.04752488E+03  4.57369518E+02  1.03948685E+02  2.92101553E+01  9.28666296E+00
  3.16392696E+00  7.86827235E+00  1.88128854E+00  5.44249258E-01  1.68714478E-01
  8.00000000E-01  1.87311370E+01  2.82539436E+00  6.40121692E-01  1.61277759E-01
  1.87311370E+01  2.82539436E+00  6.40121692E-01  1.61277759E-01  1.87311370E+01
  2.82539436E+00  6.40121692E-01  1.61277759E-01  1.87311370E+01  2.82539436E+00
  6.40121692E-01  1.61277759E-01  1.87311370E+01  2.82539436E+00  6.40121692E-01
  1.61277759E-01  1.87311370E+01  2.82539436E+00  6.40121692E-01  1.61277759E-01
  1.87311370E+01  2.82539436E+00  6.40121692E-01  1.61277759E-01
Contraction coefficients                   R   N=          89
  1.83295985E-03  1.40341988E-02  6.90973943E-02  2.37451980E-01  4.83033960E-01
  3.39855972E-01 -2.29739142E-03 -3.07137189E-02 -1.12528069E-01  4.50163278E-02
  5.89353363E-01  4.65206287E-01 -2.51828028E-01  6.15892514E-02  1.06018433E+00
  1.00000000E+00  1.00000000E+00  1.83107443E-03  1.39501722E-02  6.84450781E-02
  2.32714336E-01  4.70192898E-01  3.58520853E-01 -1.10777550E-01 -1.48026263E-01
  1.13076702E+00  1.00000000E+00  1.00000000E+00  1.83473713E-03  1.40373228E-02
  6.88426223E-02  2.32184443E-01  4.67941348E-01  3.62311985E-01 -1.19332420E-01
 -1.60854152E-01  1.14345644E+00  1.00000000E+00  1.00000000E+00  1.83473713E-03
  1.40373228E-02  6.88426223E-02  2.32184443E-01  4.67941348E-01  3.62311985E-01
 -1.19332420E-01 -1.60854152E-01  1.14345644E+00  1.00000000E+00  1.00000000E+00
  1.83473713E-03  1.40373228E-02  6.88426223E-02  2.32184443E-01  4.67941348E-01
  3.62311985E-01 -1.19332420E-01 -1.60854152E-01  1.14345644E+00  1.00000000E+00
  1.00000000E+00  3.34946043E-02  2.34726953E-01  8.13757326E-01  1.00000000E+00
  3.34946043E-02  2.34726953E-01  8.13757326E-01  1.00000000E+00  3.34946043E-02
  2.34726953E-01  8.13757326E-01  1.00000000E+00  3.34946043E-02  2.34726953E-01
  8.13757326E-01  1.00000000E+00  3.34946043E-02  2.34726953E-01  8.13757326E-01
  1.00000000E+00  3.34946043E-02  2.34726953E-01  8.13757326E-01  1.00000000E+00
  3.34946043E-02  2.34726953E-01  8.13757326E-01  1.00000000E+00
P(S=P) Contraction coefficients            R   N=          89
  0.00000000E+00  0.00000000E+00  0.00000000E+00  0.00000000E+00  0.00000000E+00
  0.00000000E+00  3.98940088E-03  3.03177067E-02  1.29880029E-01  3.27951072E-01
  4.53527100E-01  2.52154056E-01 -1.42993147E-02  3.23572333E-01  7.43507765E-01
  1.00000000E+00  0.00000000E+00  0.00000000E+00  0.00000000E+00  0.00000000E+00
  0.00000000E+00  0.00000000E+00  0.00000000E+00  7.08742682E-02  3.39752839E-01
  7.27158577E-01  1.00000000E+00  0.00000000E+00  0.00000000E+00  0.00000000E+00
  0.00000000E+00  0.00000000E+00  0.00000000E+00  0.00000000E+00  6.89990666E-02
  3.16423961E-01  7.44308291E-01  1.00000000E+00  0.00000000E+00  0.00000000E+00
  0.00000000E+00  0.00000000E+00  0.00000000E+00  0.00000000E+00  0.00000000E+00
  6.89990666E-02  3.16423961E-01  7.44308291E-01  1.00000000E+00  0.00000000E+00
  0.00000000E+00  0.00000000E+00  0.00000000E+00  0.00000000E+00  0.00000000E+00
  0.00000000E+00  6.89990666E-02  3.16423961E-01  7.44308291E-01  1.00000000E+00
  0.00000000E+00  0.00000000E+00  0.00000000E+00  0.00000000E+00  0.00000000E+00
  0.00000000E+00  0.00000000E+00  0.00000000E+00  0.00000000E+00  0.00000000E+00
  0.00000000E+00  0.00000000E+00  0.00000000E+00  0.00000000E+00  0.00000000E+00
  0.00000000E+00  0.00000000E+00  0.00000000E+00  0.00000000E+00  0.00000000E+00
  0.00000000E+00  0.00000000E+00  0.00000000E+00  0.00000000E+00  0.00000000E+00
  0.00000000E+00  0.00000000E+00  0.00000000E+00  0.00000000E+00
Coordinates of each shell                  R   N=         105
 -3.56464356E+00 -9.51912699E-01 -1.60314035E-01 -3.56464356E+00 -9.51912699E-01
 -1.60314035E-01 -3.56464356E+00 -9.51912699E-01 -1.60314035E-01 -3.56464356E+00
 -9.51912699E-01 -1.60314035E-01 -3.56464356E+00 -9.51912699E-01 -1.60314035E-01
  5.01776553E+00 -8.52028534E-01 -3.49183226E-01  5.01776553E+00 -8.52028534E-01
 -3.49183226E-01  5.01776553E+00 -8.52028534E-01 -3.49183226E-01  5.01776553E+00
 -8.52028534E-01 -3.49183226E-01  1.02166579E+00  1.44801093E+00 -5.91933964E-01
  1.02166579E+00  1.44801093E+00 -5.91933964E-01  1.02166579E+00  1.44801093E+00
 -5.91933964E-01  1.02166579E+00  1.44801093E+00 -5.91933964E-01  2.53486686E+00
 -6.46191372E-01  6.78956489E-01  2.53486686E+00 -6.46191372E-01  6.78956489E-01
  2.53486686E+00 -6.46191372E-01  6.78956489E-01  2.53486686E+00 -6.46191372E-01
  6.78956489E-01 -1.63408212E+00  1.76026629E+00  4.50129939E-01 -1.63408212E+00
  1.76026629E+00  4.50129939E-01 -1.63408212E+00  1.76026629E+00  4.50129939E-01
 -1.63408212E+00  1.76026629E+00  4.50129939E-01  9.55366617E-01  1.09050500E+00
 -2.62698402E+00  9.55366617E-01  1.09050500E+00 -2.62698402E+00  2.00529590E+00
  3.25664407E+00 -3.16228772E-01  2.00529590E+00  3.25664407E+00 -3.16228772E-01
  2.59209718E+00 -3.38592964E-01  2.73567973E+00  2.59209718E+00 -3.38592964E-01
  2.73567973E+00  1.64804856E+00 -2.47709548E+00  3.45334037E-01  1.64804856E+00
 -2.47709548E+00  3.45334037E-01 -1.60937111E+00  2.02975548E+00  2.49655516E+00
 -1.60937111E+00  2.02975548E+00  2.49655516E+00 -2.58481237E+00  3.37218976E+00
 -4.14247263E-01 -2.58481237E+00  3.37218976E+00 -4.14247263E-01  5.91548830E+00
  6.92823193E-01  7.57807582E-02  5.91548830E+00  6.92823193E-01  7.57807582E-02
Constraint Structure                       R   N=          36
 -3.56464356E+00 -9.51912699E-01 -1.60314035E-01  5.01776553E+00 -8.52028534E-01
 -3.49183226E-01  1.02166579E+00  1.44801093E+00 -5.91933964E-01  2.53486686E+00
 -6.46191372E-01  6.78956489E-01 -1.63408212E+00  1.76026629E+00  4.50129939E-01
  9.55366617E-01  1.09050500E+00 -2.62698402E+00  2.00529590E+00  3.25664407E+00
 -3.16228772E-01  2.59209718E+00 -3.38592964E-01  2.73567973E+00  1.64804856E+00
 -2.47709548E+00  3.45334037E-01 -1.60937111E+00  2.02975548E+00  2.49655516E+00
 -2.58481237E+00  3.37218976E+00 -4.14247263E-01  5.91548830E+00  6.92823193E-01
  7.57807582E-02
Num ILSW                                   I              100
ILSW                                       I   N=         100
           0           1           0           0           2           0
           0           0           0           0           0          -1
           0           0           0           0           0           0
           0           0           0           0           1           0
           1           0           0           0           0           0
           0           0      100000           0          -1           0
           0           0           0           0           0           0
           0           0           0           1           1           0
           0           0           1           0           0           0
           0           0           4          40           0           0
           0           0           0           0           0           0
           0           0           0           0           0           0
           0           0           0           0           0           0
           0           0           0           0           0           0
           0           0           0           0           0           0
           0           0           0           0           0           0
           0           0           0           0
Num RLSW                                   I               40
RLSW                                       R   N=          40
  1.00000000E+00  1.00000000E+00  1.00000000E+00  1.00000000E+00  1.00000000E+00
  0.00000000E+00  0.00000000E+00  1.00000000E+00  0.00000000E+00  0.00000000E+00
  0.00000000E+00  0.00000000E+00  1.00000000E+00  0.00000000E+00  0.00000000E+00
  0.00000000E+00  0.00000000E+00  1.00000000E+00  0.00000000E+00  0.00000000E+00
  0.00000000E+00  0.00000000E+00  1.00000000E+00  0.00000000E+00  0.00000000E+00
  0.00000000E+00  0.00000000E+00  1.00000000E+00  0.00000000E+00  0.00000000E+00
  0.00000000E+00  0.00000000E+00  0.00000000E+00  0.00000000E+00  0.00000000E+00
  0.00000000E+00  0.00000000E+00  0.00000000E+00  1.00000000E+00  1.00000000E+00
MxBond                                     I                4
NBond                                      I   N=          12
           1           2           4           4           4           1
           1           1           1           1           1           1
IBond                                      I   N=          48
           5           0           0           0           4          12
           0           0           4           5           6           7
           2           3           8           9           1           3
          10          11           3           0           0           0
           3           0           0           0           4           0
           0           0           4           0           0           0
           5           0           0           0           5           0
           0           0           2           0           0           0
RBond                                      R   N=          48
  1.00000000E+00  0.00000000E+00  0.00000000E+00  0.00000000E+00  1.00000000E+00
  1.00000000E+00  0.00000000E+00  0.00000000E+00  1.00000000E+00  1.00000000E+00
  1.00000000E+00  1.00000000E+00  1.00000000E+00  1.00000000E+00  1.00000000E+00
  1.00000000E+00  1.00000000E+00  1.00000000E+00  1.00000000E+00  1.00000000E+00
  1.00000000E+00  0.00000000E+00  0.00000000E+00  0.00000000E+00  1.00000000E+00
  0.00000000E+00  0.00000000E+00  0.00000000E+00  1.00000000E+00  0.00000000E+00
  0.00000000E+00  0.00000000E+00  1.00000000E+00  0.00000000E+00  0.00000000E+00
  0.00000000E+00  1.00000000E+00  0.00000000E+00  0.00000000E+00  0.00000000E+00
  1.00000000E+00  0.00000000E+00  0.00000000E+00  0.00000000E+00  1.00000000E+00
  0.00000000E+00  0.00000000E+00  0.00000000E+00
Virial Ratio                               R      2.000853255901361E+00
SCF Energy                                 R     -6.520094524198988E+02
MP2 Energy                                 R     -6.527107247768889E+02
Total Energy                               R     -6.527107247768889E+02
Post-SCF wavefunction norm                 R      1.565740083863121E+00
RMS Force                                  R      3.153697232295243E-07
RMS Density                                R      1.112306909549455E-09
External E-field                           R   N=          35
  0.00000000E+00  0.00000000E+00  0.00000000E+00  0.00000000E+00  0.00000000E+00
  0.00000000E+00  0.00000000E+00  0.00000000E+00  0.00000000E+00  0.00000000E+00
  0.00000000E+00  0.00000000E+00  0.00000000E+00  0.00000000E+00  0.00000000E+00
  0.00000000E+00  0.00000000E+00  0.00000000E+00  0.00000000E+00  0.00000000E+00
  0.00000000E+00  0.00000000E+00  0.00000000E+00  0.00000000E+00  0.00000000E+00
  0.00000000E+00  0.00000000E+00  0.00000000E+00  0.00000000E+00  0.00000000E+00
  0.00000000E+00  0.00000000E+00  0.00000000E+00  0.00000000E+00  0.00000000E+00
IOpCl                                      I                0
IROHF                                      I                0
Alpha Orbital Energies                     R   N=          93
 -1.04811846E+02 -2.05670233E+01 -1.13017081E+01 -1.12829049E+01 -1.12449858E+01
 -1.05459573E+01 -8.01528130E+00 -8.01204991E+00 -8.01200314E+00 -1.35769224E+00
 -1.14748333E+00 -1.03638071E+00 -9.13135313E-01 -8.21025742E-01 -7.01772109E-01
 -6.46913112E-01 -6.33644784E-01 -6.07617349E-01 -5.67857669E-01 -5.39714348E-01
 -5.18851057E-01 -4.86960361E-01 -4.51568309E-01 -4.35202807E-01 -4.29575064E-01
  1.93321674E-01  2.10733230E-01  2.41927113E-01  2.66258270E-01  2.84147527E-01
  3.05247121E-01  3.14385189E-01  3.40750828E-01  3.85012521E-01  4.02379671E-01
  4.25814174E-01  5.90065862E-01  6.33473703E-01  6.57256270E-01  6.79192520E-01
  7.23288665E-01  7.30766148E-01  7.74839105E-01  8.05435935E-01  8.23474395E-01
  8.99005816E-01  9.14933567E-01  9.45307172E-01  9.79998617E-01  1.06881504E+00
  1.10226920E+00  1.12163347E+00  1.14870132E+00  1.15781811E+00  1.16385353E+00
  1.17234441E+00  1.18691991E+00  1.19606819E+00  1.21974203E+00  1.25646199E+00
  1.27828630E+00  1.31264743E+00  1.37319728E+00  1.40960676E+00  1.46895811E+00
  1.62886221E+00  1.71817136E+00  1.74576688E+00  1.79989037E+00  1.86828088E+00
  1.91148369E+00  2.08089010E+00  2.11223190E+00  2.20914786E+00  2.24539582E+00
  2.26450394E+00  2.28384327E+00  2.41852321E+00  2.48452900E+00  2.56065632E+00
  2.56334388E+00  2.63601405E+00  2.73471611E+00  2.75254208E+00  2.81415040E+00
  2.92348258E+00  3.07501246E+00  3.22725942E+00  4.16592721E+00  4.52634508E+00
  4.67832306E+00  4.77051809E+00  4.88330975E+00
Alpha MO coefficients                      R   N=        8649
  9.96116322E-01  1.46448562E-02  3.48469270E-05  4.28659291E-05  1.00537035E-05
 -1.77395626E-02 -4.43191665E-05 -3.61591895E-05 -8.61526712E-06  1.51599008E-03
  6.73207107E-05  5.76837485E-05  1.30938736E-05  6.26007437E-03  6.26338794E-03
  6.25748212E-03  1.07667238E-06 -5.58110384E-08  1.49083252E-06  4.10491147E-06
  1.92160482E-05 -2.29924614E-06  1.14325336E-06  1.84040494E-06 -1.02635213E-04
  3.35320331E-05 -4.31667123E-06 -1.55733485E-05  6.53433709E-06  1.20648408E-05
  1.32582783E-05 -2.48624460E-07  2.13359901E-06  1.06463016E-06 -1.74494924E-06
  1.83432943E-05  1.35499522E-05  2.44989779E-06 -1.82430866E-06 -3.43598771E-05
  8.45848020E-05 -9.49705806E-07 -1.46985408E-05 -2.87367789E-05 -8.78925495E-06
 -1.06635148E-05 -6.20393983E-06  4.19688241E-06 -2.34968485E-06  1.59982242E-06
  6.43865507E-06 -4.34393203E-06  4.79431812E-06  2.55837189E-06  2.91220225E-05
  7.45614711E-05 -5.86011343E-05 -3.18566342E-05  3.77111736E-06  3.76555970E-06
  2.76897799E-06 -6.15786083E-07 -7.06642524E-06  2.19130271E-06 -9.25230868E-06
  2.16301582E-05 -4.05144063E-05 -4.67175093E-05 -1.38884525E-05  1.61198716E-04
  9.05860497E-05  3.40257702E-05  1.07484121E-05 -1.37567981E-05 -3.03688357E-05
 -1.69626783E-05 -1.39286787E-05 -8.52033040E-06  4.76188392E-07  1.40099695E-05
 -5.25029241E-05 -3.87947147E-06 -1.27501554E-05  6.65388074E-06  1.37888361E-05
  1.06692904E-05 -8.60748925E-05 -1.85793235E-05 -8.72357486E-05 -1.40911357E-05
 -6.48902885E-05  6.41919568E-06 -5.49678722E-06 -1.62550924E-07 -1.24230129E-06
  4.44184280E-07 -4.08076828E-07 -6.45611333E-07 -5.57907754E-06 -1.70810266E-06
  2.59966274E-06  3.13108305E-06  4.97529749E-05  1.81160231E-05  2.34722083E-05
  2.61891246E-06 -2.54889692E-06  2.35476340E-07 -3.64832012E-06  2.58239268E-06
  1.07717542E-06  1.43034297E-06  9.94663229E-01  2.11434022E-02 -4.34349862E-04
  1.04051233E-03  6.71510066E-04  3.91458343E-03  2.02523941E-04 -5.17874402E-04
 -3.29341804E-04 -4.15537680E-03 -4.02805768E-03 -3.90732946E-03 -6.76050874E-05
  1.07181429E-04 -8.42226579E-05  2.63301287E-06  5.75584156E-05 -3.36979300E-05
  3.08373228E-05  1.42098868E-05 -2.64794544E-04 -4.54118901E-05 -4.90220789E-05
 -2.71059628E-04 -5.41789366E-05 -1.35027086E-05 -1.55135840E-05  2.21724150E-05
 -7.75199034E-06  7.54761312E-06 -2.54343926E-05  2.12945427E-04  3.28123618E-04
 -5.20478503E-05 -1.59772588E-04  2.34119704E-04 -9.88215693E-05  3.99483065E-04
  2.29323727E-04  4.00152098E-05 -6.34396001E-05 -3.82390865E-05 -1.06712235E-05
 -3.86195967E-05 -1.85785447E-05  2.96516747E-07 -4.31330588E-06  1.35979160E-05
 -8.76801234E-06 -1.17131026E-06  8.12769400E-05  6.58355782E-05  6.77980114E-05
  1.33810431E-05  2.04117156E-05 -2.40593446E-06  1.22873223E-06  3.59687079E-06
 -2.33928582E-06 -1.56051961E-06  2.59067080E-08 -1.47152700E-04  1.64688641E-05
  7.45004621E-05 -7.28267186E-05 -1.72225371E-04  2.48080811E-05  5.50347891E-05
 -7.86000655E-07 -1.84712332E-05 -3.56958042E-06 -3.22489793E-05  4.03993109E-04
 -2.28487297E-04 -3.19375005E-05  7.22381732E-05 -3.67969340E-05 -4.00747425E-05
 -9.77329481E-06  2.76968408E-04  2.96918135E-04  3.53392163E-04  8.18703111E-05
  2.72302780E-03  9.99475099E-04  1.28265131E-03  2.70519483E-04 -1.08664763E-04
 -1.67423197E-04 -1.34921657E-04  2.40208991E-05  1.04057349E-05 -1.82257834E-05
 -4.44757661E-05 -1.88308792E-04  4.07361746E-05  2.25863611E-07  1.94556355E-06
  9.40546877E-04 -3.77923512E-04  5.56731775E-05  4.37509424E-05 -7.43747151E-05
 -1.31889537E-04 -1.51584000E-04 -1.86407398E-05 -1.22357352E-05  1.93148599E-06
  5.35338249E-03  1.71591434E-04 -5.23399301E-05  5.58551144E-06  8.52702414E-06
  3.73947749E-03 -1.72758894E-03  1.17321982E-04  4.53180255E-04 -3.73842050E-04
 -1.51607581E-04 -1.73700868E-04  5.04723461E-05  1.24904756E-04  8.83917633E-06
 -3.37659339E-04 -2.31870194E-04  6.62980738E-05 -3.08819292E-05 -1.57370989E-05
  4.86378092E-04 -6.93333063E-04 -3.44715615E-06  4.73136139E-04 -9.57650225E-05
 -7.85567229E-05 -9.65187008E-05 -2.74201356E-05  2.05217777E-05 -7.07196687E-06
  9.95896768E-01  2.80395220E-02 -3.48288516E-04 -6.99643822E-04 -1.29817854E-04
 -1.56674129E-02 -2.93851045E-04  1.18129909E-03  3.81307640E-04 -1.61661100E-03
 -1.73813051E-03 -1.46134734E-03 -2.13602433E-04 -1.74616510E-05 -1.09289913E-04
 -1.57767833E-04 -3.34230331E-05 -9.74228036E-05 -2.78111542E-05 -8.16229647E-05
 -3.46501884E-04 -2.76844100E-05 -3.43144004E-04  2.23360811E-04  2.47324072E-03
  1.83509119E-04  2.24537209E-03 -3.87047607E-05  1.17949951E-04  9.90945132E-07
  4.24401119E-06  1.25419263E-05  8.58750669E-06  8.10395243E-06  4.10185617E-05
 -6.31621809E-05 -5.36884241E-05 -4.49280707E-05 -2.55034683E-04 -1.45242288E-04
  9.76416469E-06  3.96300261E-05 -4.80435651E-05  1.13052047E-05  3.42222647E-06
 -2.42293869E-05 -5.28822462E-06 -3.93332001E-06 -1.52228655E-04  9.84293635E-05
 -9.75553903E-05  5.00714671E-05  5.87512115E-05  1.67483954E-03 -1.12278242E-04
 -8.17903367E-05 -9.08435586E-05 -6.93029436E-04 -1.38339703E-05 -8.69671972E-05
  2.83965335E-05  3.49939099E-04 -5.29086388E-06  7.96311470E-03  2.99057688E-04
  3.99784036E-05 -9.71273075E-06  1.94913138E-05  3.37696117E-03  1.41973502E-03
 -1.58109327E-03  6.34197512E-04 -2.74738705E-04 -2.89706977E-04 -2.01384972E-04
  1.31339463E-04 -5.80682219E-05  1.27007421E-04  9.95859443E-01  2.75919404E-02
  6.23419160E-04  1.27046325E-04 -3.06093067E-04 -1.46025760E-02  8.65143297E-04
 -6.58171868E-04  4.54567813E-04 -1.40538609E-03 -1.53032746E-03 -1.53178311E-03
  2.40243592E-05 -7.04584223E-05  7.04936811E-05  1.87566258E-04 -2.71112693E-04
 -9.49355568E-05  1.06383790E-04 -3.17973133E-05  1.00304468E-03  5.08994357E-04
 -4.10535383E-04  1.20952684E-04 -4.56510067E-05 -8.56528290E-05 -8.52117548E-05
 -2.90582028E-05 -2.48890609E-05 -3.43888323E-05 -1.74979034E-04  8.92597109E-05
 -1.34721081E-04  1.47769307E-04  1.66393750E-04  2.52725762E-03  1.96733418E-04
  2.71629783E-03 -6.33947206E-05 -2.79385500E-04 -1.32390954E-05  3.69927869E-04
  3.67937407E-05  3.13011969E-04  7.74635119E-07 -4.89540749E-05  1.54006133E-05
  1.44108730E-05 -2.56661417E-06 -6.05499323E-05 -1.15725499E-04 -9.93933036E-05
  1.40674177E-05  3.21774878E-04  1.70023139E-04  1.74483692E-04 -2.64301574E-05
 -4.23399340E-05 -1.06932327E-04 -1.27156752E-04 -5.98037461E-06 -4.30629842E-05
  1.68574745E-05 -1.48276440E-05 -1.10047566E-04  3.53403440E-05 -3.75154232E-05
 -4.37223189E-06  7.88279660E-05  1.39690348E-04  3.70251767E-05  3.27213949E-05
 -4.68190794E-05 -3.39593721E-05 -9.11125716E-05 -4.10359752E-05  2.99224001E-06
 -6.58892716E-05  9.95787743E-01  2.86933186E-02 -2.04135778E-04  7.12817691E-05
  1.82295415E-04 -1.74637503E-02  3.82975042E-04  5.03006228E-04 -9.31538180E-04
 -1.64742392E-03 -1.65424944E-03 -1.63315892E-03 -2.05385441E-06  1.51933839E-05
  3.93781869E-05 -8.27425286E-03 -2.27754344E-04 -9.22235338E-05  4.10711038E-05
 -1.67116790E-05  4.56082695E-03 -1.04223414E-03  1.49858522E-03 -8.39712571E-04
 -1.97027772E-04 -2.95848164E-04 -1.99967840E-04  1.20602968E-04 -7.85408755E-05
  1.63302178E-04 -5.65883841E-03 -3.35396620E-05  6.46926277E-05 -3.19708716E-05
 -3.89976710E-06  4.17957480E-03  1.86011437E-03 -1.27751393E-04 -5.74489539E-04
 -4.69106106E-04 -1.26570546E-04 -1.61012339E-04  2.75139832E-06  1.88538384E-04
 -6.03048257E-07  2.48071554E-04  2.54472338E-03  2.33241453E-04  2.69275171E-03
 -1.73579084E-04 -3.42829960E-05 -1.54434418E-04 -2.26705243E-05 -1.58329942E-04
 -4.99422559E-05 -1.22813745E-04 -1.36334179E-04 -3.92239165E-05 -1.80336390E-04
 -2.86731162E-01  1.03060267E+00  2.43947421E-03  3.39720856E-03  8.00204316E-04
  2.63082007E-02  8.34833390E-04  8.88099913E-04  1.95451399E-04 -6.99180980E-03
 -1.02114021E-03 -9.91694082E-04 -1.98802081E-04 -1.55221672E-03 -1.41802302E-03
 -1.64836446E-03  2.31724579E-04  6.39923723E-05  6.44852161E-05 -5.16971598E-05
 -2.47880602E-04  3.24584216E-05 -6.90040911E-06 -1.14341376E-05  1.32810048E-03
 -5.20937997E-04  4.29399203E-05  1.56807182E-04 -5.72341777E-05 -1.61013741E-04
 -1.64757995E-04  8.56014668E-07 -3.46961078E-05 -1.88474434E-07 -4.85755653E-05
 -3.33049404E-04  8.89661827E-05  1.22113805E-04  1.72271955E-05  1.59425455E-03
 -9.39358521E-04 -7.74875760E-04  4.19572094E-05  2.53453645E-05 -8.42722532E-05
 -7.84950127E-05 -9.57328539E-08 -4.70519910E-05  2.32772493E-05  1.62756300E-05
  1.18723219E-04  6.71051850E-05 -6.11219026E-05 -1.42866348E-05 -1.47529674E-03
 -5.07489906E-04  4.54379682E-04  6.97169778E-04 -1.24285499E-04  4.30547853E-05
 -1.17484756E-05  1.81701594E-05  6.28296589E-05 -1.52895966E-05 -1.74160963E-04
  6.29415779E-04  7.56736469E-05  8.25467836E-05  4.82836925E-05 -7.50242515E-04
 -9.77274912E-04 -1.75803301E-04  3.53283862E-05 -2.10220514E-04 -3.30852250E-04
  4.34128018E-05 -2.70257502E-04 -1.70396140E-05 -1.50275906E-04 -2.28211357E-04
  9.34088548E-05  5.38310515E-05  3.77892669E-04 -2.88832688E-06 -2.29696554E-04
 -1.10233883E-04  9.93761239E-04 -5.95401559E-05  5.98119980E-04 -9.45601177E-05
  4.35558870E-04 -6.22118074E-05  8.70184616E-05  1.42099951E-03 -5.28710911E-03
  5.65380537E-01  7.94946297E-01  1.84535267E-01  2.55891635E-03  1.31724549E-02
  1.83202043E-02  4.23124777E-03  1.21988067E-04 -3.05529633E-03 -4.08199895E-03
 -9.08210843E-04 -4.73220918E-04 -9.75388050E-05 -8.53826184E-04  7.01522439E-04
  1.72826042E-04  2.07222023E-04 -3.93192384E-05 -1.88587978E-04  3.92597206E-05
  3.31427423E-06  5.33714999E-07  9.74433722E-04 -4.56264173E-04  1.16970129E-05
  6.35217839E-05 -3.33920434E-05 -1.17630288E-04 -1.37945295E-04 -9.37636640E-06
 -2.50824320E-05  4.14217651E-06 -6.82927846E-05 -4.51540138E-04 -5.98916582E-05
  4.04253065E-05  4.04072414E-05  2.36274077E-03 -1.15322821E-03 -7.26399242E-04
 -7.62294561E-05  1.17833970E-04 -7.78996525E-05 -7.04878673E-05  7.59947729E-05