
    -----------------------------------------------------------------------
          Psi4: An Open-Source Ab Initio Electronic Structure Package
                               Psi4 1.4a3.dev225 

                         Git: Rev {master} 7105e37 


    D. G. A. Smith, L. A. Burns, A. C. Simmonett, R. M. Parrish,
    M. C. Schieber, R. Galvelis, P. Kraus, H. Kruse, R. Di Remigio,
    A. Alenaizan, A. M. James, S. Lehtola, J. P. Misiewicz, M. Scheurer,
    R. A. Shaw, J. B. Schriber, Y. Xie, Z. L. Glick, D. A. Sirianni,
    J. S. O'Brien, J. M. Waldrop, A. Kumar, E. G. Hohenstein,
    B. P. Pritchard, B. R. Brooks, H. F. Schaefer III, A. Yu. Sokolov,
    K. Patkowski, A. E. DePrince III, U. Bozkaya, R. A. King,
    F. A. Evangelista, J. M. Turney, T. D. Crawford, C. D. Sherrill,
    J. Chem. Phys. 152(18) 184108 (2020). https://doi.org/10.1063/5.0006002

                            Additional Code Authors
    E. T. Seidl, C. L. Janssen, E. F. Valeev, M. L. Leininger,
    J. F. Gonthier, R. M. Richard, H. R. McAlexander, M. Saitow, X. Wang,
    P. Verma, and M. H. Lechner

             Previous Authors, Complete List of Code Contributors,
                       and Citations for Specific Modules
    https://github.com/psi4/psi4/blob/master/codemeta.json
    https://github.com/psi4/psi4/graphs/contributors
    http://psicode.org/psi4manual/master/introduction.html#citing-psifour

    -----------------------------------------------------------------------


    Psi4 started on: Thursday, 01 April 2021 03:56PM

    Process ID: 110896
    Host:       c451-101.stampede2.tacc.utexas.edu
    PSIDATADIR: /home1/07844/xy3866/miniconda3/envs/p4env/share/psi4
    Memory:     500.0 MiB
    Threads:    8
    
  ==> Input File <==

--------------------------------------------------------------------------
#psi4
#
memory 32 gb

molecule  {
0 1
  S       -0.2573260    -0.3323280     0.1419150
  O       -0.2860210    -1.5224110    -0.7288200
  O       -0.1913230    -0.4820040     1.6079470
  C        1.1077430     0.7304620    -0.3526940
  C        2.4671171     0.2562409     0.2241970
  C       -1.7119910     0.6470300    -0.2467030
  C       -2.9773330    -0.1490110     0.0593080
  C        2.8936370    -1.0771870    -0.3692660
  C        3.4979800     1.3449170    -0.0414460
  C       -4.2305000     0.6643980    -0.2524990
  H        1.1201440     0.7512950    -1.4483370
  H        0.8637990     1.7314470     0.0219200
  H        2.3201640     0.1499000     1.2996700
  H       -1.6515560     0.9087510    -1.3087410
  H       -1.6583250     1.5603790     0.3547230
  H       -2.9641430    -1.0716000    -0.5283160
  H       -2.9644700    -0.4377180     1.1148610
  H        2.9999490    -1.0007780    -1.4570900
  H        2.1808400    -1.8761700    -0.1584720
  H        3.8652790    -1.3613920     0.0461660
  H        3.6372140     1.5009250    -1.1167480
  H        3.2107350     2.3002430     0.4092550
  H        4.4622490     1.0479330     0.3817310
  H       -4.2653590     1.5804770     0.3446860
  H       -4.2647910     0.9464390    -1.3091180
  H       -5.1305020     0.0846610    -0.0305780
units angstrom
no_reorient  #important for SAPT in psi4, default
symmetry c1  #important for SAPT in psi4, default
}

set PROPERTIES_ORIGIN ["COM"]
properties('MP2/aug-cc-pvtz', properties = ['dipole'])
--------------------------------------------------------------------------

  Memory set to  29.802 GiB by Python driver.
    SCF Algorithm Type (re)set to DF.

*** tstart() called on c451-101.stampede2.tacc.utexas.edu
*** at Thu Apr  1 15:57:00 2021

   => Loading Basis Set <=

    Name: AUG-CC-PVTZ
    Role: ORBITAL
    Keyword: BASIS
    atoms 1     entry S          line   906 file /home1/07844/xy3866/miniconda3/envs/p4env/share/psi4/basis/aug-cc-pvtz.gbs 
    atoms 2-3   entry O          line   331 file /home1/07844/xy3866/miniconda3/envs/p4env/share/psi4/basis/aug-cc-pvtz.gbs 
    atoms 4-10  entry C          line   239 file /home1/07844/xy3866/miniconda3/envs/p4env/share/psi4/basis/aug-cc-pvtz.gbs 
    atoms 11-26 entry H          line    40 file /home1/07844/xy3866/miniconda3/envs/p4env/share/psi4/basis/aug-cc-pvtz.gbs 


         ---------------------------------------------------------
                                   SCF
               by Justin Turney, Rob Parrish, Andy Simmonett
                          and Daniel G. A. Smith
                              RHF Reference
                        8 Threads,  30517 MiB Core
         ---------------------------------------------------------

  ==> Geometry <==

    Molecular point group: c1
    Full point group: C1

    Geometry (in Angstrom), charge = 0, multiplicity = 1:

       Center              X                  Y                   Z               Mass       
    ------------   -----------------  -----------------  -----------------  -----------------
         S           -0.248017066851    -0.290793080736     0.120958015442    31.972071174400
         O           -0.276712066851    -1.480876080736    -0.749776984558    15.994914619570
         O           -0.182014066851    -0.440469080736     1.586990015442    15.994914619570
         C            1.117051933149     0.771996919264    -0.373650984558    12.000000000000
         C            2.476426033149     0.297775819264     0.203240015442    12.000000000000
         C           -1.702682066851     0.688564919264    -0.267659984558    12.000000000000
         C           -2.968024066851    -0.107476080736     0.038351015442    12.000000000000
         C            2.902945933149    -1.035652080736    -0.390222984558    12.000000000000
         C            3.507288933149     1.386451919264    -0.062402984558    12.000000000000
         C           -4.221191066851     0.705932919264    -0.273455984558    12.000000000000
         H            1.129452933149     0.792829919264    -1.469293984558     1.007825032230
         H            0.873107933149     1.772981919264     0.000963015442     1.007825032230
         H            2.329472933149     0.191434919264     1.278713015442     1.007825032230
         H           -1.642247066851     0.950285919264    -1.329697984558     1.007825032230
         H           -1.649016066851     1.601913919264     0.333766015442     1.007825032230
         H           -2.954834066851    -1.030065080736    -0.549272984558     1.007825032230
         H           -2.955161066851    -0.396183080736     1.093904015442     1.007825032230
         H            3.009257933149    -0.959243080736    -1.478046984558     1.007825032230
         H            2.190148933149    -1.834635080736    -0.179428984558     1.007825032230
         H            3.874587933149    -1.319857080736     0.025209015442     1.007825032230
         H            3.646522933149     1.542459919264    -1.137704984558     1.007825032230
         H            3.220043933149     2.341777919264     0.388298015442     1.007825032230
         H            4.471557933149     1.089467919264     0.360774015442     1.007825032230
         H           -4.256050066851     1.622011919264     0.323729015442     1.007825032230
         H           -4.255482066851     0.987973919264    -1.330074984558     1.007825032230
         H           -5.121193066851     0.126195919264    -0.051534984558     1.007825032230

  Running in c1 symmetry.

  Rotational constants: A =      0.08746  B =      0.01812  C =      0.01709 [cm^-1]
  Rotational constants: A =   2621.94979  B =    543.14943  C =    512.43560 [MHz]
  Nuclear repulsion =  707.072728551652517

  Charge       = 0
  Multiplicity = 1
  Electrons    = 90
  Nalpha       = 45
  Nbeta        = 45

  ==> Algorithm <==

  SCF Algorithm Type is DF.
  DIIS enabled.
  MOM disabled.
  Fractional occupation disabled.
  Guess Type is SAD.
  Energy threshold   = 1.00e-10
  Density threshold  = 1.00e-10
  Integral threshold = 1.00e-12

  ==> Primary Basis <==

  Basis Set: AUG-CC-PVTZ
    Blend: AUG-CC-PVTZ
    Number of shells: 286
    Number of basis functions: 832
    Number of Cartesian functions: 954
    Spherical Harmonics?: true
    Max angular momentum: 3

   => Loading Basis Set <=

    Name: (AUG-CC-PVTZ AUX)
    Role: JKFIT
    Keyword: DF_BASIS_SCF
    atoms 1     entry S          line   730 file /home1/07844/xy3866/miniconda3/envs/p4env/share/psi4/basis/aug-cc-pvtz-jkfit.gbs 
    atoms 2-3   entry O          line   286 file /home1/07844/xy3866/miniconda3/envs/p4env/share/psi4/basis/aug-cc-pvtz-jkfit.gbs 
    atoms 4-10  entry C          line   162 file /home1/07844/xy3866/miniconda3/envs/p4env/share/psi4/basis/aug-cc-pvtz-jkfit.gbs 
    atoms 11-26 entry H          line    70 file /home1/07844/xy3866/miniconda3/envs/p4env/share/psi4/basis/aug-cc-pvtz-jkfit.gbs 

  ==> Integral Setup <==

  DFHelper Memory: AOs need 8.076 GiB; user supplied 22.352 GiB. Using in-core AOs.

  ==> MemDFJK: Density-Fitted J/K Matrices <==

    J tasked:                   Yes
    K tasked:                   Yes
    wK tasked:                   No
    OpenMP threads:               8
    Memory [MiB]:             22888
    Algorithm:                 Core
    Schwarz Cutoff:           1E-12
    Mask sparsity (%):      16.0538
    Fitting Condition:        1E-10

   => Auxiliary Basis Set <=

  Basis Set: (AUG-CC-PVTZ AUX)
    Blend: AUG-CC-PVTZ-JKFIT
    Number of shells: 536
    Number of basis functions: 1818
    Number of Cartesian functions: 2239
    Spherical Harmonics?: true
    Max angular momentum: 4

  Minimum eigenvalue in the overlap matrix is 2.4437985453E-06.
  Reciprocal condition number of the overlap matrix is 1.1315803076E-07.
    Using symmetric orthogonalization.

  ==> Pre-Iterations <==

  SCF Guess: Superposition of Atomic Densities via on-the-fly atomic UHF (no occupation information).

   -------------------------
    Irrep   Nso     Nmo    
   -------------------------
     A        832     832 
   -------------------------
    Total     832     832
   -------------------------

  ==> Iterations <==

                           Total Energy        Delta E     RMS |[F,P]|

   @DF-RHF iter SAD:  -821.69279597999093   -8.21693e+02   0.00000e+00 
   @DF-RHF iter   1:  -821.29327655728275    3.99519e-01   1.16777e-03 DIIS
   @DF-RHF iter   2:  -821.63860056979570   -3.45324e-01   7.17198e-04 DIIS
   @DF-RHF iter   3:  -821.77548864499545   -1.36888e-01   1.31146e-04 DIIS
   @DF-RHF iter   4:  -821.78221695047091   -6.72831e-03   4.75972e-05 DIIS
   @DF-RHF iter   5:  -821.78324975961948   -1.03281e-03   9.15762e-06 DIIS
   @DF-RHF iter   6:  -821.78328981949994   -4.00599e-05   2.49314e-06 DIIS
   @DF-RHF iter   7:  -821.78329346592182   -3.64642e-06   5.50172e-07 DIIS
   @DF-RHF iter   8:  -821.78329367626827   -2.10346e-07   1.59682e-07 DIIS
   @DF-RHF iter   9:  -821.78329369696826   -2.07000e-08   6.02854e-08 DIIS
   @DF-RHF iter  10:  -821.78329369930952   -2.34127e-09   2.24830e-08 DIIS
   @DF-RHF iter  11:  -821.78329369963762   -3.28100e-10   8.09160e-09 DIIS
   @DF-RHF iter  12:  -821.78329369967184   -3.42197e-11   3.05030e-09 DIIS
   @DF-RHF iter  13:  -821.78329369967844   -6.59384e-12   7.55084e-10 DIIS
   @DF-RHF iter  14:  -821.78329369967923   -7.95808e-13   2.59697e-10 DIIS
   @DF-RHF iter  15:  -821.78329369967662    2.61480e-12   9.77814e-11 DIIS
  Energy and wave function converged.


  ==> Post-Iterations <==

    Orbital Energies [Eh]
    ---------------------

    Doubly Occupied:                                                      

       1A    -92.169825     2A    -20.535226     3A    -20.534447  
       4A    -11.274484     5A    -11.273642     6A    -11.247123  
       7A    -11.241212     8A    -11.229492     9A    -11.226760  
      10A    -11.212821    11A     -9.140280    12A     -6.824667  
      13A     -6.824263    14A     -6.824076    15A     -1.425507  
      16A     -1.316328    17A     -1.114441    18A     -1.095871  
      19A     -1.013783    20A     -0.960019    21A     -0.939061  
      22A     -0.849683    23A     -0.804473    24A     -0.779352  
      25A     -0.687046    26A     -0.675249    27A     -0.662893  
      28A     -0.642243    29A     -0.619228    30A     -0.605802  
      31A     -0.591273    32A     -0.581305    33A     -0.567981  
      34A     -0.554545    35A     -0.539846    36A     -0.528498  
      37A     -0.509435    38A     -0.503271    39A     -0.495368  
      40A     -0.485490    41A     -0.483555    42A     -0.475844  
      43A     -0.471265    44A     -0.456112    45A     -0.417784  

    Virtual:                                                              

      46A      0.022928    47A      0.028045    48A      0.034799  
      49A      0.036020    50A      0.044530    51A      0.045616  
      52A      0.048832    53A      0.055948    54A      0.060370  
      55A      0.064820    56A      0.067990    57A      0.069271  
      58A      0.070607    59A      0.082251    60A      0.090668  
      61A      0.092864    62A      0.102552    63A      0.109577  
      64A      0.112712    65A      0.118851    66A      0.119859  
      67A      0.123726    68A      0.128065    69A      0.131531  
      70A      0.132458    71A      0.138405    72A      0.140380  
      73A      0.143176    74A      0.149056    75A      0.152814  
      76A      0.156096    77A      0.163162    78A      0.163875  
      79A      0.168996    80A      0.172452    81A      0.173962  
      82A      0.174903    83A      0.181638    84A      0.184592  
      85A      0.195344    86A      0.198828    87A      0.206340  
      88A      0.215551    89A      0.218131    90A      0.219986  
      91A      0.227232    92A      0.237743    93A      0.240100  
      94A      0.243119    95A      0.246096    96A      0.250515  
      97A      0.254101    98A      0.255842    99A      0.258937  
     100A      0.263185   101A      0.266131   102A      0.269096  
     103A      0.274950   104A      0.280939   105A      0.285830  
     106A      0.289007   107A      0.294526   108A      0.295803  
     109A      0.303528   110A      0.309066   111A      0.310275  
     112A      0.314679   113A      0.316655   114A      0.324612  
     115A      0.327765   116A      0.337484   117A      0.340251  
     118A      0.345828   119A      0.350141   120A      0.351578  
     121A      0.355423   122A      0.356472   123A      0.362897  
     124A      0.365603   125A      0.368451   126A      0.371757  
     127A      0.375926   128A      0.380841   129A      0.381570  
     130A      0.385237   131A      0.390533   132A      0.392852  
     133A      0.396821   134A      0.399933   135A      0.402911  
     136A      0.404977   137A      0.409800   138A      0.414008  
     139A      0.417894   140A      0.422260   141A      0.423865  
     142A      0.428195   143A      0.433317   144A      0.436562  
     145A      0.442057   146A      0.444694   147A      0.448186  
     148A      0.451456   149A      0.453354   150A      0.457239  
     151A      0.460571   152A      0.461888   153A      0.464555  
     154A      0.466361   155A      0.470343   156A      0.479077  
     157A      0.481394   158A      0.483184   159A      0.485461  
     160A      0.496576   161A      0.501056   162A      0.503095  
     163A      0.506302   164A      0.507842   165A      0.509949  
     166A      0.519716   167A      0.522184   168A      0.525817  
     169A      0.528005   170A      0.531813   171A      0.535832  
     172A      0.541599   173A      0.544837   174A      0.548374  
     175A      0.550699   176A      0.553192   177A      0.559730  
     178A      0.562209   179A      0.568996   180A      0.577050  
     181A      0.580304   182A      0.585113   183A      0.590491  
     184A      0.593802   185A      0.600926   186A      0.607261  
     187A      0.608709   188A      0.610221   189A      0.616489  
     190A      0.620300   191A      0.624857   192A      0.628701  
     193A      0.636332   194A      0.637136   195A      0.641688  
     196A      0.648556   197A      0.657624   198A      0.661086  
     199A      0.671389   200A      0.680711   201A      0.684525  
     202A      0.686274   203A      0.692083   204A      0.702813  
     205A      0.706254   206A      0.712798   207A      0.719952  
     208A      0.730129   209A      0.742624   210A      0.744911  
     211A      0.749638   212A      0.754953   213A      0.761252  
     214A      0.773122   215A      0.781314   216A      0.781996  
     217A      0.790718   218A      0.799564   219A      0.804442  
     220A      0.810659   221A      0.820409   222A      0.826456  
     223A      0.831114   224A      0.833131   225A      0.837857  
     226A      0.841965   227A      0.845139   228A      0.852791  
     229A      0.860782   230A      0.862575   231A      0.868248  
     232A      0.875740   233A      0.878752   234A      0.884645  
     235A      0.887745   236A      0.889752   237A      0.895643  
     238A      0.902477   239A      0.907407   240A      0.911861  
     241A      0.916843   242A      0.922729   243A      0.931832  
     244A      0.932168   245A      0.934348   246A      0.938492  
     247A      0.943081   248A      0.950526   249A      0.955246  
     250A      0.955673   251A      0.960106   252A      0.963818  
     253A      0.967937   254A      0.973918   255A      0.977952  
     256A      0.979202   257A      0.987712   258A      0.991079  
     259A      0.995880   260A      1.005604   261A      1.008985  
     262A      1.014813   263A      1.015555   264A      1.019014  
     265A      1.030920   266A      1.032699   267A      1.035661  
     268A      1.039077   269A      1.043405   270A      1.050159  
     271A      1.054363   272A      1.059192   273A      1.063473  
     274A      1.072800   275A      1.074293   276A      1.080157  
     277A      1.081316   278A      1.087129   279A      1.091831  
     280A      1.097074   281A      1.108919   282A      1.113347  
     283A      1.115725   284A      1.117701   285A      1.124207  
     286A      1.131907   287A      1.135285   288A      1.143257  
     289A      1.147454   290A      1.151276   291A      1.157148  
     292A      1.159834   293A      1.166812   294A      1.169456  
     295A      1.175402   296A      1.178310   297A      1.187940  
     298A      1.189755   299A      1.194914   300A      1.203808  
     301A      1.207167   302A      1.212613   303A      1.219004  
     304A      1.219545   305A      1.224593   306A      1.231075  
     307A      1.234533   308A      1.239141   309A      1.247122  
     310A      1.253481   311A      1.255847   312A      1.258504  
     313A      1.267706   314A      1.277594   315A      1.285938  
     316A      1.288757   317A      1.294565   318A      1.301842  
     319A      1.305088   320A      1.314335   321A      1.318879  
     322A      1.324487   323A      1.331355   324A      1.334871  
     325A      1.342091   326A      1.348019   327A      1.354356  
     328A      1.356901   329A      1.361355   330A      1.370519  
     331A      1.375121   332A      1.389169   333A      1.395016  
     334A      1.400529   335A      1.405821   336A      1.411707  
     337A      1.422736   338A      1.429967   339A      1.438100  
     340A      1.440849   341A      1.443433   342A      1.459210  
     343A      1.460261   344A      1.464070   345A      1.476028  
     346A      1.482211   347A      1.491474   348A      1.492766  
     349A      1.502958   350A      1.504607   351A      1.517037  
     352A      1.521104   353A      1.524718   354A      1.536289  
     355A      1.537506   356A      1.546506   357A      1.552557  
     358A      1.557435   359A      1.564726   360A      1.570610  
     361A      1.579606   362A      1.588854   363A      1.592290  
     364A      1.594938   365A      1.603506   366A      1.615655  
     367A      1.621188   368A      1.633846   369A      1.638888  
     370A      1.647988   371A      1.653612   372A      1.663886  
     373A      1.667899   374A      1.675290   375A      1.677120  
     376A      1.685277   377A      1.687390   378A      1.691943  
     379A      1.699361   380A      1.701222   381A      1.706949  
     382A      1.710563   383A      1.715731   384A      1.719086  
     385A      1.720529   386A      1.728167   387A      1.735275  
     388A      1.737185   389A      1.743606   390A      1.746761  
     391A      1.748374   392A      1.755552   393A      1.758866  
     394A      1.763135   395A      1.776657   396A      1.781544  
     397A      1.784241   398A      1.790239   399A      1.793835  
     400A      1.810664   401A      1.813748   402A      1.821724  
     403A      1.832633   404A      1.836625   405A      1.842297  
     406A      1.859402   407A      1.864066   408A      1.866798  
     409A      1.870311   410A      1.878064   411A      1.884549  
     412A      1.897677   413A      1.902293   414A      1.909889  
     415A      1.911721   416A      1.918019   417A      1.921094  
     418A      1.923727   419A      1.939529   420A      1.946050  
     421A      1.957316   422A      1.961130   423A      1.964021  
     424A      1.968248   425A      1.982289   426A      1.982693  
     427A      1.988471   428A      1.997457   429A      2.006145  
     430A      2.010826   431A      2.013929   432A      2.022078  
     433A      2.028627   434A      2.038873   435A      2.047434  
     436A      2.055984   437A      2.064561   438A      2.068149  
     439A      2.070361   440A      2.083885   441A      2.090064  
     442A      2.105267   443A      2.111248   444A      2.115473  
     445A      2.129512   446A      2.132193   447A      2.146869  
     448A      2.153452   449A      2.167685   450A      2.183903  
     451A      2.191547   452A      2.203426   453A      2.206483  
     454A      2.208308   455A      2.222959   456A      2.227971  
     457A      2.247360   458A      2.250581   459A      2.256026  
     460A      2.262412   461A      2.264719   462A      2.273170  
     463A      2.279882   464A      2.285171   465A      2.296186  
     466A      2.307120   467A      2.313345   468A      2.321507  
     469A      2.327029   470A      2.332022   471A      2.356121  
     472A      2.369205   473A      2.375706   474A      2.386622  
     475A      2.392766   476A      2.396630   477A      2.405273  
     478A      2.414074   479A      2.431461   480A      2.441222  
     481A      2.450286   482A      2.454914   483A      2.468601  
     484A      2.474886   485A      2.482776   486A      2.498041  
     487A      2.501283   488A      2.515125   489A      2.520294  
     490A      2.536683   491A      2.547888   492A      2.553487  
     493A      2.558766   494A      2.566632   495A      2.582172  
     496A      2.585542   497A      2.587398   498A      2.618211  
     499A      2.635398   500A      2.643278   501A      2.651047  
     502A      2.662179   503A      2.670522   504A      2.687864  
     505A      2.712278   506A      2.725004   507A      2.749655  
     508A      2.774435   509A      2.789151   510A      2.797018  
     511A      2.804619   512A      2.821606   513A      2.834271  
     514A      2.841768   515A      2.864422   516A      2.876896  
     517A      2.901378   518A      2.912848   519A      2.920739  
     520A      2.938828   521A      2.956471   522A      2.968776  
     523A      2.991627   524A      3.000201   525A      3.036735  
     526A      3.070470   527A      3.073559   528A      3.089594  
     529A      3.108532   530A      3.143959   531A      3.152287  
     532A      3.173544   533A      3.178672   534A      3.215191  
     535A      3.256584   536A      3.310776   537A      3.327918  
     538A      3.371766   539A      3.377274   540A      3.406086  
     541A      3.421048   542A      3.430131   543A      3.440215  
     544A      3.448946   545A      3.476386   546A      3.482089  
     547A      3.488771   548A      3.503552   549A      3.508036  
     550A      3.519166   551A      3.531990   552A      3.541838  
     553A      3.544900   554A      3.569007   555A      3.571631  
     556A      3.583851   557A      3.598546   558A      3.611667  
     559A      3.614528   560A      3.640936   561A      3.649655  
     562A      3.662043   563A      3.673511   564A      3.682865  
     565A      3.689735   566A      3.691146   567A      3.709655  
     568A      3.711673   569A      3.728664   570A      3.735433  
     571A      3.738217   572A      3.747698   573A      3.752666  
     574A      3.766369   575A      3.769850   576A      3.774342  
     577A      3.776396   578A      3.786265   579A      3.802227  
     580A      3.804291   581A      3.810843   582A      3.824544  
     583A      3.836473   584A      3.839370   585A      3.850636  
     586A      3.853970   587A      3.861725   588A      3.869393  
     589A      3.880883   590A      3.888658   591A      3.903408  
     592A      3.907017   593A      3.927369   594A      3.934229  
     595A      3.944404   596A      3.953348   597A      3.957914  
     598A      3.969324   599A      3.971766   600A      3.976471  
     601A      3.979805   602A      3.986425   603A      3.991417  
     604A      4.000026   605A      4.008733   606A      4.018297  
     607A      4.030058   608A      4.032464   609A      4.041463  
     610A      4.049443   611A      4.053241   612A      4.059185  
     613A      4.066216   614A      4.073907   615A      4.076412  
     616A      4.102578   617A      4.107772   618A      4.122930  
     619A      4.123778   620A      4.143059   621A      4.156050  
     622A      4.175883   623A      4.195157   624A      4.197503  
     625A      4.203579   626A      4.212661   627A      4.223425  
     628A      4.227773   629A      4.233136   630A      4.258172  
     631A      4.271482   632A      4.273043   633A      4.279396  
     634A      4.284344   635A      4.287748   636A      4.302030  
     637A      4.307496   638A      4.323207   639A      4.330583  
     640A      4.350372   641A      4.359462   642A      4.362607  
     643A      4.377271   644A      4.386671   645A      4.400671  
     646A      4.413070   647A      4.426361   648A      4.439602  
     649A      4.445032   650A      4.465811   651A      4.484009  
     652A      4.500592   653A      4.509149   654A      4.515602  
     655A      4.526612   656A      4.532467   657A      4.552707  
     658A      4.571649   659A      4.581728   660A      4.605980  
     661A      4.626180   662A      4.649311   663A      4.658133  
     664A      4.661501   665A      4.673658   666A      4.685409  
     667A      4.690853   668A      4.698141   669A      4.708883  
     670A      4.713780   671A      4.727162   672A      4.739536  
     673A      4.752344   674A      4.756788   675A      4.774344  
     676A      4.787446   677A      4.790451   678A      4.798456  
     679A      4.820886   680A      4.844694   681A      4.851249  
     682A      4.855521   683A      4.880975   684A      4.887880  
     685A      4.891570   686A      4.909093   687A      4.913378  
     688A      4.923044   689A      4.934441   690A      4.953105  
     691A      4.962373   692A      4.970512   693A      4.988025  
     694A      5.002631   695A      5.011040   696A      5.032997  
     697A      5.039126   698A      5.062654   699A      5.082945  
     700A      5.088950   701A      5.093084   702A      5.115682  
     703A      5.117574   704A      5.125818   705A      5.147274  
     706A      5.151301   707A      5.171670   708A      5.178547  
     709A      5.182638   710A      5.199123   711A      5.208145  
     712A      5.212721   713A      5.227243   714A      5.235737  
     715A      5.246877   716A      5.253168   717A      5.274182  
     718A      5.288237   719A      5.306452   720A      5.308502  
     721A      5.322319   722A      5.332642   723A      5.340293  
     724A      5.354994   725A      5.362635   726A      5.368942  
     727A      5.377389   728A      5.386863   729A      5.388110  
     730A      5.398524   731A      5.405074   732A      5.416709  
     733A      5.434618   734A      5.448640   735A      5.459626  
     736A      5.472032   737A      5.479916   738A      5.493636  
     739A      5.500534   740A      5.538385   741A      5.543217  
     742A      5.566884   743A      5.580523   744A      5.592759  
     745A      5.606377   746A      5.621790   747A      5.622820  
     748A      5.635910   749A      5.646596   750A      5.664744  
     751A      5.700573   752A      5.707099   753A      5.708976  
     754A      5.733437   755A      5.741959   756A      5.776690  
     757A      5.802451   758A      5.812944   759A      5.816697  
     760A      5.839567   761A      5.867612   762A      5.882870  
     763A      5.930216   764A      5.939016   765A      5.967362  
     766A      5.982914   767A      5.992203   768A      6.028013  
     769A      6.035152   770A      6.045924   771A      6.085454  
     772A      6.096131   773A      6.116000   774A      6.152624  
     775A      6.168847   776A      6.181447   777A      6.229396  
     778A      6.234932   779A      6.250645   780A      6.261698  
     781A      6.281598   782A      6.291435   783A      6.336072  
     784A      6.346502   785A      6.416356   786A      6.469465  
     787A      6.503681   788A      6.549264   789A      6.743425  
     790A      6.747829   791A      6.782524   792A      6.799785  
     793A      6.820601   794A      6.823947   795A      6.842426  
     796A      6.854214   797A      6.867851   798A      6.870821  
     799A      6.909759   800A      6.921150   801A      6.954168  
     802A      6.968683   803A      6.973365   804A      6.990018  
     805A      7.049349   806A      7.055221   807A      7.073459  
     808A      7.090449   809A      7.116218   810A      7.135892  
     811A      7.166037   812A      7.252906   813A      7.398526  
     814A      7.447296   815A      7.463014   816A      7.498889  
     817A      7.677788   818A      7.755046   819A      7.774074  
     820A      7.802447   821A      7.868246   822A      7.880612  
     823A     13.153530   824A     13.931331   825A     14.347559  
     826A     17.774426   827A     17.841564   828A     18.048271  
     829A     18.230684   830A     18.387751   831A     18.917476  
     832A     19.537225  

    Final Occupation by Irrep:
              A 
    DOCC [    45 ]

  @DF-RHF Final Energy:  -821.78329369967662

   => Energetics <=

    Nuclear Repulsion Energy =            707.0727285516525171
    One-Electron Energy =               -2530.8903037744985340
    Two-Electron Energy =                1002.0342815231693976
    Total Energy =                       -821.7832936996766193

Computation Completed

*** tstop() called on c451-101.stampede2.tacc.utexas.edu at Thu Apr  1 15:58:57 2021
Module time:
	user time   =     696.09 seconds =      11.60 minutes
	system time =      15.61 seconds =       0.26 minutes
	total time  =        117 seconds =       1.95 minutes
Total time:
	user time   =     696.09 seconds =      11.60 minutes
	system time =      15.61 seconds =       0.26 minutes
	total time  =        117 seconds =       1.95 minutes
   => Loading Basis Set <=

    Name: (AUG-CC-PVTZ AUX)
    Role: RIFIT
    Keyword: DF_BASIS_MP2
    atoms 1     entry S          line   666 file /home1/07844/xy3866/miniconda3/envs/p4env/share/psi4/basis/aug-cc-pvtz-ri.gbs 
    atoms 2-3   entry O          line   264 file /home1/07844/xy3866/miniconda3/envs/p4env/share/psi4/basis/aug-cc-pvtz-ri.gbs 
    atoms 4-10  entry C          line   148 file /home1/07844/xy3866/miniconda3/envs/p4env/share/psi4/basis/aug-cc-pvtz-ri.gbs 
    atoms 11-26 entry H          line    30 file /home1/07844/xy3866/miniconda3/envs/p4env/share/psi4/basis/aug-cc-pvtz-ri.gbs 


*** tstart() called on c451-101.stampede2.tacc.utexas.edu
*** at Thu Apr  1 15:58:58 2021


  //>>>>>>>>>>>>>>>>>>>>>>>>>>>>>>>>>>>//
  //               DFMP2               //
  //<<<<<<<<<<<<<<<<<<<<<<<<<<<<<<<<<<<//

	 --------------------------------------------------------
	                          DF-MP2                         
	      2nd-Order Density-Fitted Moller-Plesset Theory     
	              RMP2 Wavefunction,   8 Threads             
	                                                         
	        Rob Parrish, Justin Turney, Andy Simmonett,      
	           Ed Hohenstein, and C. David Sherrill          
	 --------------------------------------------------------

   => Auxiliary Basis Set <=

  Basis Set: (AUG-CC-PVTZ AUX)
    Blend: AUG-CC-PVTZ-RI
    Number of shells: 513
    Number of basis functions: 1837
    Number of Cartesian functions: 2295
    Spherical Harmonics?: true
    Max angular momentum: 4

	 --------------------------------------------------------
	                 NBF =   832, NAUX =  1837
	 --------------------------------------------------------
	   CLASS    FOCC     OCC    AOCC    AVIR     VIR    FVIR
	   PAIRS       0      45      45     787     787       0
	 --------------------------------------------------------

  DFHelper Memory: AOs need 8.531 GiB; user supplied 22.352 GiB. Using in-core AOs.


         ------------------------------------------------------------
                                     CPHF                           
                                  Rob Parrish                       
         ------------------------------------------------------------

  ==> Geometry <==

    Molecular point group: c1
    Full point group: C1

    Geometry (in Angstrom), charge = 0, multiplicity = 1:

       Center              X                  Y                   Z               Mass       
    ------------   -----------------  -----------------  -----------------  -----------------
         S           -0.248017066851    -0.290793080736     0.120958015442    31.972071174400
         O           -0.276712066851    -1.480876080736    -0.749776984558    15.994914619570
         O           -0.182014066851    -0.440469080736     1.586990015442    15.994914619570
         C            1.117051933149     0.771996919264    -0.373650984558    12.000000000000
         C            2.476426033149     0.297775819264     0.203240015442    12.000000000000
         C           -1.702682066851     0.688564919264    -0.267659984558    12.000000000000
         C           -2.968024066851    -0.107476080736     0.038351015442    12.000000000000
         C            2.902945933149    -1.035652080736    -0.390222984558    12.000000000000
         C            3.507288933149     1.386451919264    -0.062402984558    12.000000000000
         C           -4.221191066851     0.705932919264    -0.273455984558    12.000000000000
         H            1.129452933149     0.792829919264    -1.469293984558     1.007825032230
         H            0.873107933149     1.772981919264     0.000963015442     1.007825032230
         H            2.329472933149     0.191434919264     1.278713015442     1.007825032230
         H           -1.642247066851     0.950285919264    -1.329697984558     1.007825032230
         H           -1.649016066851     1.601913919264     0.333766015442     1.007825032230
         H           -2.954834066851    -1.030065080736    -0.549272984558     1.007825032230
         H           -2.955161066851    -0.396183080736     1.093904015442     1.007825032230
         H            3.009257933149    -0.959243080736    -1.478046984558     1.007825032230
         H            2.190148933149    -1.834635080736    -0.179428984558     1.007825032230
         H            3.874587933149    -1.319857080736     0.025209015442     1.007825032230
         H            3.646522933149     1.542459919264    -1.137704984558     1.007825032230
         H            3.220043933149     2.341777919264     0.388298015442     1.007825032230
         H            4.471557933149     1.089467919264     0.360774015442     1.007825032230
         H           -4.256050066851     1.622011919264     0.323729015442     1.007825032230
         H           -4.255482066851     0.987973919264    -1.330074984558     1.007825032230
         H           -5.121193066851     0.126195919264    -0.051534984558     1.007825032230

  Nuclear repulsion =  707.072728551652517
  Reference energy  = -821.783293699676619

  ==> Basis Set <==

  Basis Set: AUG-CC-PVTZ
    Blend: AUG-CC-PVTZ
    Number of shells: 286
    Number of basis functions: 832
    Number of Cartesian functions: 954
    Spherical Harmonics?: true
    Max angular momentum: 3

  ==> CGRSolver (by Rob Parrish) <==

   Number of roots    =         1
   Preconditioning    =    JACOBI
   Convergence cutoff =     1E-06
   Maximum iterations =       100

  ==> CPHFRHamiltonian (by Rob Parrish) <== 

  ==> MemDFJK: Density-Fitted J/K Matrices <==

    J tasked:                   Yes
    K tasked:                   Yes
    wK tasked:                   No
    OpenMP threads:               8
    Memory [MiB]:             22888
    Algorithm:                 Core
    Schwarz Cutoff:           1E-12
    Mask sparsity (%):      11.2024
    Fitting Condition:        1E-10

   => Auxiliary Basis Set <=

  Basis Set: (AUG-CC-PVTZ AUX)
    Blend: AUG-CC-PVTZ-JKFIT
    Number of shells: 536
    Number of basis functions: 1818
    Number of Cartesian functions: 2239
    Spherical Harmonics?: true
    Max angular momentum: 4

  ==> CPHF Iterations <==

  => Iterations <=

             Iter  Converged  Remaining    Residual
  CGR           1          0          1   1.130E-01
  CGR           2          0          1   2.913E-02
  CGR           3          0          1   1.168E-02
  CGR           4          0          1   3.388E-03
  CGR           5          0          1   1.070E-03
  CGR           6          0          1   3.275E-04
  CGR           7          0          1   8.708E-05
  CGR           8          0          1   3.272E-05
  CGR           9          0          1   1.156E-05
  CGR          10          0          1   3.652E-06
  CGR          11          0          1   1.153E-06
  CGR          12          1          0   3.263E-07

    CGRSolver converged.

	-----------------------------------------------------------
	 ==================> DF-MP2 Energies <==================== 
	-----------------------------------------------------------
	 Reference Energy          =    -821.7832936996766193 [Eh]
	 Singles Energy            =      -0.0000000000000000 [Eh]
	 Same-Spin Energy          =      -0.5009925047192955 [Eh]
	 Opposite-Spin Energy      =      -1.6488086976645799 [Eh]
	 Correlation Energy        =      -2.1498012023838755 [Eh]
	 Total Energy              =    -823.9330949020604749 [Eh]
	-----------------------------------------------------------
	 ================> DF-SCS-MP2 Energies <================== 
	-----------------------------------------------------------
	 SCS Same-Spin Scale       =       0.3333333333333333 [-]
	 SCS Opposite-Spin Scale   =       1.2000000000000000 [-]
	 SCS Same-Spin Energy      =      -0.1669975015730985 [Eh]
	 SCS Opposite-Spin Energy  =      -1.9785704371974959 [Eh]
	 SCS Correlation Energy    =      -2.1455679387705944 [Eh]
	 SCS Total Energy          =    -823.9288616384471879 [Eh]
	-----------------------------------------------------------



Properties will be evaluated at  -0.000000,   0.000000,   0.000000 [a0]

Properties computed using the MP2 density matrix

  Nuclear Dipole Moment: [e a0]
     X:     1.7820      Y:     6.9948      Z:    -3.4799

  Electronic Dipole Moment: [e a0]
     X:    -1.8507      Y:    -5.4997      Z:     2.8602

  Dipole Moment: [e a0]
     X:    -0.0687      Y:     1.4950      Z:    -0.6197     Total:     1.6198

  Dipole Moment: [D]
     X:    -0.1747      Y:     3.8000      Z:    -1.5751     Total:     4.1172


*** tstop() called on c451-101.stampede2.tacc.utexas.edu at Thu Apr  1 16:07:28 2021
Module time:
	user time   =    3136.85 seconds =      52.28 minutes
	system time =      45.29 seconds =       0.75 minutes
	total time  =        510 seconds =       8.50 minutes
Total time:
	user time   =    3834.22 seconds =      63.90 minutes
	system time =      60.92 seconds =       1.02 minutes
	total time  =        628 seconds =      10.47 minutes

    Psi4 stopped on: Thursday, 01 April 2021 04:07PM
    Psi4 wall time for execution: 0:10:29.10

*** Psi4 exiting successfully. Buy a developer a beer!
