
    -----------------------------------------------------------------------
          Psi4: An Open-Source Ab Initio Electronic Structure Package
                               Psi4 1.4a3.dev225 

                         Git: Rev {master} 7105e37 


    D. G. A. Smith, L. A. Burns, A. C. Simmonett, R. M. Parrish,
    M. C. Schieber, R. Galvelis, P. Kraus, H. Kruse, R. Di Remigio,
    A. Alenaizan, A. M. James, S. Lehtola, J. P. Misiewicz, M. Scheurer,
    R. A. Shaw, J. B. Schriber, Y. Xie, Z. L. Glick, D. A. Sirianni,
    J. S. O'Brien, J. M. Waldrop, A. Kumar, E. G. Hohenstein,
    B. P. Pritchard, B. R. Brooks, H. F. Schaefer III, A. Yu. Sokolov,
    K. Patkowski, A. E. DePrince III, U. Bozkaya, R. A. King,
    F. A. Evangelista, J. M. Turney, T. D. Crawford, C. D. Sherrill,
    J. Chem. Phys. 152(18) 184108 (2020). https://doi.org/10.1063/5.0006002

                            Additional Code Authors
    E. T. Seidl, C. L. Janssen, E. F. Valeev, M. L. Leininger,
    J. F. Gonthier, R. M. Richard, H. R. McAlexander, M. Saitow, X. Wang,
    P. Verma, and M. H. Lechner

             Previous Authors, Complete List of Code Contributors,
                       and Citations for Specific Modules
    https://github.com/psi4/psi4/blob/master/codemeta.json
    https://github.com/psi4/psi4/graphs/contributors
    http://psicode.org/psi4manual/master/introduction.html#citing-psifour

    -----------------------------------------------------------------------


    Psi4 started on: Thursday, 01 April 2021 05:33PM

    Process ID: 120824
    Host:       c451-101.stampede2.tacc.utexas.edu
    PSIDATADIR: /home1/07844/xy3866/miniconda3/envs/p4env/share/psi4
    Memory:     500.0 MiB
    Threads:    8
    
  ==> Input File <==

--------------------------------------------------------------------------
#psi4
#
memory 32 gb

molecule  {
0 1
  S       -0.2573260    -0.3323280     0.1419150
  O       -0.2860210    -1.5224110    -0.7288200
  O       -0.1913230    -0.4820040     1.6079470
  C        1.1077430     0.7304620    -0.3526940
  C        2.4495880     0.2623560     0.2167580
  C       -1.7119910     0.6470300    -0.2467030
  C       -2.9773330    -0.1490110     0.0593080
  C        2.9081668    -1.1210184    -0.3884414
  C        3.4979800     1.3449170    -0.0414460
  C       -4.2305000     0.6643980    -0.2524990
  H        1.1201440     0.7512950    -1.4483370
  H        0.8637990     1.7314470     0.0219200
  H        2.3201640     0.1499000     1.2996700
  H       -1.6515560     0.9087510    -1.3087410
  H       -1.6583250     1.5603790     0.3547230
  H       -2.9641430    -1.0716000    -0.5283160
  H       -2.9644700    -0.4377180     1.1148610
  H        2.9999490    -1.0007780    -1.4570900
  H        2.1808400    -1.8761700    -0.1584720
  H        3.8652790    -1.3613920     0.0461660
  H        3.6372140     1.5009250    -1.1167480
  H        3.2107350     2.3002430     0.4092550
  H        4.4622490     1.0479330     0.3817310
  H       -4.2653590     1.5804770     0.3446860
  H       -4.2647910     0.9464390    -1.3091180
  H       -5.1305020     0.0846610    -0.0305780
units angstrom
no_reorient  #important for SAPT in psi4, default
symmetry c1  #important for SAPT in psi4, default
}

set PROPERTIES_ORIGIN ["COM"]
properties('MP2/aug-cc-pvtz', properties = ['dipole'])
--------------------------------------------------------------------------

  Memory set to  29.802 GiB by Python driver.
    SCF Algorithm Type (re)set to DF.

*** tstart() called on c451-101.stampede2.tacc.utexas.edu
*** at Thu Apr  1 17:33:42 2021

   => Loading Basis Set <=

    Name: AUG-CC-PVTZ
    Role: ORBITAL
    Keyword: BASIS
    atoms 1     entry S          line   906 file /home1/07844/xy3866/miniconda3/envs/p4env/share/psi4/basis/aug-cc-pvtz.gbs 
    atoms 2-3   entry O          line   331 file /home1/07844/xy3866/miniconda3/envs/p4env/share/psi4/basis/aug-cc-pvtz.gbs 
    atoms 4-10  entry C          line   239 file /home1/07844/xy3866/miniconda3/envs/p4env/share/psi4/basis/aug-cc-pvtz.gbs 
    atoms 11-26 entry H          line    40 file /home1/07844/xy3866/miniconda3/envs/p4env/share/psi4/basis/aug-cc-pvtz.gbs 


         ---------------------------------------------------------
                                   SCF
               by Justin Turney, Rob Parrish, Andy Simmonett
                          and Daniel G. A. Smith
                              RHF Reference
                        8 Threads,  30517 MiB Core
         ---------------------------------------------------------

  ==> Geometry <==

    Molecular point group: c1
    Full point group: C1

    Geometry (in Angstrom), charge = 0, multiplicity = 1:

       Center              X                  Y                   Z               Mass       
    ------------   -----------------  -----------------  -----------------  -----------------
         S           -0.247797722370    -0.288034816391     0.122904376845    31.972071174400
         O           -0.276492722370    -1.478117816391    -0.747830623155    15.994914619570
         O           -0.181794722370    -0.437710816391     1.588936376845    15.994914619570
         C            1.117271277630     0.774755183609    -0.371704623155    12.000000000000
         C            2.459116277630     0.306649183609     0.197747376845    12.000000000000
         C           -1.702462722370     0.691323183609    -0.265713623155    12.000000000000
         C           -2.967804722370    -0.104717816391     0.040297376845    12.000000000000
         C            2.917695077630    -1.076725216391    -0.407452023155    12.000000000000
         C            3.507508277630     1.389210183609    -0.060456623155    12.000000000000
         C           -4.220971722370     0.708691183609    -0.271509623155    12.000000000000
         H            1.129672277630     0.795588183609    -1.467347623155     1.007825032230
         H            0.873327277630     1.775740183609     0.002909376845     1.007825032230
         H            2.329692277630     0.194193183609     1.280659376845     1.007825032230
         H           -1.642027722370     0.953044183609    -1.327751623155     1.007825032230
         H           -1.648796722370     1.604672183609     0.335712376845     1.007825032230
         H           -2.954614722370    -1.027306816391    -0.547326623155     1.007825032230
         H           -2.954941722370    -0.393424816391     1.095850376845     1.007825032230
         H            3.009477277630    -0.956484816391    -1.476100623155     1.007825032230
         H            2.190368277630    -1.831876816391    -0.177482623155     1.007825032230
         H            3.874807277630    -1.317098816391     0.027155376845     1.007825032230
         H            3.646742277630     1.545218183609    -1.135758623155     1.007825032230
         H            3.220263277630     2.344536183609     0.390244376845     1.007825032230
         H            4.471777277630     1.092226183609     0.362720376845     1.007825032230
         H           -4.255830722370     1.624770183609     0.325675376845     1.007825032230
         H           -4.255262722370     0.990732183609    -1.328128623155     1.007825032230
         H           -5.120973722370     0.128954183609    -0.049588623155     1.007825032230

  Running in c1 symmetry.

  Rotational constants: A =      0.08687  B =      0.01812  C =      0.01707 [cm^-1]
  Rotational constants: A =   2604.23257  B =    543.09176  C =    511.83898 [MHz]
  Nuclear repulsion =  706.465492638415412

  Charge       = 0
  Multiplicity = 1
  Electrons    = 90
  Nalpha       = 45
  Nbeta        = 45

  ==> Algorithm <==

  SCF Algorithm Type is DF.
  DIIS enabled.
  MOM disabled.
  Fractional occupation disabled.
  Guess Type is SAD.
  Energy threshold   = 1.00e-10
  Density threshold  = 1.00e-10
  Integral threshold = 1.00e-12

  ==> Primary Basis <==

  Basis Set: AUG-CC-PVTZ
    Blend: AUG-CC-PVTZ
    Number of shells: 286
    Number of basis functions: 832
    Number of Cartesian functions: 954
    Spherical Harmonics?: true
    Max angular momentum: 3

   => Loading Basis Set <=

    Name: (AUG-CC-PVTZ AUX)
    Role: JKFIT
    Keyword: DF_BASIS_SCF
    atoms 1     entry S          line   730 file /home1/07844/xy3866/miniconda3/envs/p4env/share/psi4/basis/aug-cc-pvtz-jkfit.gbs 
    atoms 2-3   entry O          line   286 file /home1/07844/xy3866/miniconda3/envs/p4env/share/psi4/basis/aug-cc-pvtz-jkfit.gbs 
    atoms 4-10  entry C          line   162 file /home1/07844/xy3866/miniconda3/envs/p4env/share/psi4/basis/aug-cc-pvtz-jkfit.gbs 
    atoms 11-26 entry H          line    70 file /home1/07844/xy3866/miniconda3/envs/p4env/share/psi4/basis/aug-cc-pvtz-jkfit.gbs 

  ==> Integral Setup <==

  DFHelper Memory: AOs need 8.078 GiB; user supplied 22.352 GiB. Using in-core AOs.

  ==> MemDFJK: Density-Fitted J/K Matrices <==

    J tasked:                   Yes
    K tasked:                   Yes
    wK tasked:                   No
    OpenMP threads:               8
    Memory [MiB]:             22888
    Algorithm:                 Core
    Schwarz Cutoff:           1E-12
    Mask sparsity (%):      16.0393
    Fitting Condition:        1E-10

   => Auxiliary Basis Set <=

  Basis Set: (AUG-CC-PVTZ AUX)
    Blend: AUG-CC-PVTZ-JKFIT
    Number of shells: 536
    Number of basis functions: 1818
    Number of Cartesian functions: 2239
    Spherical Harmonics?: true
    Max angular momentum: 4

  Minimum eigenvalue in the overlap matrix is 2.4658221030E-06.
  Reciprocal condition number of the overlap matrix is 1.1426642576E-07.
    Using symmetric orthogonalization.

  ==> Pre-Iterations <==

  SCF Guess: Superposition of Atomic Densities via on-the-fly atomic UHF (no occupation information).

   -------------------------
    Irrep   Nso     Nmo    
   -------------------------
     A        832     832 
   -------------------------
    Total     832     832
   -------------------------

  ==> Iterations <==

                           Total Energy        Delta E     RMS |[F,P]|

   @DF-RHF iter SAD:  -821.64419957208293   -8.21644e+02   0.00000e+00 
   @DF-RHF iter   1:  -821.29692819482580    3.47271e-01   1.16231e-03 DIIS
   @DF-RHF iter   2:  -821.63995458019087   -3.43026e-01   7.11844e-04 DIIS
   @DF-RHF iter   3:  -821.77414007394498   -1.34185e-01   1.31946e-04 DIIS
   @DF-RHF iter   4:  -821.78090194577783   -6.76187e-03   4.71093e-05 DIIS
   @DF-RHF iter   5:  -821.78192643032969   -1.02448e-03   9.06647e-06 DIIS
   @DF-RHF iter   6:  -821.78196611875080   -3.96884e-05   2.51540e-06 DIIS
   @DF-RHF iter   7:  -821.78196980991197   -3.69116e-06   5.58125e-07 DIIS
   @DF-RHF iter   8:  -821.78197002948468   -2.19573e-07   1.63468e-07 DIIS
   @DF-RHF iter   9:  -821.78197005156562   -2.20809e-08   5.94323e-08 DIIS
   @DF-RHF iter  10:  -821.78197005397340   -2.40777e-09   2.09930e-08 DIIS
   @DF-RHF iter  11:  -821.78197005427239   -2.98996e-10   7.55972e-09 DIIS
   @DF-RHF iter  12:  -821.78197005430297   -3.05818e-11   3.06930e-09 DIIS
   @DF-RHF iter  13:  -821.78197005430718   -4.20641e-12   7.75710e-10 DIIS
   @DF-RHF iter  14:  -821.78197005430854   -1.36424e-12   2.68740e-10 DIIS
   @DF-RHF iter  15:  -821.78197005431002   -1.47793e-12   1.00166e-10 DIIS
   @DF-RHF iter  16:  -821.78197005431036   -3.41061e-13   3.64270e-11 DIIS
  Energy and wave function converged.


  ==> Post-Iterations <==

    Orbital Energies [Eh]
    ---------------------

    Doubly Occupied:                                                      

       1A    -92.170049     2A    -20.535460     3A    -20.534892  
       4A    -11.274711     5A    -11.273600     6A    -11.248283  
       7A    -11.241383     8A    -11.229615     9A    -11.226823  
      10A    -11.211430    11A     -9.140536    12A     -6.824922  
      13A     -6.824514    14A     -6.824325    15A     -1.425830  
      16A     -1.316624    17A     -1.112045    18A     -1.095071  
      19A     -1.012140    20A     -0.960119    21A     -0.938017  
      22A     -0.850859    23A     -0.805059    24A     -0.778341  
      25A     -0.687443    26A     -0.675394    27A     -0.662824  
      28A     -0.641654    29A     -0.618739    30A     -0.604792  
      31A     -0.591424    32A     -0.581852    33A     -0.568158  
      34A     -0.554142    35A     -0.543853    36A     -0.530285  
      37A     -0.511728    38A     -0.504905    39A     -0.496300  
      40A     -0.488869    41A     -0.478800    42A     -0.472375  
      43A     -0.467241    44A     -0.456252    45A     -0.418646  

    Virtual:                                                              

      46A      0.022895    47A      0.028031    48A      0.034800  
      49A      0.036076    50A      0.044691    51A      0.045667  
      52A      0.048844    53A      0.056099    54A      0.060330  
      55A      0.064825    56A      0.067954    57A      0.069327  
      58A      0.070588    59A      0.082219    60A      0.090641  
      61A      0.092872    62A      0.102524    63A      0.109533  
      64A      0.112712    65A      0.118629    66A      0.120106  
      67A      0.123727    68A      0.128382    69A      0.131550  
      70A      0.132032    71A      0.138424    72A      0.140813  
      73A      0.143062    74A      0.149301    75A      0.152788  
      76A      0.156141    77A      0.162955    78A      0.163909  
      79A      0.168874    80A      0.172493    81A      0.173947  
      82A      0.175028    83A      0.181686    84A      0.184572  
      85A      0.195104    86A      0.198845    87A      0.206629  
      88A      0.215294    89A      0.217580    90A      0.219750  
      91A      0.227422    92A      0.237754    93A      0.239918  
      94A      0.242540    95A      0.245559    96A      0.250321  
      97A      0.254138    98A      0.255617    99A      0.258755  
     100A      0.263224   101A      0.266218   102A      0.268771  
     103A      0.275130   104A      0.280959   105A      0.285297  
     106A      0.288926   107A      0.294061   108A      0.296096  
     109A      0.303265   110A      0.309038   111A      0.310358  
     112A      0.314617   113A      0.316082   114A      0.325211  
     115A      0.328712   116A      0.337853   117A      0.339806  
     118A      0.345587   119A      0.350038   120A      0.351597  
     121A      0.355194   122A      0.356385   123A      0.362771  
     124A      0.365727   125A      0.368591   126A      0.371813  
     127A      0.376018   128A      0.380901   129A      0.381501  
     130A      0.386272   131A      0.390364   132A      0.393275  
     133A      0.396692   134A      0.399792   135A      0.402703  
     136A      0.405574   137A      0.409961   138A      0.413785  
     139A      0.417836   140A      0.421968   141A      0.423759  
     142A      0.428622   143A      0.432485   144A      0.435855  
     145A      0.441448   146A      0.444305   147A      0.448523  
     148A      0.451553   149A      0.453228   150A      0.457644  
     151A      0.460810   152A      0.461963   153A      0.464860  
     154A      0.466965   155A      0.468054   156A      0.478585  
     157A      0.481166   158A      0.483225   159A      0.483943  
     160A      0.496391   161A      0.501282   162A      0.503193  
     163A      0.503881   164A      0.507703   165A      0.509854  
     166A      0.519636   167A      0.522238   168A      0.525550  
     169A      0.526877   170A      0.531334   171A      0.534678  
     172A      0.541343   173A      0.544611   174A      0.548038  
     175A      0.550355   176A      0.552591   177A      0.559098  
     178A      0.561977   179A      0.568621   180A      0.576785  
     181A      0.579963   182A      0.585376   183A      0.589841  
     184A      0.593351   185A      0.599911   186A      0.606622  
     187A      0.607472   188A      0.609895   189A      0.615701  
     190A      0.619456   191A      0.624469   192A      0.628779  
     193A      0.635007   194A      0.635704   195A      0.642055  
     196A      0.647457   197A      0.656565   198A      0.662524  
     199A      0.670666   200A      0.680702   201A      0.683961  
     202A      0.685550   203A      0.692164   204A      0.702051  
     205A      0.706447   206A      0.712131   207A      0.720484  
     208A      0.730479   209A      0.741723   210A      0.742823  
     211A      0.749533   212A      0.756335   213A      0.761298  
     214A      0.772097   215A      0.781103   216A      0.782636  
     217A      0.791530   218A      0.798416   219A      0.804351  
     220A      0.808755   221A      0.820063   222A      0.825945  
     223A      0.830088   224A      0.833238   225A      0.838014  
     226A      0.840433   227A      0.845464   228A      0.853102  
     229A      0.860869   230A      0.863774   231A      0.868600  
     232A      0.874972   233A      0.879819   234A      0.884418  
     235A      0.886988   236A      0.888890   237A      0.895883  
     238A      0.902389   239A      0.906482   240A      0.911063  
     241A      0.916744   242A      0.923137   243A      0.931733  
     244A      0.932695   245A      0.934320   246A      0.938227  
     247A      0.943293   248A      0.951107   249A      0.952851  
     250A      0.956129   251A      0.960335   252A      0.963079  
     253A      0.965245   254A      0.973445   255A      0.976883  
     256A      0.980323   257A      0.987361   258A      0.992059  
     259A      0.994611   260A      1.005448   261A      1.008867  
     262A      1.014961   263A      1.015636   264A      1.018792  
     265A      1.029965   266A      1.032881   267A      1.034678  
     268A      1.038490   269A      1.042846   270A      1.048984  
     271A      1.053787   272A      1.056746   273A      1.063037  
     274A      1.072386   275A      1.073417   276A      1.079381  
     277A      1.080082   278A      1.087225   279A      1.091377  
     280A      1.095301   281A      1.108939   282A      1.113531  
     283A      1.115274   284A      1.117203   285A      1.123501  
     286A      1.131438   287A      1.136573   288A      1.141649  
     289A      1.146266   290A      1.150669   291A      1.157924  
     292A      1.159282   293A      1.165919   294A      1.169506  
     295A      1.175877   296A      1.178405   297A      1.186892  
     298A      1.189261   299A      1.194484   300A      1.203373  
     301A      1.207290   302A      1.211756   303A      1.217625  
     304A      1.218734   305A      1.224368   306A      1.230473  
     307A      1.234046   308A      1.239107   309A      1.247377  
     310A      1.253695   311A      1.255906   312A      1.258433  
     313A      1.268450   314A      1.277601   315A      1.285976  
     316A      1.289127   317A      1.294029   318A      1.301986  
     319A      1.305605   320A      1.314225   321A      1.319088  
     322A      1.325436   323A      1.331917   324A      1.337079  
     325A      1.342047   326A      1.348776   327A      1.354016  
     328A      1.357790   329A      1.361216   330A      1.370851  
     331A      1.374429   332A      1.388171   333A      1.394599  
     334A      1.401126   335A      1.406278   336A      1.411836  
     337A      1.421935   338A      1.429362   339A      1.439322  
     340A      1.441117   341A      1.442811   342A      1.457861  
     343A      1.459907   344A      1.462515   345A      1.475718  
     346A      1.481319   347A      1.490196   348A      1.491794  
     349A      1.503378   350A      1.505107   351A      1.516594  
     352A      1.519214   353A      1.523779   354A      1.535144  
     355A      1.537048   356A      1.545874   357A      1.552023  
     358A      1.556782   359A      1.565000   360A      1.570921  
     361A      1.581129   362A      1.588453   363A      1.592000  
     364A      1.597432   365A      1.603735   366A      1.615889  
     367A      1.621341   368A      1.633283   369A      1.638614  
     370A      1.648877   371A      1.653389   372A      1.663792  
     373A      1.667900   374A      1.675019   375A      1.677720  
     376A      1.685020   377A      1.686711   378A      1.692132  
     379A      1.698224   380A      1.700478   381A      1.706129  
     382A      1.711571   383A      1.715932   384A      1.717780  
     385A      1.721038   386A      1.725868   387A      1.735091  
     388A      1.737666   389A      1.742784   390A      1.744663  
     391A      1.747906   392A      1.755169   393A      1.759920  
     394A      1.763769   395A      1.777148   396A      1.781202  
     397A      1.782600   398A      1.790759   399A      1.791675  
     400A      1.809635   401A      1.813058   402A      1.820114  
     403A      1.831968   404A      1.837194   405A      1.840473  
     406A      1.858691   407A      1.862992   408A      1.864267  
     409A      1.870158   410A      1.877046   411A      1.884623  
     412A      1.897819   413A      1.900978   414A      1.907658  
     415A      1.910348   416A      1.915917   417A      1.920520  
     418A      1.924866   419A      1.940404   420A      1.946174  
     421A      1.956446   422A      1.959215   423A      1.962182  
     424A      1.968283   425A      1.982930   426A      1.983466  
     427A      1.987735   428A      1.994976   429A      2.003806  
     430A      2.009399   431A      2.012048   432A      2.022590  
     433A      2.028733   434A      2.039688   435A      2.044935  
     436A      2.055851   437A      2.065776   438A      2.067889  
     439A      2.072222   440A      2.081238   441A      2.087801  
     442A      2.104525   443A      2.109418   444A      2.114165  
     445A      2.126091   446A      2.131241   447A      2.144757  
     448A      2.149873   449A      2.166464   450A      2.183731  
     451A      2.190419   452A      2.201690   453A      2.203920  
     454A      2.207952   455A      2.221263   456A      2.228165  
     457A      2.249362   458A      2.250707   459A      2.256681  
     460A      2.262589   461A      2.263962   462A      2.268962  
     463A      2.279228   464A      2.285849   465A      2.293286  
     466A      2.305821   467A      2.312608   468A      2.321718  
     469A      2.325821   470A      2.329687   471A      2.357195  
     472A      2.362595   473A      2.369357   474A      2.384151  
     475A      2.390441   476A      2.398415   477A      2.406069  
     478A      2.413888   479A      2.431233   480A      2.439107  
     481A      2.449033   482A      2.452881   483A      2.466886  
     484A      2.473609   485A      2.480694   486A      2.497340  
     487A      2.502216   488A      2.514386   489A      2.519777  
     490A      2.536222   491A      2.542702   492A      2.552260  
     493A      2.559797   494A      2.567298   495A      2.577829  
     496A      2.585251   497A      2.586615   498A      2.615213  
     499A      2.631909   500A      2.643302   501A      2.651028  
     502A      2.664174   503A      2.674263   504A      2.686035  
     505A      2.714130   506A      2.723092   507A      2.751095  
     508A      2.773367   509A      2.787097   510A      2.798209  
     511A      2.804575   512A      2.821142   513A      2.833621  
     514A      2.841255   515A      2.859356   516A      2.874092  
     517A      2.901133   518A      2.913615   519A      2.918475  
     520A      2.937645   521A      2.956011   522A      2.969817  
     523A      2.995663   524A      2.997702   525A      3.025977  
     526A      3.059829   527A      3.072884   528A      3.083383  
     529A      3.107130   530A      3.141213   531A      3.147478  
     532A      3.157748   533A      3.178118   534A      3.214360  
     535A      3.253066   536A      3.302584   537A      3.324102  
     538A      3.368807   539A      3.379808   540A      3.406087  
     541A      3.420831   542A      3.427833   543A      3.438759  
     544A      3.448528   545A      3.474979   546A      3.481196  
     547A      3.484020   548A      3.507772   549A      3.511084  
     550A      3.519435   551A      3.532351   552A      3.540366  
     553A      3.548436   554A      3.572040   555A      3.574409  
     556A      3.586752   557A      3.598522   558A      3.609907  
     559A      3.612029   560A      3.639708   561A      3.648175  
     562A      3.661776   563A      3.671802   564A      3.679620  
     565A      3.690038   566A      3.694678   567A      3.706007  
     568A      3.710955   569A      3.726543   570A      3.732504  
     571A      3.733908   572A      3.740633   573A      3.744287  
     574A      3.758740   575A      3.764343   576A      3.767991  
     577A      3.774591   578A      3.783988   579A      3.798493  
     580A      3.802765   581A      3.806662   582A      3.824631  
     583A      3.833815   584A      3.842035   585A      3.845821  
     586A      3.856615   587A      3.857247   588A      3.867273  
     589A      3.874504   590A      3.885479   591A      3.899409  
     592A      3.901167   593A      3.925294   594A      3.932204  
     595A      3.944284   596A      3.952484   597A      3.957228  
     598A      3.966673   599A      3.972391   600A      3.974429  
     601A      3.977658   602A      3.989579   603A      3.993356  
     604A      4.002865   605A      4.009099   606A      4.023330  
     607A      4.026806   608A      4.035033   609A      4.036416  
     610A      4.044444   611A      4.051020   612A      4.058292  
     613A      4.066874   614A      4.074273   615A      4.076280  
     616A      4.102292   617A      4.109525   618A      4.120354  
     619A      4.126771   620A      4.142631   621A      4.156632  
     622A      4.173385   623A      4.185508   624A      4.197726  
     625A      4.201184   626A      4.208721   627A      4.224518  
     628A      4.227195   629A      4.232478   630A      4.255977  
     631A      4.267022   632A      4.272918   633A      4.275928  
     634A      4.279236   635A      4.287044   636A      4.296243  
     637A      4.309693   638A      4.322452   639A      4.328074  
     640A      4.350049   641A      4.357184   642A      4.361321  
     643A      4.376235   644A      4.386227   645A      4.400917  
     646A      4.411756   647A      4.426801   648A      4.432648  
     649A      4.444050   650A      4.466399   651A      4.484642  
     652A      4.493958   653A      4.512485   654A      4.515642  
     655A      4.525817   656A      4.533737   657A      4.552046  
     658A      4.569220   659A      4.580336   660A      4.607480  
     661A      4.626628   662A      4.648619   663A      4.659330  
     664A      4.667739   665A      4.673569   666A      4.687167  
     667A      4.690120   668A      4.698402   669A      4.711720  
     670A      4.715812   671A      4.723373   672A      4.736988  
     673A      4.751485   674A      4.756717   675A      4.770776  
     676A      4.780351   677A      4.788899   678A      4.794121  
     679A      4.815622   680A      4.842139   681A      4.848899  
     682A      4.854933   683A      4.877950   684A      4.887412  
     685A      4.901649   686A      4.906593   687A      4.914637  
     688A      4.921909   689A      4.934635   690A      4.951688  
     691A      4.965642   692A      4.968009   693A      4.987549  
     694A      5.003267   695A      5.009414   696A      5.034914  
     697A      5.042814   698A      5.063510   699A      5.084886  
     700A      5.088428   701A      5.091527   702A      5.116187  
     703A      5.118941   704A      5.137511   705A      5.144921  
     706A      5.150585   707A      5.175821   708A      5.181956  
     709A      5.198482   710A      5.206490   711A      5.211349  
     712A      5.212843   713A      5.233812   714A      5.240066  
     715A      5.242528   716A      5.250853   717A      5.279740  
     718A      5.293694   719A      5.301658   720A      5.314854  
     721A      5.322801   722A      5.334424   723A      5.336237  
     724A      5.356316   725A      5.361647   726A      5.372468  
     727A      5.377809   728A      5.383355   729A      5.391737  
     730A      5.392776   731A      5.404448   732A      5.418053  
     733A      5.432943   734A      5.440751   735A      5.460896  
     736A      5.471327   737A      5.478306   738A      5.490917  
     739A      5.499109   740A      5.533096   741A      5.540702  
     742A      5.563964   743A      5.567507   744A      5.585371  
     745A      5.611034   746A      5.613946   747A      5.622680  
     748A      5.638513   749A      5.646681   750A      5.666703  
     751A      5.703192   752A      5.707510   753A      5.713489  
     754A      5.737060   755A      5.746330   756A      5.794341  
     757A      5.800123   758A      5.813248   759A      5.833992  
     760A      5.839625   761A      5.867322   762A      5.887055  
     763A      5.922463   764A      5.951818   765A      5.960852  
     766A      5.982597   767A      5.987943   768A      6.028907  
     769A      6.043397   770A      6.046124   771A      6.086570  
     772A      6.109629   773A      6.150766   774A      6.154743  
     775A      6.175006   776A      6.187986   777A      6.226647  
     778A      6.234450   779A      6.250617   780A      6.262137  
     781A      6.274599   782A      6.290354   783A      6.313800  
     784A      6.344119   785A      6.390525   786A      6.468926  
     787A      6.504977   788A      6.558731   789A      6.736404  
     790A      6.743665   791A      6.780942   792A      6.798910  
     793A      6.817273   794A      6.822814   795A      6.834852  
     796A      6.852116   797A      6.860364   798A      6.868674  
     799A      6.895373   800A      6.920681   801A      6.945865  
     802A      6.965462   803A      6.971955   804A      6.979580  
     805A      7.048568   806A      7.055078   807A      7.073456  
     808A      7.090434   809A      7.115700   810A      7.135732  
     811A      7.166547   812A      7.252317   813A      7.398630  
     814A      7.446895   815A      7.463329   816A      7.499107  
     817A      7.677975   818A      7.754293   819A      7.773801  
     820A      7.802306   821A      7.867095   822A      7.881117  
     823A     13.165213   824A     13.931363   825A     14.342894  
     826A     17.720547   827A     17.833379   828A     17.923710  
     829A     18.225225   830A     18.412003   831A     18.920631  
     832A     19.573849  

    Final Occupation by Irrep:
              A 
    DOCC [    45 ]

  @DF-RHF Final Energy:  -821.78197005431036

   => Energetics <=

    Nuclear Repulsion Energy =            706.4654926384154123
    One-Electron Energy =               -2529.6742810442515292
    Two-Electron Energy =                1001.4268183515256396
    Total Energy =                       -821.7819700543103636

Computation Completed

*** tstop() called on c451-101.stampede2.tacc.utexas.edu at Thu Apr  1 17:35:43 2021
Module time:
	user time   =     720.50 seconds =      12.01 minutes
	system time =      15.88 seconds =       0.26 minutes
	total time  =        121 seconds =       2.02 minutes
Total time:
	user time   =     720.50 seconds =      12.01 minutes
	system time =      15.88 seconds =       0.26 minutes
	total time  =        121 seconds =       2.02 minutes
   => Loading Basis Set <=

    Name: (AUG-CC-PVTZ AUX)
    Role: RIFIT
    Keyword: DF_BASIS_MP2
    atoms 1     entry S          line   666 file /home1/07844/xy3866/miniconda3/envs/p4env/share/psi4/basis/aug-cc-pvtz-ri.gbs 
    atoms 2-3   entry O          line   264 file /home1/07844/xy3866/miniconda3/envs/p4env/share/psi4/basis/aug-cc-pvtz-ri.gbs 
    atoms 4-10  entry C          line   148 file /home1/07844/xy3866/miniconda3/envs/p4env/share/psi4/basis/aug-cc-pvtz-ri.gbs 
    atoms 11-26 entry H          line    30 file /home1/07844/xy3866/miniconda3/envs/p4env/share/psi4/basis/aug-cc-pvtz-ri.gbs 


*** tstart() called on c451-101.stampede2.tacc.utexas.edu
*** at Thu Apr  1 17:35:45 2021


  //>>>>>>>>>>>>>>>>>>>>>>>>>>>>>>>>>>>//
  //               DFMP2               //
  //<<<<<<<<<<<<<<<<<<<<<<<<<<<<<<<<<<<//

	 --------------------------------------------------------
	                          DF-MP2                         
	      2nd-Order Density-Fitted Moller-Plesset Theory     
	              RMP2 Wavefunction,   8 Threads             
	                                                         
	        Rob Parrish, Justin Turney, Andy Simmonett,      
	           Ed Hohenstein, and C. David Sherrill          
	 --------------------------------------------------------

   => Auxiliary Basis Set <=

  Basis Set: (AUG-CC-PVTZ AUX)
    Blend: AUG-CC-PVTZ-RI
    Number of shells: 513
    Number of basis functions: 1837
    Number of Cartesian functions: 2295
    Spherical Harmonics?: true
    Max angular momentum: 4

	 --------------------------------------------------------
	                 NBF =   832, NAUX =  1837
	 --------------------------------------------------------
	   CLASS    FOCC     OCC    AOCC    AVIR     VIR    FVIR
	   PAIRS       0      45      45     787     787       0
	 --------------------------------------------------------

  DFHelper Memory: AOs need 8.531 GiB; user supplied 22.352 GiB. Using in-core AOs.


         ------------------------------------------------------------
                                     CPHF                           
                                  Rob Parrish                       
         ------------------------------------------------------------

  ==> Geometry <==

    Molecular point group: c1
    Full point group: C1

    Geometry (in Angstrom), charge = 0, multiplicity = 1:

       Center              X                  Y                   Z               Mass       
    ------------   -----------------  -----------------  -----------------  -----------------
         S           -0.247797722370    -0.288034816391     0.122904376845    31.972071174400
         O           -0.276492722370    -1.478117816391    -0.747830623155    15.994914619570
         O           -0.181794722370    -0.437710816391     1.588936376845    15.994914619570
         C            1.117271277630     0.774755183609    -0.371704623155    12.000000000000
         C            2.459116277630     0.306649183609     0.197747376845    12.000000000000
         C           -1.702462722370     0.691323183609    -0.265713623155    12.000000000000
         C           -2.967804722370    -0.104717816391     0.040297376845    12.000000000000
         C            2.917695077630    -1.076725216391    -0.407452023155    12.000000000000
         C            3.507508277630     1.389210183609    -0.060456623155    12.000000000000
         C           -4.220971722370     0.708691183609    -0.271509623155    12.000000000000
         H            1.129672277630     0.795588183609    -1.467347623155     1.007825032230
         H            0.873327277630     1.775740183609     0.002909376845     1.007825032230
         H            2.329692277630     0.194193183609     1.280659376845     1.007825032230
         H           -1.642027722370     0.953044183609    -1.327751623155     1.007825032230
         H           -1.648796722370     1.604672183609     0.335712376845     1.007825032230
         H           -2.954614722370    -1.027306816391    -0.547326623155     1.007825032230
         H           -2.954941722370    -0.393424816391     1.095850376845     1.007825032230
         H            3.009477277630    -0.956484816391    -1.476100623155     1.007825032230
         H            2.190368277630    -1.831876816391    -0.177482623155     1.007825032230
         H            3.874807277630    -1.317098816391     0.027155376845     1.007825032230
         H            3.646742277630     1.545218183609    -1.135758623155     1.007825032230
         H            3.220263277630     2.344536183609     0.390244376845     1.007825032230
         H            4.471777277630     1.092226183609     0.362720376845     1.007825032230
         H           -4.255830722370     1.624770183609     0.325675376845     1.007825032230
         H           -4.255262722370     0.990732183609    -1.328128623155     1.007825032230
         H           -5.120973722370     0.128954183609    -0.049588623155     1.007825032230

  Nuclear repulsion =  706.465492638415412
  Reference energy  = -821.781970054310364

  ==> Basis Set <==

  Basis Set: AUG-CC-PVTZ
    Blend: AUG-CC-PVTZ
    Number of shells: 286
    Number of basis functions: 832
    Number of Cartesian functions: 954
    Spherical Harmonics?: true
    Max angular momentum: 3

  ==> CGRSolver (by Rob Parrish) <==

   Number of roots    =         1
   Preconditioning    =    JACOBI
   Convergence cutoff =     1E-06
   Maximum iterations =       100

  ==> CPHFRHamiltonian (by Rob Parrish) <== 

  ==> MemDFJK: Density-Fitted J/K Matrices <==

    J tasked:                   Yes
    K tasked:                   Yes
    wK tasked:                   No
    OpenMP threads:               8
    Memory [MiB]:             22888
    Algorithm:                 Core
    Schwarz Cutoff:           1E-12
    Mask sparsity (%):      11.1981
    Fitting Condition:        1E-10

   => Auxiliary Basis Set <=

  Basis Set: (AUG-CC-PVTZ AUX)
    Blend: AUG-CC-PVTZ-JKFIT
    Number of shells: 536
    Number of basis functions: 1818
    Number of Cartesian functions: 2239
    Spherical Harmonics?: true
    Max angular momentum: 4

  ==> CPHF Iterations <==

  => Iterations <=

             Iter  Converged  Remaining    Residual
  CGR           1          0          1   1.128E-01
  CGR           2          0          1   2.910E-02
  CGR           3          0          1   1.164E-02
  CGR           4          0          1   3.367E-03
  CGR           5          0          1   1.057E-03
  CGR           6          0          1   3.271E-04
  CGR           7          0          1   8.741E-05
  CGR           8          0          1   3.383E-05
  CGR           9          0          1   1.182E-05
  CGR          10          0          1   3.726E-06
  CGR          11          0          1   1.159E-06
  CGR          12          1          0   3.286E-07

    CGRSolver converged.

	-----------------------------------------------------------
	 ==================> DF-MP2 Energies <==================== 
	-----------------------------------------------------------
	 Reference Energy          =    -821.7819700543103636 [Eh]
	 Singles Energy            =      -0.0000000000000000 [Eh]
	 Same-Spin Energy          =      -0.5007435509672302 [Eh]
	 Opposite-Spin Energy      =      -1.6486993588316137 [Eh]
	 Correlation Energy        =      -2.1494429097988439 [Eh]
	 Total Energy              =    -823.9314129641091995 [Eh]
	-----------------------------------------------------------
	 ================> DF-SCS-MP2 Energies <================== 
	-----------------------------------------------------------
	 SCS Same-Spin Scale       =       0.3333333333333333 [-]
	 SCS Opposite-Spin Scale   =       1.2000000000000000 [-]
	 SCS Same-Spin Energy      =      -0.1669145169890767 [Eh]
	 SCS Opposite-Spin Energy  =      -1.9784392305979364 [Eh]
	 SCS Correlation Energy    =      -2.1453537475870132 [Eh]
	 SCS Total Energy          =    -823.9273238018973871 [Eh]
	-----------------------------------------------------------



Properties will be evaluated at   0.000000,  -0.000000,   0.000000 [a0]

Properties computed using the MP2 density matrix

  Nuclear Dipole Moment: [e a0]
     X:     1.7853      Y:     7.0362      Z:    -3.4506

  Electronic Dipole Moment: [e a0]
     X:    -1.8629      Y:    -5.5368      Z:     2.8309

  Dipole Moment: [e a0]
     X:    -0.0777      Y:     1.4995      Z:    -0.6198     Total:     1.6244

  Dipole Moment: [D]
     X:    -0.1974      Y:     3.8113      Z:    -1.5753     Total:     4.1287


*** tstop() called on c451-101.stampede2.tacc.utexas.edu at Thu Apr  1 17:44:23 2021
Module time:
	user time   =    3172.21 seconds =      52.87 minutes
	system time =      45.40 seconds =       0.76 minutes
	total time  =        518 seconds =       8.63 minutes
Total time:
	user time   =    3894.02 seconds =      64.90 minutes
	system time =      61.30 seconds =       1.02 minutes
	total time  =        641 seconds =      10.68 minutes

    Psi4 stopped on: Thursday, 01 April 2021 05:44PM
    Psi4 wall time for execution: 0:10:42.76

*** Psi4 exiting successfully. Buy a developer a beer!
