
    -----------------------------------------------------------------------
          Psi4: An Open-Source Ab Initio Electronic Structure Package
                               Psi4 1.4a3.dev225 

                         Git: Rev {master} 7105e37 


    D. G. A. Smith, L. A. Burns, A. C. Simmonett, R. M. Parrish,
    M. C. Schieber, R. Galvelis, P. Kraus, H. Kruse, R. Di Remigio,
    A. Alenaizan, A. M. James, S. Lehtola, J. P. Misiewicz, M. Scheurer,
    R. A. Shaw, J. B. Schriber, Y. Xie, Z. L. Glick, D. A. Sirianni,
    J. S. O'Brien, J. M. Waldrop, A. Kumar, E. G. Hohenstein,
    B. P. Pritchard, B. R. Brooks, H. F. Schaefer III, A. Yu. Sokolov,
    K. Patkowski, A. E. DePrince III, U. Bozkaya, R. A. King,
    F. A. Evangelista, J. M. Turney, T. D. Crawford, C. D. Sherrill,
    J. Chem. Phys. 152(18) 184108 (2020). https://doi.org/10.1063/5.0006002

                            Additional Code Authors
    E. T. Seidl, C. L. Janssen, E. F. Valeev, M. L. Leininger,
    J. F. Gonthier, R. M. Richard, H. R. McAlexander, M. Saitow, X. Wang,
    P. Verma, and M. H. Lechner

             Previous Authors, Complete List of Code Contributors,
                       and Citations for Specific Modules
    https://github.com/psi4/psi4/blob/master/codemeta.json
    https://github.com/psi4/psi4/graphs/contributors
    http://psicode.org/psi4manual/master/introduction.html#citing-psifour

    -----------------------------------------------------------------------


    Psi4 started on: Sunday, 28 February 2021 11:17AM

    Process ID: 3914
    Host:       c401-011.stampede2.tacc.utexas.edu
    PSIDATADIR: /home1/07844/xy3866/miniconda3/envs/p4env/share/psi4
    Memory:     500.0 MiB
    Threads:    32
    
  ==> Input File <==

--------------------------------------------------------------------------
#psi4
#
memory 32 gb

molecule  {
0 1
  S       -0.2573260    -0.3323280     0.1419150
  O       -0.2860210    -1.5224110    -0.7288200
  O       -0.1913230    -0.4820040     1.6079470
  C        1.1077430     0.7304620    -0.3526940
  C        2.4495880     0.2623560     0.2167580
  C       -1.7119910     0.6470300    -0.2467030
  C       -2.9773330    -0.1490110     0.0593080
  C        2.8936370    -1.0771870    -0.3692660
  C        3.4979800     1.3449170    -0.0414460
  C       -4.2305000     0.6643980    -0.2524990
  H        1.1201440     0.7512950    -1.4483370
  H        0.8637990     1.7314470     0.0219200
  H        2.3201640     0.1499000     1.2996700
  H       -1.6515560     0.9087510    -1.3087410
  H       -1.6681279     1.3935416     0.2448632
  H       -2.9641430    -1.0716000    -0.5283160
  H       -2.9644700    -0.4377180     1.1148610
  H        2.9999490    -1.0007780    -1.4570900
  H        2.1808400    -1.8761700    -0.1584720
  H        3.8652790    -1.3613920     0.0461660
  H        3.6372140     1.5009250    -1.1167480
  H        3.2107350     2.3002430     0.4092550
  H        4.4622490     1.0479330     0.3817310
  H       -4.2653590     1.5804770     0.3446860
  H       -4.2647910     0.9464390    -1.3091180
  H       -5.1305020     0.0846610    -0.0305780
units angstrom
no_reorient  #important for SAPT in psi4, default
symmetry c1  #important for SAPT in psi4, default
}

set PROPERTIES_ORIGIN ["COM"]
properties('MP2/aug-cc-pvtz', properties = ['dipole'])
--------------------------------------------------------------------------

  Memory set to  29.802 GiB by Python driver.
    SCF Algorithm Type (re)set to DF.

*** tstart() called on c401-011.stampede2.tacc.utexas.edu
*** at Sun Feb 28 11:17:28 2021

   => Loading Basis Set <=

    Name: AUG-CC-PVTZ
    Role: ORBITAL
    Keyword: BASIS
    atoms 1     entry S          line   906 file /home1/07844/xy3866/miniconda3/envs/p4env/share/psi4/basis/aug-cc-pvtz.gbs 
    atoms 2-3   entry O          line   331 file /home1/07844/xy3866/miniconda3/envs/p4env/share/psi4/basis/aug-cc-pvtz.gbs 
    atoms 4-10  entry C          line   239 file /home1/07844/xy3866/miniconda3/envs/p4env/share/psi4/basis/aug-cc-pvtz.gbs 
    atoms 11-26 entry H          line    40 file /home1/07844/xy3866/miniconda3/envs/p4env/share/psi4/basis/aug-cc-pvtz.gbs 


         ---------------------------------------------------------
                                   SCF
               by Justin Turney, Rob Parrish, Andy Simmonett
                          and Daniel G. A. Smith
                              RHF Reference
                       32 Threads,  30517 MiB Core
         ---------------------------------------------------------

  ==> Geometry <==

    Molecular point group: c1
    Full point group: C1

    Geometry (in Angstrom), charge = 0, multiplicity = 1:

       Center              X                  Y                   Z               Mass       
    ------------   -----------------  -----------------  -----------------  -----------------
         S           -0.246674921084    -0.290215572160     0.122176803850    31.972071174400
         O           -0.275369921084    -1.480298572160    -0.748558196150    15.994914619570
         O           -0.180671921084    -0.439891572160     1.588208803850    15.994914619570
         C            1.118394078916     0.772574427840    -0.372432196150    12.000000000000
         C            2.460239078916     0.304468427840     0.197019803850    12.000000000000
         C           -1.701339921084     0.689142427840    -0.266441196150    12.000000000000
         C           -2.966681921084    -0.106898572160     0.039569803850    12.000000000000
         C            2.904288078916    -1.035074572160    -0.389004196150    12.000000000000
         C            3.508631078916     1.387029427840    -0.061184196150    12.000000000000
         C           -4.219848921084     0.706510427840    -0.272237196150    12.000000000000
         H            1.130795078916     0.793407427840    -1.468075196150     1.007825032230
         H            0.874450078916     1.773559427840     0.002181803850     1.007825032230
         H            2.330815078916     0.192012427840     1.279931803850     1.007825032230
         H           -1.640904921084     0.950863427840    -1.328479196150     1.007825032230
         H           -1.657476821084     1.435654027840     0.225125003850     1.007825032230
         H           -2.953491921084    -1.029487572160    -0.548054196150     1.007825032230
         H           -2.953818921084    -0.395605572160     1.095122803850     1.007825032230
         H            3.010600078916    -0.958665572160    -1.476828196150     1.007825032230
         H            2.191491078916    -1.834057572160    -0.178210196150     1.007825032230
         H            3.875930078916    -1.319279572160     0.026427803850     1.007825032230
         H            3.647865078916     1.543037427840    -1.136486196150     1.007825032230
         H            3.221386078916     2.342355427840     0.389516803850     1.007825032230
         H            4.472900078916     1.090045427840     0.361992803850     1.007825032230
         H           -4.254707921084     1.622589427840     0.324947803850     1.007825032230
         H           -4.254139921084     0.988551427840    -1.328856196150     1.007825032230
         H           -5.119850921084     0.126773427840    -0.050316196150     1.007825032230

  Running in c1 symmetry.

  Rotational constants: A =      0.08772  B =      0.01814  C =      0.01712 [cm^-1]
  Rotational constants: A =   2629.68743  B =    543.78880  C =    513.20506 [MHz]
  Nuclear repulsion =  708.514041496857544

  Charge       = 0
  Multiplicity = 1
  Electrons    = 90
  Nalpha       = 45
  Nbeta        = 45

  ==> Algorithm <==

  SCF Algorithm Type is DF.
  DIIS enabled.
  MOM disabled.
  Fractional occupation disabled.
  Guess Type is SAD.
  Energy threshold   = 1.00e-10
  Density threshold  = 1.00e-10
  Integral threshold = 1.00e-12

  ==> Primary Basis <==

  Basis Set: AUG-CC-PVTZ
    Blend: AUG-CC-PVTZ
    Number of shells: 286
    Number of basis functions: 832
    Number of Cartesian functions: 954
    Spherical Harmonics?: true
    Max angular momentum: 3

   => Loading Basis Set <=

    Name: (AUG-CC-PVTZ AUX)
    Role: JKFIT
    Keyword: DF_BASIS_SCF
    atoms 1     entry S          line   730 file /home1/07844/xy3866/miniconda3/envs/p4env/share/psi4/basis/aug-cc-pvtz-jkfit.gbs 
    atoms 2-3   entry O          line   286 file /home1/07844/xy3866/miniconda3/envs/p4env/share/psi4/basis/aug-cc-pvtz-jkfit.gbs 
    atoms 4-10  entry C          line   162 file /home1/07844/xy3866/miniconda3/envs/p4env/share/psi4/basis/aug-cc-pvtz-jkfit.gbs 
    atoms 11-26 entry H          line    70 file /home1/07844/xy3866/miniconda3/envs/p4env/share/psi4/basis/aug-cc-pvtz-jkfit.gbs 

  ==> Integral Setup <==

  DFHelper Memory: AOs need 8.206 GiB; user supplied 22.352 GiB. Using in-core AOs.

  ==> MemDFJK: Density-Fitted J/K Matrices <==

    J tasked:                   Yes
    K tasked:                   Yes
    wK tasked:                   No
    OpenMP threads:              32
    Memory [MiB]:             22888
    Algorithm:                 Core
    Schwarz Cutoff:           1E-12
    Mask sparsity (%):      15.9908
    Fitting Condition:        1E-10

   => Auxiliary Basis Set <=

  Basis Set: (AUG-CC-PVTZ AUX)
    Blend: AUG-CC-PVTZ-JKFIT
    Number of shells: 536
    Number of basis functions: 1818
    Number of Cartesian functions: 2239
    Spherical Harmonics?: true
    Max angular momentum: 4

  Minimum eigenvalue in the overlap matrix is 2.3525250885E-06.
  Reciprocal condition number of the overlap matrix is 1.0864902500E-07.
    Using symmetric orthogonalization.

  ==> Pre-Iterations <==

  SCF Guess: Superposition of Atomic Densities via on-the-fly atomic UHF (no occupation information).

   -------------------------
    Irrep   Nso     Nmo    
   -------------------------
     A        832     832 
   -------------------------
    Total     832     832
   -------------------------

  ==> Iterations <==

                           Total Energy        Delta E     RMS |[F,P]|

   @DF-RHF iter SAD:  -821.76906608154218   -8.21769e+02   0.00000e+00 
   @DF-RHF iter   1:  -821.25710606414532    5.11960e-01   1.17411e-03 DIIS
   @DF-RHF iter   2:  -821.60742544125264   -3.50319e-01   7.12355e-04 DIIS
   @DF-RHF iter   3:  -821.74241703690018   -1.34992e-01   1.31376e-04 DIIS
   @DF-RHF iter   4:  -821.74913281749684   -6.71578e-03   4.77642e-05 DIIS
   @DF-RHF iter   5:  -821.75016561835537   -1.03280e-03   9.36562e-06 DIIS
   @DF-RHF iter   6:  -821.75020725975151   -4.16414e-05   2.56249e-06 DIIS
   @DF-RHF iter   7:  -821.75021114661911   -3.88687e-06   5.65569e-07 DIIS
   @DF-RHF iter   8:  -821.75021137434328   -2.27724e-07   1.80051e-07 DIIS
   @DF-RHF iter   9:  -821.75021139716296   -2.28197e-08   7.96908e-08 DIIS
   @DF-RHF iter  10:  -821.75021140056867   -3.40572e-09   2.71258e-08 DIIS
   @DF-RHF iter  11:  -821.75021140105684   -4.88171e-10   9.09968e-09 DIIS
   @DF-RHF iter  12:  -821.75021140110550   -4.86580e-11   3.12837e-09 DIIS
   @DF-RHF iter  13:  -821.75021140111380   -8.29914e-12   8.31070e-10 DIIS
   @DF-RHF iter  14:  -821.75021140111369    1.13687e-13   2.94420e-10 DIIS
   @DF-RHF iter  15:  -821.75021140111460   -9.09495e-13   1.10772e-10 DIIS
   @DF-RHF iter  16:  -821.75021140111517   -5.68434e-13   3.85294e-11 DIIS
  Energy and wave function converged.


  ==> Post-Iterations <==

    Orbital Energies [Eh]
    ---------------------

    Doubly Occupied:                                                      

       1A    -92.169551     2A    -20.536003     3A    -20.533721  
       4A    -11.274139     5A    -11.251777     6A    -11.246820  
       7A    -11.240286     8A    -11.229637     9A    -11.226985  
      10A    -11.212992    11A     -9.140121    12A     -6.824495  
      13A     -6.824102    14A     -6.823909    15A     -1.425720  
      16A     -1.316398    17A     -1.118662    18A     -1.104974  
      19A     -1.015266    20A     -0.968567    21A     -0.937901  
      22A     -0.850671    23A     -0.820398    24A     -0.780480  
      25A     -0.696824    26A     -0.682069    27A     -0.667368  
      28A     -0.643034    29A     -0.619170    30A     -0.605574  
      31A     -0.598013    32A     -0.582239    33A     -0.575578  
      34A     -0.553912    35A     -0.539751    36A     -0.528201  
      37A     -0.509950    38A     -0.505602    39A     -0.496272  
      40A     -0.487532    41A     -0.482886    42A     -0.475456  
      43A     -0.470218    44A     -0.456853    45A     -0.418107  

    Virtual:                                                              

      46A      0.022660    47A      0.027999    48A      0.034791  
      49A      0.035982    50A      0.044556    51A      0.045594  
      52A      0.048921    53A      0.056017    54A      0.060462  
      55A      0.064823    56A      0.067955    57A      0.069300  
      58A      0.070648    59A      0.082292    60A      0.090788  
      61A      0.093485    62A      0.102189    63A      0.109666  
      64A      0.112510    65A      0.118684    66A      0.119992  
      67A      0.123759    68A      0.128100    69A      0.131407  
      70A      0.132652    71A      0.137966    72A      0.140812  
      73A      0.143393    74A      0.148942    75A      0.153097  
      76A      0.156182    77A      0.163698    78A      0.163915  
      79A      0.169069    80A      0.172407    81A      0.174260  
      82A      0.175819    83A      0.181188    84A      0.184512  
      85A      0.196478    86A      0.199355    87A      0.206493  
      88A      0.215800    89A      0.218021    90A      0.219463  
      91A      0.229041    92A      0.237879    93A      0.240437  
      94A      0.243858    95A      0.246038    96A      0.250955  
      97A      0.254139    98A      0.256550    99A      0.261360  
     100A      0.263248   101A      0.267397   102A      0.268967  
     103A      0.276831   104A      0.281186   105A      0.286663  
     106A      0.288753   107A      0.294417   108A      0.296746  
     109A      0.303529   110A      0.309704   111A      0.310380  
     112A      0.314520   113A      0.316824   114A      0.324443  
     115A      0.327867   116A      0.336712   117A      0.340666  
     118A      0.344357   119A      0.349173   120A      0.352602  
     121A      0.356033   122A      0.358343   123A      0.363303  
     124A      0.366027   125A      0.370261   126A      0.372241  
     127A      0.376963   128A      0.380673   129A      0.382332  
     130A      0.384975   131A      0.390408   132A      0.395740  
     133A      0.397956   134A      0.401331   135A      0.405054  
     136A      0.405998   137A      0.410530   138A      0.414607  
     139A      0.417819   140A      0.423002   141A      0.427196  
     142A      0.431384   143A      0.433339   144A      0.437633  
     145A      0.442134   146A      0.445051   147A      0.449378  
     148A      0.451467   149A      0.456948   150A      0.458412  
     151A      0.461658   152A      0.462940   153A      0.465469  
     154A      0.466797   155A      0.470951   156A      0.479492  
     157A      0.482205   158A      0.483961   159A      0.486513  
     160A      0.496777   161A      0.501531   162A      0.503529  
     163A      0.507905   164A      0.509949   165A      0.510240  
     166A      0.519796   167A      0.521688   168A      0.527117  
     169A      0.529071   170A      0.532798   171A      0.536894  
     172A      0.542947   173A      0.546071   174A      0.549889  
     175A      0.551184   176A      0.553748   177A      0.558737  
     178A      0.563245   179A      0.571306   180A      0.578237  
     181A      0.580949   182A      0.585563   183A      0.590826  
     184A      0.594965   185A      0.601067   186A      0.607990  
     187A      0.608575   188A      0.611164   189A      0.616776  
     190A      0.620356   191A      0.625090   192A      0.633655  
     193A      0.636455   194A      0.640529   195A      0.642818  
     196A      0.649455   197A      0.655756   198A      0.666489  
     199A      0.672278   200A      0.681500   201A      0.683502  
     202A      0.687570   203A      0.692835   204A      0.703790  
     205A      0.706431   206A      0.712182   207A      0.722704  
     208A      0.736334   209A      0.743206   210A      0.748724  
     211A      0.751691   212A      0.757868   213A      0.763407  
     214A      0.775331   215A      0.782285   216A      0.786750  
     217A      0.793452   218A      0.800126   219A      0.804869  
     220A      0.812177   221A      0.822518   222A      0.826201  
     223A      0.832968   224A      0.835384   225A      0.838577  
     226A      0.843195   227A      0.845927   228A      0.852601  
     229A      0.861841   230A      0.862162   231A      0.868939  
     232A      0.876250   233A      0.879762   234A      0.885705  
     235A      0.888554   236A      0.892104   237A      0.898568  
     238A      0.903553   239A      0.912373   240A      0.912621  
     241A      0.918356   242A      0.924530   243A      0.931107  
     244A      0.932701   245A      0.934530   246A      0.940416  
     247A      0.950074   248A      0.950719   249A      0.956387  
     250A      0.957653   251A      0.961570   252A      0.965054  
     253A      0.971126   254A      0.975408   255A      0.978729  
     256A      0.984591   257A      0.988091   258A      0.992437  
     259A      0.996905   260A      1.005371   261A      1.009697  
     262A      1.015851   263A      1.016309   264A      1.019353  
     265A      1.032342   266A      1.033215   267A      1.036512  
     268A      1.040980   269A      1.045751   270A      1.052405  
     271A      1.058053   272A      1.061419   273A      1.064808  
     274A      1.072642   275A      1.075108   276A      1.082853  
     277A      1.083521   278A      1.089462   279A      1.099649  
     280A      1.100541   281A      1.110156   282A      1.113971  
     283A      1.116285   284A      1.120705   285A      1.127064  
     286A      1.133145   287A      1.139771   288A      1.147261  
     289A      1.148753   290A      1.153620   291A      1.160042  
     292A      1.165086   293A      1.168810   294A      1.171368  
     295A      1.178388   296A      1.180251   297A      1.186741  
     298A      1.192302   299A      1.197679   300A      1.206726  
     301A      1.211645   302A      1.218811   303A      1.219754  
     304A      1.223194   305A      1.229938   306A      1.233004  
     307A      1.234831   308A      1.245934   309A      1.248499  
     310A      1.254980   311A      1.258178   312A      1.261097  
     313A      1.275049   314A      1.283895   315A      1.286915  
     316A      1.290558   317A      1.298411   318A      1.307339  
     319A      1.308240   320A      1.314626   321A      1.320772  
     322A      1.324428   323A      1.332317   324A      1.335623  
     325A      1.344501   326A      1.353056   327A      1.355902  
     328A      1.360095   329A      1.364110   330A      1.373253  
     331A      1.375948   332A      1.390400   333A      1.398219  
     334A      1.403765   335A      1.405158   336A      1.411300  
     337A      1.425495   338A      1.430255   339A      1.439605  
     340A      1.441741   341A      1.445800   342A      1.461025  
     343A      1.464046   344A      1.467851   345A      1.474813  
     346A      1.480720   347A      1.493099   348A      1.499052  
     349A      1.503848   350A      1.506444   351A      1.517362  
     352A      1.523851   353A      1.529881   354A      1.537788  
     355A      1.542810   356A      1.547775   357A      1.550624  
     358A      1.559053   359A      1.572660   360A      1.574588  
     361A      1.580714   362A      1.588116   363A      1.596338  
     364A      1.601432   365A      1.604684   366A      1.618571  
     367A      1.622220   368A      1.635503   369A      1.638289  
     370A      1.649532   371A      1.656655   372A      1.665909  
     373A      1.669128   374A      1.671179   375A      1.679106  
     376A      1.685765   377A      1.691756   378A      1.695356  
     379A      1.703674   380A      1.706967   381A      1.708041  
     382A      1.716330   383A      1.718679   384A      1.721366  
     385A      1.725520   386A      1.732404   387A      1.734363  
     388A      1.741173   389A      1.746670   390A      1.748044  
     391A      1.751031   392A      1.756598   393A      1.765912  
     394A      1.767042   395A      1.777069   396A      1.781905  
     397A      1.783116   398A      1.791825   399A      1.795233  
     400A      1.813654   401A      1.818734   402A      1.826286  
     403A      1.832128   404A      1.835685   405A      1.847758  
     406A      1.863744   407A      1.865672   408A      1.868055  
     409A      1.875825   410A      1.880087   411A      1.882910  
     412A      1.901432   413A      1.909260   414A      1.912780  
     415A      1.915969   416A      1.919292   417A      1.924896  
     418A      1.931524   419A      1.938863   420A      1.955882  
     421A      1.959165   422A      1.960928   423A      1.969569  
     424A      1.973826   425A      1.981451   426A      1.987242  
     427A      1.997215   428A      1.997495   429A      2.005504  
     430A      2.014978   431A      2.016928   432A      2.024021  
     433A      2.034607   434A      2.042069   435A      2.047365  
     436A      2.059571   437A      2.069146   438A      2.069660  
     439A      2.082196   440A      2.087737   441A      2.091377  
     442A      2.111264   443A      2.114992   444A      2.126590  
     445A      2.133801   446A      2.139142   447A      2.145860  
     448A      2.156664   449A      2.181894   450A      2.188216  
     451A      2.195284   452A      2.206887   453A      2.208228  
     454A      2.219811   455A      2.226430   456A      2.232150  
     457A      2.249666   458A      2.255272   459A      2.256830  
     460A      2.265731   461A      2.268670   462A      2.275038  
     463A      2.287499   464A      2.292244   465A      2.301911  
     466A      2.312469   467A      2.315504   468A      2.326846  
     469A      2.341336   470A      2.347531   471A      2.362182  
     472A      2.376214   473A      2.378568   474A      2.389369  
     475A      2.397772   476A      2.403619   477A      2.414189  
     478A      2.422241   479A      2.439541   480A      2.449826  
     481A      2.453480   482A      2.462774   483A      2.471712  
     484A      2.480230   485A      2.487079   486A      2.506798  
     487A      2.515960   488A      2.523654   489A      2.530869  
     490A      2.536507   491A      2.550424   492A      2.555250  
     493A      2.563832   494A      2.567897   495A      2.585475  
     496A      2.602083   497A      2.604748   498A      2.619204  
     499A      2.638066   500A      2.647310   501A      2.653833  
     502A      2.664242   503A      2.672261   504A      2.690632  
     505A      2.717864   506A      2.730581   507A      2.752310  
     508A      2.771890   509A      2.800446   510A      2.808712  
     511A      2.814546   512A      2.820491   513A      2.838320  
     514A      2.855398   515A      2.874423   516A      2.877750  
     517A      2.907309   518A      2.913628   519A      2.925987  
     520A      2.944315   521A      2.959086   522A      2.980206  
     523A      2.999112   524A      3.005761   525A      3.043629  
     526A      3.070728   527A      3.085847   528A      3.087237  
     529A      3.115432   530A      3.143810   531A      3.150299  
     532A      3.169565   533A      3.185950   534A      3.217949  
     535A      3.260446   536A      3.311061   537A      3.325061  
     538A      3.370881   539A      3.381164   540A      3.394886  
     541A      3.409781   542A      3.435416   543A      3.440897  
     544A      3.450106   545A      3.460436   546A      3.478071  
     547A      3.488633   548A      3.493846   549A      3.507292  
     550A      3.519933   551A      3.532496   552A      3.540898  
     553A      3.550464   554A      3.569717   555A      3.578770  
     556A      3.589414   557A      3.601347   558A      3.615920  
     559A      3.620938   560A      3.642422   561A      3.654032  
     562A      3.661446   563A      3.673073   564A      3.685201  
     565A      3.692838   566A      3.696912   567A      3.713501  
     568A      3.717013   569A      3.728134   570A      3.736640  
     571A      3.739995   572A      3.749317   573A      3.752668  
     574A      3.759336   575A      3.772167   576A      3.775855  
     577A      3.785939   578A      3.795820   579A      3.805152  
     580A      3.811757   581A      3.818004   582A      3.825877  
     583A      3.837126   584A      3.844940   585A      3.849672  
     586A      3.859827   587A      3.873722   588A      3.875670  
     589A      3.879578   590A      3.890427   591A      3.900951  
     592A      3.905738   593A      3.930669   594A      3.940605  
     595A      3.941568   596A      3.956606   597A      3.960386  
     598A      3.966506   599A      3.970071   600A      3.976162  
     601A      3.977905   602A      3.985600   603A      3.995409  
     604A      4.005311   605A      4.007342   606A      4.017272  
     607A      4.027449   608A      4.036797   609A      4.041994  
     610A      4.049600   611A      4.058411   612A      4.060784  
     613A      4.069543   614A      4.073099   615A      4.099302  
     616A      4.108185   617A      4.117534   618A      4.119770  
     619A      4.132050   620A      4.146114   621A      4.162490  
     622A      4.180922   623A      4.198535   624A      4.203585  
     625A      4.206251   626A      4.214322   627A      4.224481  
     628A      4.233036   629A      4.241244   630A      4.256295  
     631A      4.272104   632A      4.281771   633A      4.284589  
     634A      4.289124   635A      4.300843   636A      4.305631  
     637A      4.315624   638A      4.327497   639A      4.344112  
     640A      4.357542   641A      4.365738   642A      4.367791  
     643A      4.385500   644A      4.393427   645A      4.426192  
     646A      4.427068   647A      4.440883   648A      4.454634  
     649A      4.456680   650A      4.475870   651A      4.494941  
     652A      4.504964   653A      4.523046   654A      4.531366  
     655A      4.539387   656A      4.554137   657A      4.572729  
     658A      4.582922   659A      4.593807   660A      4.613972  
     661A      4.648649   662A      4.657814   663A      4.663857  
     664A      4.683522   665A      4.687113   666A      4.698660  
     667A      4.714244   668A      4.715338   669A      4.727339  
     670A      4.730919   671A      4.746112   672A      4.753833  
     673A      4.759222   674A      4.777274   675A      4.786365  
     676A      4.794109   677A      4.810142   678A      4.823884  
     679A      4.845297   680A      4.849296   681A      4.857856  
     682A      4.883015   683A      4.893804   684A      4.893932  
     685A      4.901262   686A      4.920212   687A      4.923322  
     688A      4.933031   689A      4.950896   690A      4.964469  
     691A      4.969088   692A      4.979775   693A      5.004391  
     694A      5.013672   695A      5.043418   696A      5.051404  
     697A      5.055335   698A      5.081197   699A      5.094163  
     700A      5.099804   701A      5.116520   702A      5.121659  
     703A      5.138142   704A      5.142947   705A      5.163948  
     706A      5.172680   707A      5.182451   708A      5.187419  
     709A      5.193364   710A      5.218425   711A      5.229677  
     712A      5.234705   713A      5.241851   714A      5.252857  
     715A      5.267280   716A      5.273832   717A      5.297657  
     718A      5.306908   719A      5.313305   720A      5.319515  
     721A      5.335119   722A      5.340148   723A      5.365906  
     724A      5.371860   725A      5.377409   726A      5.383946  
     727A      5.392570   728A      5.408037   729A      5.409860  
     730A      5.429216   731A      5.438239   732A      5.453765  
     733A      5.464710   734A      5.472991   735A      5.479076  
     736A      5.490719   737A      5.504897   738A      5.528799  
     739A      5.541918   740A      5.567984   741A      5.582616  
     742A      5.603993   743A      5.613389   744A      5.624344  
     745A      5.636122   746A      5.653584   747A      5.654470  
     748A      5.670544   749A      5.674575   750A      5.702238  
     751A      5.706007   752A      5.740922   753A      5.747027  
     754A      5.778119   755A      5.788665   756A      5.812630  
     757A      5.818318   758A      5.826048   759A      5.857322  
     760A      5.882121   761A      5.905714   762A      5.936147  
     763A      5.939366   764A      5.970450   765A      5.990262  
     766A      6.003823   767A      6.032774   768A      6.041632  
     769A      6.063154   770A      6.095617   771A      6.117149  
     772A      6.168183   773A      6.182312   774A      6.195342  
     775A      6.225636   776A      6.232068   777A      6.270229  
     778A      6.271007   779A      6.286571   780A      6.326858  
     781A      6.337953   782A      6.358915   783A      6.373995  
     784A      6.410532   785A      6.487112   786A      6.558351  
     787A      6.607590   788A      6.747263   789A      6.749594  
     790A      6.790573   791A      6.820667   792A      6.823713  
     793A      6.841862   794A      6.847791   795A      6.859554  
     796A      6.870418   797A      6.878404   798A      6.907611  
     799A      6.919850   800A      6.956188   801A      6.965210  
     802A      6.973096   803A      6.993795   804A      7.023047  
     805A      7.052186   806A      7.054827   807A      7.075745  
     808A      7.091820   809A      7.126577   810A      7.136415  
     811A      7.168906   812A      7.254535   813A      7.397791  
     814A      7.447623   815A      7.465984   816A      7.498388  
     817A      7.681309   818A      7.757135   819A      7.776554  
     820A      7.806553   821A      7.867915   822A      7.893313  
     823A     13.207021   824A     13.942623   825A     14.375920  
     826A     17.886298   827A     17.961113   828A     18.234759  
     829A     18.379811   830A     18.506356   831A     19.494414  
     832A     20.304720  

    Final Occupation by Irrep:
              A 
    DOCC [    45 ]

  @DF-RHF Final Energy:  -821.75021140111517

   => Energetics <=

    Nuclear Repulsion Energy =            708.5140414968575442
    One-Electron Energy =               -2533.5921361712839825
    Two-Electron Energy =                1003.3278832733112722
    Total Energy =                       -821.7502114011151662

Computation Completed

*** tstop() called on c401-011.stampede2.tacc.utexas.edu at Sun Feb 28 11:18:28 2021
Module time:
	user time   =    1113.10 seconds =      18.55 minutes
	system time =      63.05 seconds =       1.05 minutes
	total time  =         60 seconds =       1.00 minutes
Total time:
	user time   =    1113.10 seconds =      18.55 minutes
	system time =      63.05 seconds =       1.05 minutes
	total time  =         60 seconds =       1.00 minutes
   => Loading Basis Set <=

    Name: (AUG-CC-PVTZ AUX)
    Role: RIFIT
    Keyword: DF_BASIS_MP2
    atoms 1     entry S          line   666 file /home1/07844/xy3866/miniconda3/envs/p4env/share/psi4/basis/aug-cc-pvtz-ri.gbs 
    atoms 2-3   entry O          line   264 file /home1/07844/xy3866/miniconda3/envs/p4env/share/psi4/basis/aug-cc-pvtz-ri.gbs 
    atoms 4-10  entry C          line   148 file /home1/07844/xy3866/miniconda3/envs/p4env/share/psi4/basis/aug-cc-pvtz-ri.gbs 
    atoms 11-26 entry H          line    30 file /home1/07844/xy3866/miniconda3/envs/p4env/share/psi4/basis/aug-cc-pvtz-ri.gbs 


*** tstart() called on c401-011.stampede2.tacc.utexas.edu
*** at Sun Feb 28 11:18:29 2021


  //>>>>>>>>>>>>>>>>>>>>>>>>>>>>>>>>>>>//
  //               DFMP2               //
  //<<<<<<<<<<<<<<<<<<<<<<<<<<<<<<<<<<<//

	 --------------------------------------------------------
	                          DF-MP2                         
	      2nd-Order Density-Fitted Moller-Plesset Theory     
	              RMP2 Wavefunction,  32 Threads             
	                                                         
	        Rob Parrish, Justin Turney, Andy Simmonett,      
	           Ed Hohenstein, and C. David Sherrill          
	 --------------------------------------------------------

   => Auxiliary Basis Set <=

  Basis Set: (AUG-CC-PVTZ AUX)
    Blend: AUG-CC-PVTZ-RI
    Number of shells: 513
    Number of basis functions: 1837
    Number of Cartesian functions: 2295
    Spherical Harmonics?: true
    Max angular momentum: 4

	 --------------------------------------------------------
	                 NBF =   832, NAUX =  1837
	 --------------------------------------------------------
	   CLASS    FOCC     OCC    AOCC    AVIR     VIR    FVIR
	   PAIRS       0      45      45     787     787       0
	 --------------------------------------------------------

  DFHelper Memory: AOs need 8.658 GiB; user supplied 22.352 GiB. Using in-core AOs.


         ------------------------------------------------------------
                                     CPHF                           
                                  Rob Parrish                       
         ------------------------------------------------------------

  ==> Geometry <==

    Molecular point group: c1
    Full point group: C1

    Geometry (in Angstrom), charge = 0, multiplicity = 1:

       Center              X                  Y                   Z               Mass       
    ------------   -----------------  -----------------  -----------------  -----------------
         S           -0.246674921084    -0.290215572160     0.122176803850    31.972071174400
         O           -0.275369921084    -1.480298572160    -0.748558196150    15.994914619570
         O           -0.180671921084    -0.439891572160     1.588208803850    15.994914619570
         C            1.118394078916     0.772574427840    -0.372432196150    12.000000000000
         C            2.460239078916     0.304468427840     0.197019803850    12.000000000000
         C           -1.701339921084     0.689142427840    -0.266441196150    12.000000000000
         C           -2.966681921084    -0.106898572160     0.039569803850    12.000000000000
         C            2.904288078916    -1.035074572160    -0.389004196150    12.000000000000
         C            3.508631078916     1.387029427840    -0.061184196150    12.000000000000
         C           -4.219848921084     0.706510427840    -0.272237196150    12.000000000000
         H            1.130795078916     0.793407427840    -1.468075196150     1.007825032230
         H            0.874450078916     1.773559427840     0.002181803850     1.007825032230
         H            2.330815078916     0.192012427840     1.279931803850     1.007825032230
         H           -1.640904921084     0.950863427840    -1.328479196150     1.007825032230
         H           -1.657476821084     1.435654027840     0.225125003850     1.007825032230
         H           -2.953491921084    -1.029487572160    -0.548054196150     1.007825032230
         H           -2.953818921084    -0.395605572160     1.095122803850     1.007825032230
         H            3.010600078916    -0.958665572160    -1.476828196150     1.007825032230
         H            2.191491078916    -1.834057572160    -0.178210196150     1.007825032230
         H            3.875930078916    -1.319279572160     0.026427803850     1.007825032230
         H            3.647865078916     1.543037427840    -1.136486196150     1.007825032230
         H            3.221386078916     2.342355427840     0.389516803850     1.007825032230
         H            4.472900078916     1.090045427840     0.361992803850     1.007825032230
         H           -4.254707921084     1.622589427840     0.324947803850     1.007825032230
         H           -4.254139921084     0.988551427840    -1.328856196150     1.007825032230
         H           -5.119850921084     0.126773427840    -0.050316196150     1.007825032230

  Nuclear repulsion =  708.514041496857658
  Reference energy  = -821.750211401115166

  ==> Basis Set <==

  Basis Set: AUG-CC-PVTZ
    Blend: AUG-CC-PVTZ
    Number of shells: 286
    Number of basis functions: 832
    Number of Cartesian functions: 954
    Spherical Harmonics?: true
    Max angular momentum: 3

  ==> CGRSolver (by Rob Parrish) <==

   Number of roots    =         1
   Preconditioning    =    JACOBI
   Convergence cutoff =     1E-06
   Maximum iterations =       100

  ==> CPHFRHamiltonian (by Rob Parrish) <== 

  ==> MemDFJK: Density-Fitted J/K Matrices <==

    J tasked:                   Yes
    K tasked:                   Yes
    wK tasked:                   No
    OpenMP threads:              32
    Memory [MiB]:             22888
    Algorithm:                 Core
    Schwarz Cutoff:           1E-12
    Mask sparsity (%):      11.1736
    Fitting Condition:        1E-10

   => Auxiliary Basis Set <=

  Basis Set: (AUG-CC-PVTZ AUX)
    Blend: AUG-CC-PVTZ-JKFIT
    Number of shells: 536
    Number of basis functions: 1818
    Number of Cartesian functions: 2239
    Spherical Harmonics?: true
    Max angular momentum: 4

  ==> CPHF Iterations <==

  => Iterations <=

             Iter  Converged  Remaining    Residual
  CGR           1          0          1   1.129E-01
  CGR           2          0          1   2.899E-02
  CGR           3          0          1   1.164E-02
  CGR           4          0          1   3.390E-03
  CGR           5          0          1   1.095E-03
  CGR           6          0          1   3.321E-04
  CGR           7          0          1   8.939E-05
  CGR           8          0          1   3.507E-05
  CGR           9          0          1   1.192E-05
  CGR          10          0          1   3.892E-06
  CGR          11          0          1   1.197E-06
  CGR          12          1          0   3.289E-07

    CGRSolver converged.

	-----------------------------------------------------------
	 ==================> DF-MP2 Energies <==================== 
	-----------------------------------------------------------
	 Reference Energy          =    -821.7502114011151662 [Eh]
	 Singles Energy            =      -0.0000000000000000 [Eh]
	 Same-Spin Energy          =      -0.5008478446521544 [Eh]
	 Opposite-Spin Energy      =      -1.6481199404354197 [Eh]
	 Correlation Energy        =      -2.1489677850875739 [Eh]
	 Total Energy              =    -823.8991791862027867 [Eh]
	-----------------------------------------------------------
	 ================> DF-SCS-MP2 Energies <================== 
	-----------------------------------------------------------
	 SCS Same-Spin Scale       =       0.3333333333333333 [-]
	 SCS Opposite-Spin Scale   =       1.2000000000000000 [-]
	 SCS Same-Spin Energy      =      -0.1669492815507181 [Eh]
	 SCS Opposite-Spin Energy  =      -1.9777439285225036 [Eh]
	 SCS Correlation Energy    =      -2.1446932100732217 [Eh]
	 SCS Total Energy          =    -823.8949046111883945 [Eh]
	-----------------------------------------------------------



Properties will be evaluated at  -0.000000,   0.000000,  -0.000000 [a0]

Properties computed using the MP2 density matrix

  Nuclear Dipole Moment: [e a0]
     X:     1.7930      Y:     6.8470      Z:    -3.5646

  Electronic Dipole Moment: [e a0]
     X:    -1.8624      Y:    -5.3395      Z:     2.9451

  Dipole Moment: [e a0]
     X:    -0.0695      Y:     1.5076      Z:    -0.6194     Total:     1.6313

  Dipole Moment: [D]
     X:    -0.1766      Y:     3.8318      Z:    -1.5744     Total:     4.1464


*** tstop() called on c401-011.stampede2.tacc.utexas.edu at Sun Feb 28 11:25:08 2021
Module time:
	user time   =    3801.09 seconds =      63.35 minutes
	system time =      95.58 seconds =       1.59 minutes
	total time  =        399 seconds =       6.65 minutes
Total time:
	user time   =    4915.49 seconds =      81.92 minutes
	system time =     158.64 seconds =       2.64 minutes
	total time  =        460 seconds =       7.67 minutes

    Psi4 stopped on: Sunday, 28 February 2021 11:25AM
    Psi4 wall time for execution: 0:07:42.03

*** Psi4 exiting successfully. Buy a developer a beer!
