
    -----------------------------------------------------------------------
          Psi4: An Open-Source Ab Initio Electronic Structure Package
                               Psi4 1.4a3.dev225 

                         Git: Rev {master} 7105e37 


    D. G. A. Smith, L. A. Burns, A. C. Simmonett, R. M. Parrish,
    M. C. Schieber, R. Galvelis, P. Kraus, H. Kruse, R. Di Remigio,
    A. Alenaizan, A. M. James, S. Lehtola, J. P. Misiewicz, M. Scheurer,
    R. A. Shaw, J. B. Schriber, Y. Xie, Z. L. Glick, D. A. Sirianni,
    J. S. O'Brien, J. M. Waldrop, A. Kumar, E. G. Hohenstein,
    B. P. Pritchard, B. R. Brooks, H. F. Schaefer III, A. Yu. Sokolov,
    K. Patkowski, A. E. DePrince III, U. Bozkaya, R. A. King,
    F. A. Evangelista, J. M. Turney, T. D. Crawford, C. D. Sherrill,
    J. Chem. Phys. 152(18) 184108 (2020). https://doi.org/10.1063/5.0006002

                            Additional Code Authors
    E. T. Seidl, C. L. Janssen, E. F. Valeev, M. L. Leininger,
    J. F. Gonthier, R. M. Richard, H. R. McAlexander, M. Saitow, X. Wang,
    P. Verma, and M. H. Lechner

             Previous Authors, Complete List of Code Contributors,
                       and Citations for Specific Modules
    https://github.com/psi4/psi4/blob/master/codemeta.json
    https://github.com/psi4/psi4/graphs/contributors
    http://psicode.org/psi4manual/master/introduction.html#citing-psifour

    -----------------------------------------------------------------------


    Psi4 started on: Thursday, 01 April 2021 09:08PM

    Process ID: 142711
    Host:       c451-101.stampede2.tacc.utexas.edu
    PSIDATADIR: /home1/07844/xy3866/miniconda3/envs/p4env/share/psi4
    Memory:     500.0 MiB
    Threads:    8
    
  ==> Input File <==

--------------------------------------------------------------------------
#psi4
#
memory 32 gb

molecule  {
0 1
  S       -0.2573260    -0.3323280     0.1419150
  O       -0.2860210    -1.5224110    -0.7288200
  O       -0.1913230    -0.4820040     1.6079470
  C        1.1077430     0.7304620    -0.3526940
  C        2.4495880     0.2623560     0.2167580
  C       -1.7119910     0.6470300    -0.2467030
  C       -2.9773330    -0.1490110     0.0593080
  C        2.8936370    -1.0771870    -0.3692660
  C        3.4979800     1.3449170    -0.0414460
  C       -4.2305000     0.6643980    -0.2524990
  H        1.1201440     0.7512950    -1.4483370
  H        0.8637990     1.7314470     0.0219200
  H        2.3201640     0.1499000     1.2996700
  H       -1.6515560     0.9087510    -1.3087410
  H       -1.6583250     1.5603790     0.3547230
  H       -2.9641430    -1.0716000    -0.5283160
  H       -2.9644700    -0.4377180     1.1148610
  H        2.9999490    -1.0007780    -1.4570900
  H        2.1808400    -1.8761700    -0.1584720
  H        3.8652790    -1.3613920     0.0461660
  H        3.6372140     1.5009250    -1.1167480
  H        3.1976148     2.3438786     0.4298413
  H        4.4622490     1.0479330     0.3817310
  H       -4.2653590     1.5804770     0.3446860
  H       -4.2647910     0.9464390    -1.3091180
  H       -5.1305020     0.0846610    -0.0305780
units angstrom
no_reorient  #important for SAPT in psi4, default
symmetry c1  #important for SAPT in psi4, default
}

set PROPERTIES_ORIGIN ["COM"]
properties('MP2/aug-cc-pvtz', properties = ['dipole'])
--------------------------------------------------------------------------

  Memory set to  29.802 GiB by Python driver.
    SCF Algorithm Type (re)set to DF.

*** tstart() called on c451-101.stampede2.tacc.utexas.edu
*** at Thu Apr  1 21:08:24 2021

   => Loading Basis Set <=

    Name: AUG-CC-PVTZ
    Role: ORBITAL
    Keyword: BASIS
    atoms 1     entry S          line   906 file /home1/07844/xy3866/miniconda3/envs/p4env/share/psi4/basis/aug-cc-pvtz.gbs 
    atoms 2-3   entry O          line   331 file /home1/07844/xy3866/miniconda3/envs/p4env/share/psi4/basis/aug-cc-pvtz.gbs 
    atoms 4-10  entry C          line   239 file /home1/07844/xy3866/miniconda3/envs/p4env/share/psi4/basis/aug-cc-pvtz.gbs 
    atoms 11-26 entry H          line    40 file /home1/07844/xy3866/miniconda3/envs/p4env/share/psi4/basis/aug-cc-pvtz.gbs 


         ---------------------------------------------------------
                                   SCF
               by Justin Turney, Rob Parrish, Andy Simmonett
                          and Daniel G. A. Smith
                              RHF Reference
                        8 Threads,  30517 MiB Core
         ---------------------------------------------------------

  ==> Geometry <==

    Molecular point group: c1
    Full point group: C1

    Geometry (in Angstrom), charge = 0, multiplicity = 1:

       Center              X                  Y                   Z               Mass       
    ------------   -----------------  -----------------  -----------------  -----------------
         S           -0.246654546185    -0.291508299966     0.121375602268    31.972071174400
         O           -0.275349546185    -1.481591299966    -0.749359397732    15.994914619570
         O           -0.180651546185    -0.441184299966     1.587407602268    15.994914619570
         C            1.118414453815     0.771281700034    -0.373233397732    12.000000000000
         C            2.460259453815     0.303175700034     0.196218602268    12.000000000000
         C           -1.701319546185     0.687849700034    -0.267242397732    12.000000000000
         C           -2.966661546185    -0.108191299966     0.038768602268    12.000000000000
         C            2.904308453815    -1.036367299966    -0.389805397732    12.000000000000
         C            3.508651453815     1.385736700034    -0.061985397732    12.000000000000
         C           -4.219828546185     0.705217700034    -0.273038397732    12.000000000000
         H            1.130815453815     0.792114700034    -1.468876397732     1.007825032230
         H            0.874470453815     1.772266700034     0.001380602268     1.007825032230
         H            2.330835453815     0.190719700034     1.279130602268     1.007825032230
         H           -1.640884546185     0.949570700034    -1.329280397732     1.007825032230
         H           -1.647653546185     1.601198700034     0.334183602268     1.007825032230
         H           -2.953471546185    -1.030780299966    -0.548855397732     1.007825032230
         H           -2.953798546185    -0.396898299966     1.094321602268     1.007825032230
         H            3.010620453815    -0.959958299966    -1.477629397732     1.007825032230
         H            2.191511453815    -1.835350299966    -0.179011397732     1.007825032230
         H            3.875950453815    -1.320572299966     0.025626602268     1.007825032230
         H            3.647885453815     1.541744700034    -1.137287397732     1.007825032230
         H            3.208286253815     2.384698300034     0.409301902268     1.007825032230
         H            4.472920453815     1.088752700034     0.361191602268     1.007825032230
         H           -4.254687546185     1.621296700034     0.324146602268     1.007825032230
         H           -4.254119546185     0.987258700034    -1.329657397732     1.007825032230
         H           -5.119830546185     0.125480700034    -0.051117397732     1.007825032230

  Running in c1 symmetry.

  Rotational constants: A =      0.08735  B =      0.01814  C =      0.01711 [cm^-1]
  Rotational constants: A =   2618.80882  B =    543.81717  C =    512.88797 [MHz]
  Nuclear repulsion =  707.107047640044357

  Charge       = 0
  Multiplicity = 1
  Electrons    = 90
  Nalpha       = 45
  Nbeta        = 45

  ==> Algorithm <==

  SCF Algorithm Type is DF.
  DIIS enabled.
  MOM disabled.
  Fractional occupation disabled.
  Guess Type is SAD.
  Energy threshold   = 1.00e-10
  Density threshold  = 1.00e-10
  Integral threshold = 1.00e-12

  ==> Primary Basis <==

  Basis Set: AUG-CC-PVTZ
    Blend: AUG-CC-PVTZ
    Number of shells: 286
    Number of basis functions: 832
    Number of Cartesian functions: 954
    Spherical Harmonics?: true
    Max angular momentum: 3

   => Loading Basis Set <=

    Name: (AUG-CC-PVTZ AUX)
    Role: JKFIT
    Keyword: DF_BASIS_SCF
    atoms 1     entry S          line   730 file /home1/07844/xy3866/miniconda3/envs/p4env/share/psi4/basis/aug-cc-pvtz-jkfit.gbs 
    atoms 2-3   entry O          line   286 file /home1/07844/xy3866/miniconda3/envs/p4env/share/psi4/basis/aug-cc-pvtz-jkfit.gbs 
    atoms 4-10  entry C          line   162 file /home1/07844/xy3866/miniconda3/envs/p4env/share/psi4/basis/aug-cc-pvtz-jkfit.gbs 
    atoms 11-26 entry H          line    70 file /home1/07844/xy3866/miniconda3/envs/p4env/share/psi4/basis/aug-cc-pvtz-jkfit.gbs 

  ==> Integral Setup <==

  DFHelper Memory: AOs need 8.077 GiB; user supplied 22.352 GiB. Using in-core AOs.

  ==> MemDFJK: Density-Fitted J/K Matrices <==

    J tasked:                   Yes
    K tasked:                   Yes
    wK tasked:                   No
    OpenMP threads:               8
    Memory [MiB]:             22888
    Algorithm:                 Core
    Schwarz Cutoff:           1E-12
    Mask sparsity (%):      16.0399
    Fitting Condition:        1E-10

   => Auxiliary Basis Set <=

  Basis Set: (AUG-CC-PVTZ AUX)
    Blend: AUG-CC-PVTZ-JKFIT
    Number of shells: 536
    Number of basis functions: 1818
    Number of Cartesian functions: 2239
    Spherical Harmonics?: true
    Max angular momentum: 4

  Minimum eigenvalue in the overlap matrix is 2.3875918685E-06.
  Reciprocal condition number of the overlap matrix is 1.1062328212E-07.
    Using symmetric orthogonalization.

  ==> Pre-Iterations <==

  SCF Guess: Superposition of Atomic Densities via on-the-fly atomic UHF (no occupation information).

   -------------------------
    Irrep   Nso     Nmo    
   -------------------------
     A        832     832 
   -------------------------
    Total     832     832
   -------------------------

  ==> Iterations <==

                           Total Energy        Delta E     RMS |[F,P]|

   @DF-RHF iter SAD:  -821.67678778315133   -8.21677e+02   0.00000e+00 
   @DF-RHF iter   1:  -821.29143535162882    3.85352e-01   1.16645e-03 DIIS
   @DF-RHF iter   2:  -821.63645720193892   -3.45022e-01   7.17402e-04 DIIS
   @DF-RHF iter   3:  -821.77367706857126   -1.37220e-01   1.30506e-04 DIIS
   @DF-RHF iter   4:  -821.78037776718986   -6.70070e-03   4.76687e-05 DIIS
   @DF-RHF iter   5:  -821.78140996994455   -1.03220e-03   9.17796e-06 DIIS
   @DF-RHF iter   6:  -821.78145010998355   -4.01400e-05   2.49293e-06 DIIS
   @DF-RHF iter   7:  -821.78145373773759   -3.62775e-06   5.48122e-07 DIIS
   @DF-RHF iter   8:  -821.78145394503304   -2.07295e-07   1.58799e-07 DIIS
   @DF-RHF iter   9:  -821.78145396517209   -2.01391e-08   5.93827e-08 DIIS
   @DF-RHF iter  10:  -821.78145396750745   -2.33536e-09   2.13811e-08 DIIS
   @DF-RHF iter  11:  -821.78145396782509   -3.17641e-10   7.87931e-09 DIIS
   @DF-RHF iter  12:  -821.78145396785646   -3.13776e-11   3.16297e-09 DIIS
   @DF-RHF iter  13:  -821.78145396786306   -6.59384e-12   7.70525e-10 DIIS
   @DF-RHF iter  14:  -821.78145396786385   -7.95808e-13   2.58874e-10 DIIS
   @DF-RHF iter  15:  -821.78145396786181    2.04636e-12   9.72720e-11 DIIS
  Energy and wave function converged.


  ==> Post-Iterations <==

    Orbital Energies [Eh]
    ---------------------

    Doubly Occupied:                                                      

       1A    -92.170189     2A    -20.535566     3A    -20.534811  
       4A    -11.274807     5A    -11.273732     6A    -11.247179  
       7A    -11.241446     8A    -11.232988     9A    -11.229658  
      10A    -11.213489    11A     -9.140671    12A     -6.825059  
      13A     -6.824651    14A     -6.824459    15A     -1.425897  
      16A     -1.316664    17A     -1.115626    18A     -1.096058  
      19A     -1.013178    20A     -0.960188    21A     -0.935198  
      22A     -0.850435    23A     -0.804660    24A     -0.778558  
      25A     -0.687671    26A     -0.675738    27A     -0.663630  
      28A     -0.642254    29A     -0.619195    30A     -0.602275  
      31A     -0.591505    32A     -0.580805    33A     -0.568211  
      34A     -0.551437    35A     -0.540083    36A     -0.528677  
      37A     -0.510380    38A     -0.502406    39A     -0.495785  
      40A     -0.486941    41A     -0.480854    42A     -0.475300  
      43A     -0.470632    44A     -0.456420    45A     -0.418397  

    Virtual:                                                              

      46A      0.022974    47A      0.028060    48A      0.034810  
      49A      0.035995    50A      0.044590    51A      0.045628  
      52A      0.048801    53A      0.055991    54A      0.060355  
      55A      0.064785    56A      0.067948    57A      0.069387  
      58A      0.070541    59A      0.082191    60A      0.090621  
      61A      0.092866    62A      0.102525    63A      0.109533  
      64A      0.112794    65A      0.118696    66A      0.120107  
      67A      0.123680    68A      0.128166    69A      0.131552  
      70A      0.132453    71A      0.138368    72A      0.140397  
      73A      0.143105    74A      0.149116    75A      0.152781  
      76A      0.156032    77A      0.163084    78A      0.163863  
      79A      0.168939    80A      0.172440    81A      0.173848  
      82A      0.174835    83A      0.181637    84A      0.184487  
      85A      0.195287    86A      0.198995    87A      0.205902  
      88A      0.215405    89A      0.217970    90A      0.219585  
      91A      0.227395    92A      0.237494    93A      0.240075  
      94A      0.242920    95A      0.245815    96A      0.250326  
      97A      0.254253    98A      0.255575    99A      0.258708  
     100A      0.263003   101A      0.265897   102A      0.268594  
     103A      0.274326   104A      0.280624   105A      0.285350  
     106A      0.288825   107A      0.293950   108A      0.295657  
     109A      0.303361   110A      0.309525   111A      0.309888  
     112A      0.314563   113A      0.316652   114A      0.324175  
     115A      0.327755   116A      0.337240   117A      0.339905  
     118A      0.345546   119A      0.349880   120A      0.351403  
     121A      0.355195   122A      0.356295   123A      0.362859  
     124A      0.365725   125A      0.367779   126A      0.371514  
     127A      0.375598   128A      0.380728   129A      0.381737  
     130A      0.385037   131A      0.390211   132A      0.392535  
     133A      0.396400   134A      0.399622   135A      0.402565  
     136A      0.404657   137A      0.409433   138A      0.413737  
     139A      0.417737   140A      0.422175   141A      0.423744  
     142A      0.427571   143A      0.432802   144A      0.435974  
     145A      0.441166   146A      0.444510   147A      0.447411  
     148A      0.451635   149A      0.453331   150A      0.457428  
     151A      0.459465   152A      0.461908   153A      0.464643  
     154A      0.466197   155A      0.469299   156A      0.478423  
     157A      0.480913   158A      0.483323   159A      0.485052  
     160A      0.496224   161A      0.500973   162A      0.502824  
     163A      0.505849   164A      0.507518   165A      0.509949  
     166A      0.519403   167A      0.522019   168A      0.525650  
     169A      0.527784   170A      0.531639   171A      0.535433  
     172A      0.541379   173A      0.544532   174A      0.548265  
     175A      0.550001   176A      0.552945   177A      0.559039  
     178A      0.561984   179A      0.568854   180A      0.577104  
     181A      0.580375   182A      0.584905   183A      0.590456  
     184A      0.593900   185A      0.600749   186A      0.606903  
     187A      0.608432   188A      0.609955   189A      0.616664  
     190A      0.620412   191A      0.624723   192A      0.628526  
     193A      0.635152   194A      0.637074   195A      0.642477  
     196A      0.648704   197A      0.657160   198A      0.661580  
     199A      0.671120   200A      0.680033   201A      0.684100  
     202A      0.686191   203A      0.692098   204A      0.701863  
     205A      0.705953   206A      0.712389   207A      0.720472  
     208A      0.730482   209A      0.742800   210A      0.743831  
     211A      0.749146   212A      0.756243   213A      0.761069  
     214A      0.772357   215A      0.781691   216A      0.782089  
     217A      0.791468   218A      0.799618   219A      0.804126  
     220A      0.809983   221A      0.819885   222A      0.825892  
     223A      0.831143   224A      0.832660   225A      0.837687  
     226A      0.841365   227A      0.844815   228A      0.852556  
     229A      0.860871   230A      0.862931   231A      0.867908  
     232A      0.875727   233A      0.878670   234A      0.883847  
     235A      0.886727   236A      0.888694   237A      0.894677  
     238A      0.901923   239A      0.906913   240A      0.910715  
     241A      0.916395   242A      0.922657   243A      0.930405  
     244A      0.931605   245A      0.934245   246A      0.938110  
     247A      0.942822   248A      0.950157   249A      0.953853  
     250A      0.955006   251A      0.959467   252A      0.963482  
     253A      0.967642   254A      0.972858   255A      0.977241  
     256A      0.978255   257A      0.987457   258A      0.990923  
     259A      0.995107   260A      1.005227   261A      1.008591  
     262A      1.014880   263A      1.015339   264A      1.019090  
     265A      1.030611   266A      1.032277   267A      1.034927  
     268A      1.038981   269A      1.042933   270A      1.049639  
     271A      1.054036   272A      1.059296   273A      1.063117  
     274A      1.073012   275A      1.073843   276A      1.079767  
     277A      1.080690   278A      1.087769   279A      1.091624  
     280A      1.096264   281A      1.108311   282A      1.112468  
     283A      1.115868   284A      1.116536   285A      1.123588  
     286A      1.131200   287A      1.134610   288A      1.142862  
     289A      1.147248   290A      1.151004   291A      1.156544  
     292A      1.160087   293A      1.166653   294A      1.169123  
     295A      1.175351   296A      1.177904   297A      1.188244  
     298A      1.189354   299A      1.193795   300A      1.203595  
     301A      1.206571   302A      1.212286   303A      1.218290  
     304A      1.218677   305A      1.222898   306A      1.229993  
     307A      1.233898   308A      1.238699   309A      1.246542  
     310A      1.253096   311A      1.254782   312A      1.257548  
     313A      1.268007   314A      1.277012   315A      1.284831  
     316A      1.288243   317A      1.294606   318A      1.301298  
     319A      1.305087   320A      1.313875   321A      1.318090  
     322A      1.323973   323A      1.331702   324A      1.335190  
     325A      1.341739   326A      1.346931   327A      1.354522  
     328A      1.356425   329A      1.361109   330A      1.368570  
     331A      1.372715   332A      1.388795   333A      1.394554  
     334A      1.400633   335A      1.404947   336A      1.411407  
     337A      1.422292   338A      1.429961   339A      1.436723  
     340A      1.440963   341A      1.441796   342A      1.458025  
     343A      1.458966   344A      1.463367   345A      1.474237  
     346A      1.482633   347A      1.490429   348A      1.491473  
     349A      1.502788   350A      1.503473   351A      1.516542  
     352A      1.521401   353A      1.524606   354A      1.535639  
     355A      1.536839   356A      1.546332   357A      1.551894  
     358A      1.556865   359A      1.564843   360A      1.570316  
     361A      1.579671   362A      1.588313   363A      1.591731  
     364A      1.594055   365A      1.603197   366A      1.615236  
     367A      1.619289   368A      1.632461   369A      1.637438  
     370A      1.647737   371A      1.653333   372A      1.663181  
     373A      1.667926   374A      1.674027   375A      1.676190  
     376A      1.683105   377A      1.687056   378A      1.691134  
     379A      1.698608   380A      1.701056   381A      1.706218  
     382A      1.711147   383A      1.716129   384A      1.718092  
     385A      1.719592   386A      1.727939   387A      1.732291  
     388A      1.736889   389A      1.741356   390A      1.744854  
     391A      1.746872   392A      1.754771   393A      1.760024  
     394A      1.761510   395A      1.775916   396A      1.781189  
     397A      1.783132   398A      1.790368   399A      1.793670  
     400A      1.810325   401A      1.813365   402A      1.821566  
     403A      1.830671   404A      1.836911   405A      1.842741  
     406A      1.858722   407A      1.863779   408A      1.865855  
     409A      1.870532   410A      1.878134   411A      1.883022  
     412A      1.892384   413A      1.898644   414A      1.908217  
     415A      1.910472   416A      1.916308   417A      1.920842  
     418A      1.923816   419A      1.939413   420A      1.944276  
     421A      1.956013   422A      1.959301   423A      1.964199  
     424A      1.967897   425A      1.980857   426A      1.981921  
     427A      1.988154   428A      1.994908   429A      2.004560  
     430A      2.009708   431A      2.012894   432A      2.021969  
     433A      2.025007   434A      2.040239   435A      2.045848  
     436A      2.054457   437A      2.064120   438A      2.065976  
     439A      2.070402   440A      2.082895   441A      2.089430  
     442A      2.104266   443A      2.110914   444A      2.113277  
     445A      2.128140   446A      2.128576   447A      2.143379  
     448A      2.152400   449A      2.165101   450A      2.178900  
     451A      2.190525   452A      2.197923   453A      2.204459  
     454A      2.207003   455A      2.223304   456A      2.226359  
     457A      2.244197   458A      2.251725   459A      2.255507  
     460A      2.261344   461A      2.265097   462A      2.272289  
     463A      2.278702   464A      2.288065   465A      2.290119  
     466A      2.304246   467A      2.312510   468A      2.321325  
     469A      2.324724   470A      2.331168   471A      2.357037  
     472A      2.368407   473A      2.375945   474A      2.385793  
     475A      2.393445   476A      2.396091   477A      2.405885  
     478A      2.413531   479A      2.431064   480A      2.441310  
     481A      2.448822   482A      2.453967   483A      2.468912  
     484A      2.472392   485A      2.483539   486A      2.497144  
     487A      2.498199   488A      2.514505   489A      2.515135  
     490A      2.538008   491A      2.544060   492A      2.550697  
     493A      2.557716   494A      2.564588   495A      2.581999  
     496A      2.586165   497A      2.586877   498A      2.616698  
     499A      2.632705   500A      2.640789   501A      2.648142  
     502A      2.662047   503A      2.673089   504A      2.687372  
     505A      2.712734   506A      2.723834   507A      2.748290  
     508A      2.774356   509A      2.790665   510A      2.797003  
     511A      2.806443   512A      2.820538   513A      2.835528  
     514A      2.843115   515A      2.863819   516A      2.871831  
     517A      2.902760   518A      2.914741   519A      2.922761  
     520A      2.940071   521A      2.956363   522A      2.969072  
     523A      2.994575   524A      3.007111   525A      3.033705  
     526A      3.068522   527A      3.072747   528A      3.090557  
     529A      3.109191   530A      3.144672   531A      3.152657  
     532A      3.171700   533A      3.178652   534A      3.218311  
     535A      3.260942   536A      3.309678   537A      3.328911  
     538A      3.371402   539A      3.379496   540A      3.408438  
     541A      3.421412   542A      3.429733   543A      3.440457  
     544A      3.451006   545A      3.480128   546A      3.484981  
     547A      3.489487   548A      3.503657   549A      3.513666  
     550A      3.520183   551A      3.533454   552A      3.540885  
     553A      3.544655   554A      3.568355   555A      3.573675  
     556A      3.584219   557A      3.597682   558A      3.610345  
     559A      3.614662   560A      3.639560   561A      3.646840  
     562A      3.658341   563A      3.672504   564A      3.682974  
     565A      3.690042   566A      3.690966   567A      3.708566  
     568A      3.710231   569A      3.729166   570A      3.734517  
     571A      3.738436   572A      3.745842   573A      3.749850  
     574A      3.766182   575A      3.768068   576A      3.770193  
     577A      3.775619   578A      3.785952   579A      3.800621  
     580A      3.805493   581A      3.808685   582A      3.823641  
     583A      3.837012   584A      3.838711   585A      3.849826  
     586A      3.854965   587A      3.857273   588A      3.871863  
     589A      3.880181   590A      3.887552   591A      3.901331  
     592A      3.905144   593A      3.924469   594A      3.929603  
     595A      3.943875   596A      3.951512   597A      3.953172  
     598A      3.963597   599A      3.969414   600A      3.975069  
     601A      3.979018   602A      3.985729   603A      3.992259  
     604A      3.999043   605A      4.010411   606A      4.019068  
     607A      4.028794   608A      4.033241   609A      4.035842  
     610A      4.045768   611A      4.047306   612A      4.058845  
     613A      4.065021   614A      4.071462   615A      4.074836  
     616A      4.100093   617A      4.109025   618A      4.120224  
     619A      4.122687   620A      4.142302   621A      4.154155  
     622A      4.178088   623A      4.192151   624A      4.196705  
     625A      4.199473   626A      4.208386   627A      4.222209  
     628A      4.228248   629A      4.233084   630A      4.253736  
     631A      4.263409   632A      4.269870   633A      4.277266  
     634A      4.279240   635A      4.284528   636A      4.297963  
     637A      4.308013   638A      4.320788   639A      4.327201  
     640A      4.349988   641A      4.356578   642A      4.362555  
     643A      4.374255   644A      4.385123   645A      4.393359  
     646A      4.412368   647A      4.427759   648A      4.430727  
     649A      4.443216   650A      4.458622   651A      4.484183  
     652A      4.492989   653A      4.509099   654A      4.510700  
     655A      4.528160   656A      4.531801   657A      4.550118  
     658A      4.564260   659A      4.577905   660A      4.605125  
     661A      4.620483   662A      4.639407   663A      4.656982  
     664A      4.659250   665A      4.671748   666A      4.683305  
     667A      4.687603   668A      4.692528   669A      4.703778  
     670A      4.706751   671A      4.718078   672A      4.738488  
     673A      4.748210   674A      4.749714   675A      4.772202  
     676A      4.780052   677A      4.788610   678A      4.794255  
     679A      4.818644   680A      4.839244   681A      4.844620  
     682A      4.854539   683A      4.866881   684A      4.881749  
     685A      4.887687   686A      4.906611   687A      4.910772  
     688A      4.921370   689A      4.926360   690A      4.950735  
     691A      4.960816   692A      4.964266   693A      4.988301  
     694A      4.995488   695A      5.006924   696A      5.029644  
     697A      5.034908   698A      5.059040   699A      5.078904  
     700A      5.083616   701A      5.088008   702A      5.106715  
     703A      5.115872   704A      5.124277   705A      5.134190  
     706A      5.149251   707A      5.172233   708A      5.174168  
     709A      5.180426   710A      5.196041   711A      5.202125  
     712A      5.210943   713A      5.221392   714A      5.234201  
     715A      5.241706   716A      5.250789   717A      5.270076  
     718A      5.281644   719A      5.290801   720A      5.302669  
     721A      5.317512   722A      5.330979   723A      5.336989  
     724A      5.350351   725A      5.357405   726A      5.364822  
     727A      5.371155   728A      5.379695   729A      5.385405  
     730A      5.390509   731A      5.403545   732A      5.409889  
     733A      5.431155   734A      5.440969   735A      5.451723  
     736A      5.464981   737A      5.471868   738A      5.488536  
     739A      5.494308   740A      5.516290   741A      5.539991  
     742A      5.562881   743A      5.574320   744A      5.581613  
     745A      5.604320   746A      5.609730   747A      5.619999  
     748A      5.629914   749A      5.639428   750A      5.659172  
     751A      5.687275   752A      5.705758   753A      5.707137  
     754A      5.727911   755A      5.739422   756A      5.772429  
     757A      5.780497   758A      5.792171   759A      5.813343  
     760A      5.838531   761A      5.867495   762A      5.877364  
     763A      5.919612   764A      5.929968   765A      5.953437  
     766A      5.974718   767A      5.985811   768A      6.018497  
     769A      6.031227   770A      6.045155   771A      6.079133  
     772A      6.086486   773A      6.114775   774A      6.135801  
     775A      6.154275   776A      6.178246   777A      6.191115  
     778A      6.231159   779A      6.248719   780A      6.250512  
     781A      6.272209   782A      6.284492   783A      6.322708  
     784A      6.340544   785A      6.405943   786A      6.469516  
     787A      6.505479   788A      6.563398   789A      6.743007  
     790A      6.746578   791A      6.781669   792A      6.798584  
     793A      6.818524   794A      6.823581   795A      6.832883  
     796A      6.851180   797A      6.856942   798A      6.868835  
     799A      6.906903   800A      6.920920   801A      6.951095  
     802A      6.967459   803A      6.973286   804A      6.988336  
     805A      7.048988   806A      7.054956   807A      7.074028  
     808A      7.090108   809A      7.115909   810A      7.135793  
     811A      7.165759   812A      7.252584   813A      7.398305  
     814A      7.447521   815A      7.463054   816A      7.498998  
     817A      7.677956   818A      7.755032   819A      7.774023  
     820A      7.802394   821A      7.868175   822A      7.880954  
     823A     13.167045   824A     13.936379   825A     14.351185  
     826A     17.783279   827A     17.836256   828A     18.015531  
     829A     18.057762   830A     18.393491   831A     18.903946  
     832A     19.502591  

    Final Occupation by Irrep:
              A 
    DOCC [    45 ]

  @DF-RHF Final Energy:  -821.78145396786181

   => Energetics <=

    Nuclear Repulsion Energy =            707.1070476400443567
    One-Electron Energy =               -2530.9494746000254963
    Two-Electron Energy =                1002.0609729921193320
    Total Energy =                       -821.7814539678618075

Computation Completed

*** tstop() called on c451-101.stampede2.tacc.utexas.edu at Thu Apr  1 21:10:23 2021
Module time:
	user time   =     695.42 seconds =      11.59 minutes
	system time =      15.42 seconds =       0.26 minutes
	total time  =        119 seconds =       1.98 minutes
Total time:
	user time   =     695.42 seconds =      11.59 minutes
	system time =      15.42 seconds =       0.26 minutes
	total time  =        119 seconds =       1.98 minutes
   => Loading Basis Set <=

    Name: (AUG-CC-PVTZ AUX)
    Role: RIFIT
    Keyword: DF_BASIS_MP2
    atoms 1     entry S          line   666 file /home1/07844/xy3866/miniconda3/envs/p4env/share/psi4/basis/aug-cc-pvtz-ri.gbs 
    atoms 2-3   entry O          line   264 file /home1/07844/xy3866/miniconda3/envs/p4env/share/psi4/basis/aug-cc-pvtz-ri.gbs 
    atoms 4-10  entry C          line   148 file /home1/07844/xy3866/miniconda3/envs/p4env/share/psi4/basis/aug-cc-pvtz-ri.gbs 
    atoms 11-26 entry H          line    30 file /home1/07844/xy3866/miniconda3/envs/p4env/share/psi4/basis/aug-cc-pvtz-ri.gbs 


*** tstart() called on c451-101.stampede2.tacc.utexas.edu
*** at Thu Apr  1 21:10:24 2021


  //>>>>>>>>>>>>>>>>>>>>>>>>>>>>>>>>>>>//
  //               DFMP2               //
  //<<<<<<<<<<<<<<<<<<<<<<<<<<<<<<<<<<<//

	 --------------------------------------------------------
	                          DF-MP2                         
	      2nd-Order Density-Fitted Moller-Plesset Theory     
	              RMP2 Wavefunction,   8 Threads             
	                                                         
	        Rob Parrish, Justin Turney, Andy Simmonett,      
	           Ed Hohenstein, and C. David Sherrill          
	 --------------------------------------------------------

   => Auxiliary Basis Set <=

  Basis Set: (AUG-CC-PVTZ AUX)
    Blend: AUG-CC-PVTZ-RI
    Number of shells: 513
    Number of basis functions: 1837
    Number of Cartesian functions: 2295
    Spherical Harmonics?: true
    Max angular momentum: 4

	 --------------------------------------------------------
	                 NBF =   832, NAUX =  1837
	 --------------------------------------------------------
	   CLASS    FOCC     OCC    AOCC    AVIR     VIR    FVIR
	   PAIRS       0      45      45     787     787       0
	 --------------------------------------------------------

  DFHelper Memory: AOs need 8.532 GiB; user supplied 22.352 GiB. Using in-core AOs.


         ------------------------------------------------------------
                                     CPHF                           
                                  Rob Parrish                       
         ------------------------------------------------------------

  ==> Geometry <==

    Molecular point group: c1
    Full point group: C1

    Geometry (in Angstrom), charge = 0, multiplicity = 1:

       Center              X                  Y                   Z               Mass       
    ------------   -----------------  -----------------  -----------------  -----------------
         S           -0.246654546185    -0.291508299966     0.121375602268    31.972071174400
         O           -0.275349546185    -1.481591299966    -0.749359397732    15.994914619570
         O           -0.180651546185    -0.441184299966     1.587407602268    15.994914619570
         C            1.118414453815     0.771281700034    -0.373233397732    12.000000000000
         C            2.460259453815     0.303175700034     0.196218602268    12.000000000000
         C           -1.701319546185     0.687849700034    -0.267242397732    12.000000000000
         C           -2.966661546185    -0.108191299966     0.038768602268    12.000000000000
         C            2.904308453815    -1.036367299966    -0.389805397732    12.000000000000
         C            3.508651453815     1.385736700034    -0.061985397732    12.000000000000
         C           -4.219828546185     0.705217700034    -0.273038397732    12.000000000000
         H            1.130815453815     0.792114700034    -1.468876397732     1.007825032230
         H            0.874470453815     1.772266700034     0.001380602268     1.007825032230
         H            2.330835453815     0.190719700034     1.279130602268     1.007825032230
         H           -1.640884546185     0.949570700034    -1.329280397732     1.007825032230
         H           -1.647653546185     1.601198700034     0.334183602268     1.007825032230
         H           -2.953471546185    -1.030780299966    -0.548855397732     1.007825032230
         H           -2.953798546185    -0.396898299966     1.094321602268     1.007825032230
         H            3.010620453815    -0.959958299966    -1.477629397732     1.007825032230
         H            2.191511453815    -1.835350299966    -0.179011397732     1.007825032230
         H            3.875950453815    -1.320572299966     0.025626602268     1.007825032230
         H            3.647885453815     1.541744700034    -1.137287397732     1.007825032230
         H            3.208286253815     2.384698300034     0.409301902268     1.007825032230
         H            4.472920453815     1.088752700034     0.361191602268     1.007825032230
         H           -4.254687546185     1.621296700034     0.324146602268     1.007825032230
         H           -4.254119546185     0.987258700034    -1.329657397732     1.007825032230
         H           -5.119830546185     0.125480700034    -0.051117397732     1.007825032230

  Nuclear repulsion =  707.107047640044357
  Reference energy  = -821.781453967861808

  ==> Basis Set <==

  Basis Set: AUG-CC-PVTZ
    Blend: AUG-CC-PVTZ
    Number of shells: 286
    Number of basis functions: 832
    Number of Cartesian functions: 954
    Spherical Harmonics?: true
    Max angular momentum: 3

  ==> CGRSolver (by Rob Parrish) <==

   Number of roots    =         1
   Preconditioning    =    JACOBI
   Convergence cutoff =     1E-06
   Maximum iterations =       100

  ==> CPHFRHamiltonian (by Rob Parrish) <== 

  ==> MemDFJK: Density-Fitted J/K Matrices <==

    J tasked:                   Yes
    K tasked:                   Yes
    wK tasked:                   No
    OpenMP threads:               8
    Memory [MiB]:             22888
    Algorithm:                 Core
    Schwarz Cutoff:           1E-12
    Mask sparsity (%):      11.1944
    Fitting Condition:        1E-10

   => Auxiliary Basis Set <=

  Basis Set: (AUG-CC-PVTZ AUX)
    Blend: AUG-CC-PVTZ-JKFIT
    Number of shells: 536
    Number of basis functions: 1818
    Number of Cartesian functions: 2239
    Spherical Harmonics?: true
    Max angular momentum: 4

  ==> CPHF Iterations <==

  => Iterations <=

             Iter  Converged  Remaining    Residual
  CGR           1          0          1   1.130E-01
  CGR           2          0          1   2.918E-02
  CGR           3          0          1   1.169E-02
  CGR           4          0          1   3.401E-03
  CGR           5          0          1   1.082E-03
  CGR           6          0          1   3.290E-04
  CGR           7          0          1   8.766E-05
  CGR           8          0          1   3.385E-05
  CGR           9          0          1   1.180E-05
  CGR          10          0          1   3.746E-06
  CGR          11          0          1   1.174E-06
  CGR          12          1          0   3.312E-07

    CGRSolver converged.

	-----------------------------------------------------------
	 ==================> DF-MP2 Energies <==================== 
	-----------------------------------------------------------
	 Reference Energy          =    -821.7814539678618075 [Eh]
	 Singles Energy            =      -0.0000000000000000 [Eh]
	 Same-Spin Energy          =      -0.5010367079250605 [Eh]
	 Opposite-Spin Energy      =      -1.6492116751227404 [Eh]
	 Correlation Energy        =      -2.1502483830478010 [Eh]
	 Total Energy              =    -823.9317023509096316 [Eh]
	-----------------------------------------------------------
	 ================> DF-SCS-MP2 Energies <================== 
	-----------------------------------------------------------
	 SCS Same-Spin Scale       =       0.3333333333333333 [-]
	 SCS Opposite-Spin Scale   =       1.2000000000000000 [-]
	 SCS Same-Spin Energy      =      -0.1670122359750202 [Eh]
	 SCS Opposite-Spin Energy  =      -1.9790540101472884 [Eh]
	 SCS Correlation Energy    =      -2.1460662461223086 [Eh]
	 SCS Total Energy          =    -823.9275202139841667 [Eh]
	-----------------------------------------------------------



Properties will be evaluated at  -0.000000,   0.000000,   0.000000 [a0]

Properties computed using the MP2 density matrix

  Nuclear Dipole Moment: [e a0]
     X:     1.7902      Y:     7.0249      Z:    -3.4543

  Electronic Dipole Moment: [e a0]
     X:    -1.8694      Y:    -5.5443      Z:     2.8304

  Dipole Moment: [e a0]
     X:    -0.0792      Y:     1.4806      Z:    -0.6239     Total:     1.6086

  Dipole Moment: [D]
     X:    -0.2013      Y:     3.7633      Z:    -1.5859     Total:     4.0887


*** tstop() called on c451-101.stampede2.tacc.utexas.edu at Thu Apr  1 21:18:57 2021
Module time:
	user time   =    3155.30 seconds =      52.59 minutes
	system time =      44.74 seconds =       0.75 minutes
	total time  =        513 seconds =       8.55 minutes
Total time:
	user time   =    3851.98 seconds =      64.20 minutes
	system time =      60.19 seconds =       1.00 minutes
	total time  =        633 seconds =      10.55 minutes

    Psi4 stopped on: Thursday, 01 April 2021 09:18PM
    Psi4 wall time for execution: 0:10:34.46

*** Psi4 exiting successfully. Buy a developer a beer!
