
    -----------------------------------------------------------------------
          Psi4: An Open-Source Ab Initio Electronic Structure Package
                               Psi4 1.4a3.dev225 

                         Git: Rev {master} 7105e37 


    D. G. A. Smith, L. A. Burns, A. C. Simmonett, R. M. Parrish,
    M. C. Schieber, R. Galvelis, P. Kraus, H. Kruse, R. Di Remigio,
    A. Alenaizan, A. M. James, S. Lehtola, J. P. Misiewicz, M. Scheurer,
    R. A. Shaw, J. B. Schriber, Y. Xie, Z. L. Glick, D. A. Sirianni,
    J. S. O'Brien, J. M. Waldrop, A. Kumar, E. G. Hohenstein,
    B. P. Pritchard, B. R. Brooks, H. F. Schaefer III, A. Yu. Sokolov,
    K. Patkowski, A. E. DePrince III, U. Bozkaya, R. A. King,
    F. A. Evangelista, J. M. Turney, T. D. Crawford, C. D. Sherrill,
    J. Chem. Phys. 152(18) 184108 (2020). https://doi.org/10.1063/5.0006002

                            Additional Code Authors
    E. T. Seidl, C. L. Janssen, E. F. Valeev, M. L. Leininger,
    J. F. Gonthier, R. M. Richard, H. R. McAlexander, M. Saitow, X. Wang,
    P. Verma, and M. H. Lechner

             Previous Authors, Complete List of Code Contributors,
                       and Citations for Specific Modules
    https://github.com/psi4/psi4/blob/master/codemeta.json
    https://github.com/psi4/psi4/graphs/contributors
    http://psicode.org/psi4manual/master/introduction.html#citing-psifour

    -----------------------------------------------------------------------


    Psi4 started on: Sunday, 28 February 2021 09:58AM

    Process ID: 271310
    Host:       c401-011.stampede2.tacc.utexas.edu
    PSIDATADIR: /home1/07844/xy3866/miniconda3/envs/p4env/share/psi4
    Memory:     500.0 MiB
    Threads:    32
    
  ==> Input File <==

--------------------------------------------------------------------------
#psi4
#
memory 32 gb

molecule  {
0 1
  S       -0.2573260    -0.3323280     0.1419150
  O       -0.2860210    -1.5224110    -0.7288200
  O       -0.1913230    -0.4820040     1.6079470
  C        1.1077430     0.7304620    -0.3526940
  C        2.3203858     0.1858635     0.2718780
  C       -1.7119910     0.6470300    -0.2467030
  C       -2.9773330    -0.1490110     0.0593080
  C        2.8936370    -1.0771870    -0.3692660
  C        3.4979800     1.3449170    -0.0414460
  C       -4.2305000     0.6643980    -0.2524990
  H        1.1201440     0.7512950    -1.4483370
  H        0.8637990     1.7314470     0.0219200
  H        2.3201640     0.1499000     1.2996700
  H       -1.6515560     0.9087510    -1.3087410
  H       -1.6583250     1.5603790     0.3547230
  H       -2.9641430    -1.0716000    -0.5283160
  H       -2.9644700    -0.4377180     1.1148610
  H        2.9999490    -1.0007780    -1.4570900
  H        2.1808400    -1.8761700    -0.1584720
  H        3.8652790    -1.3613920     0.0461660
  H        3.6372140     1.5009250    -1.1167480
  H        3.2107350     2.3002430     0.4092550
  H        4.4622490     1.0479330     0.3817310
  H       -4.2653590     1.5804770     0.3446860
  H       -4.2647910     0.9464390    -1.3091180
  H       -5.1305020     0.0846610    -0.0305780
units angstrom
no_reorient  #important for SAPT in psi4, default
symmetry c1  #important for SAPT in psi4, default
}

set PROPERTIES_ORIGIN ["COM"]
properties('MP2/aug-cc-pvtz', properties = ['dipole'])
--------------------------------------------------------------------------

  Memory set to  29.802 GiB by Python driver.
    SCF Algorithm Type (re)set to DF.

*** tstart() called on c401-011.stampede2.tacc.utexas.edu
*** at Sun Feb 28 09:58:26 2021

   => Loading Basis Set <=

    Name: AUG-CC-PVTZ
    Role: ORBITAL
    Keyword: BASIS
    atoms 1     entry S          line   906 file /home1/07844/xy3866/miniconda3/envs/p4env/share/psi4/basis/aug-cc-pvtz.gbs 
    atoms 2-3   entry O          line   331 file /home1/07844/xy3866/miniconda3/envs/p4env/share/psi4/basis/aug-cc-pvtz.gbs 
    atoms 4-10  entry C          line   239 file /home1/07844/xy3866/miniconda3/envs/p4env/share/psi4/basis/aug-cc-pvtz.gbs 
    atoms 11-26 entry H          line    40 file /home1/07844/xy3866/miniconda3/envs/p4env/share/psi4/basis/aug-cc-pvtz.gbs 


         ---------------------------------------------------------
                                   SCF
               by Justin Turney, Rob Parrish, Andy Simmonett
                          and Daniel G. A. Smith
                              RHF Reference
                       32 Threads,  30517 MiB Core
         ---------------------------------------------------------

  ==> Geometry <==

    Molecular point group: c1
    Full point group: C1

    Geometry (in Angstrom), charge = 0, multiplicity = 1:

       Center              X                  Y                   Z               Mass       
    ------------   -----------------  -----------------  -----------------  -----------------
         S           -0.237286329395    -0.285646248381     0.117471013742    31.972071174400
         O           -0.265981329395    -1.475729248381    -0.753263986258    15.994914619570
         O           -0.171283329395    -0.435322248381     1.583503013742    15.994914619570
         C            1.127782670605     0.777143751619    -0.377137986258    12.000000000000
         C            2.340425470605     0.232545251619     0.247434013742    12.000000000000
         C           -1.691951329395     0.693711751619    -0.271146986258    12.000000000000
         C           -2.957293329395    -0.102329248381     0.034864013742    12.000000000000
         C            2.913676670605    -1.030505248381    -0.393709986258    12.000000000000
         C            3.518019670605     1.391598751619    -0.065889986258    12.000000000000
         C           -4.210460329395     0.711079751619    -0.276942986258    12.000000000000
         H            1.140183670605     0.797976751619    -1.472780986258     1.007825032230
         H            0.883838670605     1.778128751619    -0.002523986258     1.007825032230
         H            2.340203670605     0.196581751619     1.275226013742     1.007825032230
         H           -1.631516329395     0.955432751619    -1.333184986258     1.007825032230
         H           -1.638285329395     1.607060751619     0.330279013742     1.007825032230
         H           -2.944103329395    -1.024918248381    -0.552759986258     1.007825032230
         H           -2.944430329395    -0.391036248381     1.090417013742     1.007825032230
         H            3.019988670605    -0.954096248381    -1.481533986258     1.007825032230
         H            2.200879670605    -1.829488248381    -0.182915986258     1.007825032230
         H            3.885318670605    -1.314710248381     0.021722013742     1.007825032230
         H            3.657253670605     1.547606751619    -1.141191986258     1.007825032230
         H            3.230774670605     2.346924751619     0.384811013742     1.007825032230
         H            4.482288670605     1.094614751619     0.357287013742     1.007825032230
         H           -4.245319329395     1.627158751619     0.320242013742     1.007825032230
         H           -4.244751329395     0.993120751619    -1.333561986258     1.007825032230
         H           -5.110462329395     0.131342751619    -0.055021986258     1.007825032230

  Running in c1 symmetry.

  Rotational constants: A =      0.08754  B =      0.01828  C =      0.01725 [cm^-1]
  Rotational constants: A =   2624.42679  B =    547.99814  C =    517.11696 [MHz]
  Nuclear repulsion =  708.727669705755943

  Charge       = 0
  Multiplicity = 1
  Electrons    = 90
  Nalpha       = 45
  Nbeta        = 45

  ==> Algorithm <==

  SCF Algorithm Type is DF.
  DIIS enabled.
  MOM disabled.
  Fractional occupation disabled.
  Guess Type is SAD.
  Energy threshold   = 1.00e-10
  Density threshold  = 1.00e-10
  Integral threshold = 1.00e-12

  ==> Primary Basis <==

  Basis Set: AUG-CC-PVTZ
    Blend: AUG-CC-PVTZ
    Number of shells: 286
    Number of basis functions: 832
    Number of Cartesian functions: 954
    Spherical Harmonics?: true
    Max angular momentum: 3

   => Loading Basis Set <=

    Name: (AUG-CC-PVTZ AUX)
    Role: JKFIT
    Keyword: DF_BASIS_SCF
    atoms 1     entry S          line   730 file /home1/07844/xy3866/miniconda3/envs/p4env/share/psi4/basis/aug-cc-pvtz-jkfit.gbs 
    atoms 2-3   entry O          line   286 file /home1/07844/xy3866/miniconda3/envs/p4env/share/psi4/basis/aug-cc-pvtz-jkfit.gbs 
    atoms 4-10  entry C          line   162 file /home1/07844/xy3866/miniconda3/envs/p4env/share/psi4/basis/aug-cc-pvtz-jkfit.gbs 
    atoms 11-26 entry H          line    70 file /home1/07844/xy3866/miniconda3/envs/p4env/share/psi4/basis/aug-cc-pvtz-jkfit.gbs 

  ==> Integral Setup <==

  DFHelper Memory: AOs need 8.208 GiB; user supplied 22.352 GiB. Using in-core AOs.

  ==> MemDFJK: Density-Fitted J/K Matrices <==

    J tasked:                   Yes
    K tasked:                   Yes
    wK tasked:                   No
    OpenMP threads:              32
    Memory [MiB]:             22888
    Algorithm:                 Core
    Schwarz Cutoff:           1E-12
    Mask sparsity (%):      15.9659
    Fitting Condition:        1E-10

   => Auxiliary Basis Set <=

  Basis Set: (AUG-CC-PVTZ AUX)
    Blend: AUG-CC-PVTZ-JKFIT
    Number of shells: 536
    Number of basis functions: 1818
    Number of Cartesian functions: 2239
    Spherical Harmonics?: true
    Max angular momentum: 4

  Minimum eigenvalue in the overlap matrix is 2.2222469443E-06.
  Reciprocal condition number of the overlap matrix is 1.0278564968E-07.
    Using symmetric orthogonalization.

  ==> Pre-Iterations <==

  SCF Guess: Superposition of Atomic Densities via on-the-fly atomic UHF (no occupation information).

   -------------------------
    Irrep   Nso     Nmo    
   -------------------------
     A        832     832 
   -------------------------
    Total     832     832
   -------------------------

  ==> Iterations <==

                           Total Energy        Delta E     RMS |[F,P]|

   @DF-RHF iter SAD:  -821.64907084140430   -8.21649e+02   0.00000e+00 
   @DF-RHF iter   1:  -821.27987297547702    3.69198e-01   1.15724e-03 DIIS
   @DF-RHF iter   2:  -821.62096530360554   -3.41092e-01   7.07630e-04 DIIS
   @DF-RHF iter   3:  -821.75373077961331   -1.32765e-01   1.30427e-04 DIIS
   @DF-RHF iter   4:  -821.76035236343910   -6.62158e-03   4.74950e-05 DIIS
   @DF-RHF iter   5:  -821.76137267025729   -1.02031e-03   9.02119e-06 DIIS
   @DF-RHF iter   6:  -821.76141243212908   -3.97619e-05   2.38854e-06 DIIS
   @DF-RHF iter   7:  -821.76141584643108   -3.41430e-06   5.45214e-07 DIIS
   @DF-RHF iter   8:  -821.76141604919974   -2.02769e-07   1.61700e-07 DIIS
   @DF-RHF iter   9:  -821.76141607000864   -2.08089e-08   6.39221e-08 DIIS
   @DF-RHF iter  10:  -821.76141607251702   -2.50839e-09   2.25254e-08 DIIS
   @DF-RHF iter  11:  -821.76141607285604   -3.39014e-10   7.97931e-09 DIIS
   @DF-RHF iter  12:  -821.76141607288832   -3.22871e-11   3.17115e-09 DIIS
   @DF-RHF iter  13:  -821.76141607289287   -4.54747e-12   7.42169e-10 DIIS
   @DF-RHF iter  14:  -821.76141607289549   -2.61480e-12   2.45795e-10 DIIS
   @DF-RHF iter  15:  -821.76141607289458    9.09495e-13   9.34036e-11 DIIS
  Energy and wave function converged.


  ==> Post-Iterations <==

    Orbital Energies [Eh]
    ---------------------

    Doubly Occupied:                                                      

       1A    -92.168174     2A    -20.536643     3A    -20.535317  
       4A    -11.276116     5A    -11.273663     6A    -11.245965  
       7A    -11.240800     8A    -11.229529     9A    -11.229208  
      10A    -11.214249    11A     -9.139197    12A     -6.823639  
      13A     -6.823007    14A     -6.822932    15A     -1.426842  
      16A     -1.317398    17A     -1.119357    18A     -1.095217  
      19A     -1.008739    20A     -0.959990    21A     -0.927802  
      22A     -0.853081    23A     -0.809234    24A     -0.788281  
      25A     -0.688340    26A     -0.677822    27A     -0.667393  
      28A     -0.643026    29A     -0.622498    30A     -0.599664  
      31A     -0.590758    32A     -0.578595    33A     -0.567931  
      34A     -0.548346    35A     -0.541110    36A     -0.529902  
      37A     -0.516862    38A     -0.506525    39A     -0.498350  
      40A     -0.497729    41A     -0.485059    42A     -0.477605  
      43A     -0.457687    44A     -0.450753    45A     -0.402839  

    Virtual:                                                              

      46A      0.022869    47A      0.028407    48A      0.034553  
      49A      0.035994    50A      0.044789    51A      0.045507  
      52A      0.048780    53A      0.055695    54A      0.060095  
      55A      0.064520    56A      0.067895    57A      0.069428  
      58A      0.070253    59A      0.082183    60A      0.090192  
      61A      0.092971    62A      0.102548    63A      0.109611  
      64A      0.112743    65A      0.118731    66A      0.119872  
      67A      0.124479    68A      0.128137    69A      0.131543  
      70A      0.132333    71A      0.138262    72A      0.140248  
      73A      0.143745    74A      0.149050    75A      0.152487  
      76A      0.156538    77A      0.162414    78A      0.164185  
      79A      0.168505    80A      0.172311    81A      0.173941  
      82A      0.174466    83A      0.181705    84A      0.184412  
      85A      0.195208    86A      0.199884    87A      0.205410  
      88A      0.214466    89A      0.217100    90A      0.218874  
      91A      0.229060    92A      0.236957    93A      0.240381  
      94A      0.243117    95A      0.245612    96A      0.251578  
      97A      0.253335    98A      0.254383    99A      0.258275  
     100A      0.262720   101A      0.266239   102A      0.268491  
     103A      0.276142   104A      0.280981   105A      0.285194  
     106A      0.288451   107A      0.292069   108A      0.296508  
     109A      0.304278   110A      0.309133   111A      0.312481  
     112A      0.314488   113A      0.318938   114A      0.323236  
     115A      0.327260   116A      0.336494   117A      0.338768  
     118A      0.344386   119A      0.350581   120A      0.352388  
     121A      0.354038   122A      0.357250   123A      0.362504  
     124A      0.365269   125A      0.368077   126A      0.371521  
     127A      0.375011   128A      0.379329   129A      0.380919  
     130A      0.386076   131A      0.388165   132A      0.393338  
     133A      0.396461   134A      0.399763   135A      0.401911  
     136A      0.405011   137A      0.409455   138A      0.413824  
     139A      0.417172   140A      0.419715   141A      0.422604  
     142A      0.429133   143A      0.432501   144A      0.433498  
     145A      0.441459   146A      0.444157   147A      0.448758  
     148A      0.450188   149A      0.452729   150A      0.458041  
     151A      0.458855   152A      0.463517   153A      0.465368  
     154A      0.467197   155A      0.472772   156A      0.475206  
     157A      0.481918   158A      0.482089   159A      0.484685  
     160A      0.491641   161A      0.497594   162A      0.501858  
     163A      0.504615   164A      0.508611   165A      0.509721  
     166A      0.518655   167A      0.521597   168A      0.525523  
     169A      0.527719   170A      0.530591   171A      0.534449  
     172A      0.544196   173A      0.547002   174A      0.549772  
     175A      0.551221   176A      0.555445   177A      0.558615  
     178A      0.562328   179A      0.568293   180A      0.577475  
     181A      0.579299   182A      0.587735   183A      0.590111  
     184A      0.594248   185A      0.600725   186A      0.604520  
     187A      0.607769   188A      0.614505   189A      0.616964  
     190A      0.618736   191A      0.623306   192A      0.630281  
     193A      0.634423   194A      0.638784   195A      0.644717  
     196A      0.648985   197A      0.655956   198A      0.659858  
     199A      0.670533   200A      0.676974   201A      0.684225  
     202A      0.687260   203A      0.695778   204A      0.704941  
     205A      0.708422   206A      0.709197   207A      0.723673  
     208A      0.732942   209A      0.740066   210A      0.743324  
     211A      0.748081   212A      0.759395   213A      0.761803  
     214A      0.771365   215A      0.780929   216A      0.786932  
     217A      0.792034   218A      0.797457   219A      0.806963  
     220A      0.812147   221A      0.817154   222A      0.826574  
     223A      0.832152   224A      0.834167   225A      0.837280  
     226A      0.840074   227A      0.846238   228A      0.853921  
     229A      0.862269   230A      0.866684   231A      0.868101  
     232A      0.877060   233A      0.881170   234A      0.885470  
     235A      0.886769   236A      0.892278   237A      0.895233  
     238A      0.903870   239A      0.909510   240A      0.910699  
     241A      0.920000   242A      0.920797   243A      0.927927  
     244A      0.932693   245A      0.935028   246A      0.939781  
     247A      0.942151   248A      0.949734   249A      0.951409  
     250A      0.956722   251A      0.958792   252A      0.960045  
     253A      0.966087   254A      0.972631   255A      0.975776  
     256A      0.979537   257A      0.984393   258A      0.992855  
     259A      1.000197   260A      1.007356   261A      1.009242  
     262A      1.014527   263A      1.015966   264A      1.018919  
     265A      1.026174   266A      1.031661   267A      1.033889  
     268A      1.044059   269A      1.046216   270A      1.051862  
     271A      1.053494   272A      1.059029   273A      1.064124  
     274A      1.070411   275A      1.072460   276A      1.079106  
     277A      1.079429   278A      1.088186   279A      1.091445  
     280A      1.096294   281A      1.109639   282A      1.112639  
     283A      1.115833   284A      1.118552   285A      1.122910  
     286A      1.130155   287A      1.135602   288A      1.143420  
     289A      1.145217   290A      1.150821   291A      1.158978  
     292A      1.160828   293A      1.164617   294A      1.172714  
     295A      1.179132   296A      1.181662   297A      1.189500  
     298A      1.192721   299A      1.198560   300A      1.203600  
     301A      1.208636   302A      1.211899   303A      1.216894  
     304A      1.220611   305A      1.227804   306A      1.231974  
     307A      1.234377   308A      1.237549   309A      1.246509  
     310A      1.254251   311A      1.254841   312A      1.260268  
     313A      1.267454   314A      1.275675   315A      1.287289  
     316A      1.288983   317A      1.293773   318A      1.304429  
     319A      1.308504   320A      1.314415   321A      1.320333  
     322A      1.324947   323A      1.330782   324A      1.335299  
     325A      1.339292   326A      1.346186   327A      1.353316  
     328A      1.359339   329A      1.364459   330A      1.369542  
     331A      1.376113   332A      1.391676   333A      1.397500  
     334A      1.399076   335A      1.401708   336A      1.409478  
     337A      1.415999   338A      1.429475   339A      1.435537  
     340A      1.440424   341A      1.442844   342A      1.452508  
     343A      1.461261   344A      1.466481   345A      1.472759  
     346A      1.476678   347A      1.489435   348A      1.492142  
     349A      1.502640   350A      1.509010   351A      1.516034  
     352A      1.520936   353A      1.529550   354A      1.533106  
     355A      1.538946   356A      1.548308   357A      1.551484  
     358A      1.557594   359A      1.560164   360A      1.572035  
     361A      1.580415   362A      1.590184   363A      1.592903  
     364A      1.597779   365A      1.605587   366A      1.619013  
     367A      1.632033   368A      1.635329   369A      1.639195  
     370A      1.645733   371A      1.652557   372A      1.660879  
     373A      1.666460   374A      1.670428   375A      1.678550  
     376A      1.683832   377A      1.686659   378A      1.688936  
     379A      1.693091   380A      1.697200   381A      1.701719  
     382A      1.711940   383A      1.714081   384A      1.720361  
     385A      1.722349   386A      1.730219   387A      1.731998  
     388A      1.737659   389A      1.741549   390A      1.745826  
     391A      1.748751   392A      1.758440   393A      1.763245  
     394A      1.768867   395A      1.780833   396A      1.782489  
     397A      1.783368   398A      1.793911   399A      1.798382  
     400A      1.804610   401A      1.812711   402A      1.821013  
     403A      1.830549   404A      1.836174   405A      1.844956  
     406A      1.858765   407A      1.864085   408A      1.868752  
     409A      1.870562   410A      1.872836   411A      1.884189  
     412A      1.893550   413A      1.901130   414A      1.908613  
     415A      1.913195   416A      1.920221   417A      1.921753  
     418A      1.922926   419A      1.939194   420A      1.944233  
     421A      1.948802   422A      1.957022   423A      1.961672  
     424A      1.964741   425A      1.976737   426A      1.981834  
     427A      1.986702   428A      1.994858   429A      2.002489  
     430A      2.009605   431A      2.013354   432A      2.023422  
     433A      2.028819   434A      2.041577   435A      2.043352  
     436A      2.054485   437A      2.067348   438A      2.074659  
     439A      2.077403   440A      2.089712   441A      2.097605  
     442A      2.107042   443A      2.108735   444A      2.113923  
     445A      2.122437   446A      2.130385   447A      2.139989  
     448A      2.153889   449A      2.168798   450A      2.184676  
     451A      2.197396   452A      2.200043   453A      2.203380  
     454A      2.216532   455A      2.223893   456A      2.229341  
     457A      2.246662   458A      2.251889   459A      2.256544  
     460A      2.261080   461A      2.264705   462A      2.273428  
     463A      2.277745   464A      2.282973   465A      2.305632  
     466A      2.310768   467A      2.312409   468A      2.317166  
     469A      2.328657   470A      2.332830   471A      2.353539  
     472A      2.363434   473A      2.370453   474A      2.379711  
     475A      2.388753   476A      2.396273   477A      2.412943  
     478A      2.415970   479A      2.431397   480A      2.440542  
     481A      2.452465   482A      2.454035   483A      2.463399  
     484A      2.473677   485A      2.479255   486A      2.497676  
     487A      2.499459   488A      2.512370   489A      2.515069  
     490A      2.535761   491A      2.543684   492A      2.548816  
     493A      2.559986   494A      2.568745   495A      2.581379  
     496A      2.589177   497A      2.598601   498A      2.609117  
     499A      2.631297   500A      2.643519   501A      2.662668  
     502A      2.681499   503A      2.685780   504A      2.699200  
     505A      2.710070   506A      2.743028   507A      2.744738  
     508A      2.761894   509A      2.788626   510A      2.799430  
     511A      2.805216   512A      2.813842   513A      2.824529  
     514A      2.840960   515A      2.849770   516A      2.869543  
     517A      2.899227   518A      2.920267   519A      2.930209  
     520A      2.942497   521A      2.956962   522A      2.969846  
     523A      2.984462   524A      3.020023   525A      3.028072  
     526A      3.053941   527A      3.072355   528A      3.092296  
     529A      3.115040   530A      3.141270   531A      3.146113  
     532A      3.160131   533A      3.179578   534A      3.235256  
     535A      3.273930   536A      3.301512   537A      3.330744  
     538A      3.340523   539A      3.372626   540A      3.407574  
     541A      3.423099   542A      3.433156   543A      3.445022  
     544A      3.452769   545A      3.476994   546A      3.481065  
     547A      3.497285   548A      3.508266   549A      3.515525  
     550A      3.524219   551A      3.530602   552A      3.542752  
     553A      3.551650   554A      3.565797   555A      3.575645  
     556A      3.584455   557A      3.596855   558A      3.611840  
     559A      3.615728   560A      3.634865   561A      3.652091  
     562A      3.665782   563A      3.670296   564A      3.677270  
     565A      3.682943   566A      3.688359   567A      3.704860  
     568A      3.707144   569A      3.715759   570A      3.731994  
     571A      3.736042   572A      3.742273   573A      3.756155  
     574A      3.762002   575A      3.765768   576A      3.771636  
     577A      3.776759   578A      3.786172   579A      3.800445  
     580A      3.801133   581A      3.805177   582A      3.814094  
     583A      3.827548   584A      3.846431   585A      3.849721  
     586A      3.854637   587A      3.860698   588A      3.865196  
     589A      3.871132   590A      3.885840   591A      3.904024  
     592A      3.906023   593A      3.922681   594A      3.928503  
     595A      3.944302   596A      3.948546   597A      3.953366  
     598A      3.963656   599A      3.968923   600A      3.975096  
     601A      3.980403   602A      3.987400   603A      3.995144  
     604A      3.999574   605A      4.006084   606A      4.014194  
     607A      4.024982   608A      4.034108   609A      4.044029  
     610A      4.049880   611A      4.050434   612A      4.065951  
     613A      4.066982   614A      4.070190   615A      4.083867  
     616A      4.101694   617A      4.106979   618A      4.126710  
     619A      4.143884   620A      4.147043   621A      4.153242  
     622A      4.174922   623A      4.189940   624A      4.198662  
     625A      4.201800   626A      4.214976   627A      4.221847  
     628A      4.229736   629A      4.242409   630A      4.247221  
     631A      4.256702   632A      4.269678   633A      4.278550  
     634A      4.284790   635A      4.290930   636A      4.304930  
     637A      4.312533   638A      4.315699   639A      4.333452  
     640A      4.352151   641A      4.357402   642A      4.364348  
     643A      4.367959   644A      4.374853   645A      4.388597  
     646A      4.407174   647A      4.426473   648A      4.446347  
     649A      4.455181   650A      4.474122   651A      4.479972  
     652A      4.506415   653A      4.516031   654A      4.519217  
     655A      4.540374   656A      4.553507   657A      4.554906  
     658A      4.574925   659A      4.587500   660A      4.607583  
     661A      4.618271   662A      4.642887   663A      4.660596  
     664A      4.666009   665A      4.675152   666A      4.676111  
     667A      4.694840   668A      4.699347   669A      4.705100  
     670A      4.716370   671A      4.719765   672A      4.735313  
     673A      4.740797   674A      4.762413   675A      4.776443  
     676A      4.787399   677A      4.789984   678A      4.799899  
     679A      4.829943   680A      4.843042   681A      4.847456  
     682A      4.857081   683A      4.870539   684A      4.882746  
     685A      4.892880   686A      4.900529   687A      4.918459  
     688A      4.926213   689A      4.928728   690A      4.947762  
     691A      4.956393   692A      4.983114   693A      4.991703  
     694A      4.999975   695A      5.007524   696A      5.032226  
     697A      5.036353   698A      5.059963   699A      5.062065  
     700A      5.084913   701A      5.097619   702A      5.118301  
     703A      5.126261   704A      5.134257   705A      5.149556  
     706A      5.163992   707A      5.174621   708A      5.177973  
     709A      5.199398   710A      5.206621   711A      5.209565  
     712A      5.218609   713A      5.231804   714A      5.234421  
     715A      5.258410   716A      5.259808   717A      5.275145  
     718A      5.282170   719A      5.292352   720A      5.305310  
     721A      5.324518   722A      5.330442   723A      5.338703  
     724A      5.357376   725A      5.364685   726A      5.368925  
     727A      5.377890   728A      5.381718   729A      5.396767  
     730A      5.402285   731A      5.409217   732A      5.420926  
     733A      5.425565   734A      5.441686   735A      5.458556  
     736A      5.477304   737A      5.485605   738A      5.490548  
     739A      5.493345   740A      5.531311   741A      5.547001  
     742A      5.559391   743A      5.572385   744A      5.580541  
     745A      5.598142   746A      5.617987   747A      5.624365  
     748A      5.627920   749A      5.660245   750A      5.686329  
     751A      5.700885   752A      5.710280   753A      5.738166  
     754A      5.744973   755A      5.749631   756A      5.754168  
     757A      5.773028   758A      5.822644   759A      5.838779  
     760A      5.840166   761A      5.866887   762A      5.873600  
     763A      5.921478   764A      5.962989   765A      5.979971  
     766A      5.989272   767A      6.015062   768A      6.038073  
     769A      6.041889   770A      6.045705   771A      6.074530  
     772A      6.088461   773A      6.116551   774A      6.133875  
     775A      6.152820   776A      6.176387   777A      6.187631  
     778A      6.229108   779A      6.250769   780A      6.255435  
     781A      6.271464   782A      6.288305   783A      6.318061  
     784A      6.365144   785A      6.472969   786A      6.487412  
     787A      6.512030   788A      6.634268   789A      6.743130  
     790A      6.773392   791A      6.797170   792A      6.807380  
     793A      6.826490   794A      6.829143   795A      6.838415  
     796A      6.858747   797A      6.863269   798A      6.873458  
     799A      6.905792   800A      6.923088   801A      6.949529  
     802A      6.968238   803A      6.971636   804A      6.987484  
     805A      7.049857   806A      7.059293   807A      7.088093  
     808A      7.090724   809A      7.122885   810A      7.146630  
     811A      7.164224   812A      7.254660   813A      7.399278  
     814A      7.451799   815A      7.465334   816A      7.500571  
     817A      7.679114   818A      7.757668   819A      7.775338  
     820A      7.804064   821A      7.871698   822A      7.889140  
     823A     13.230791   824A     13.987536   825A     14.371008  
     826A     17.722584   827A     17.845450   828A     17.904375  
     829A     18.224517   830A     18.390331   831A     18.872062  
     832A     19.684482  

    Final Occupation by Irrep:
              A 
    DOCC [    45 ]

  @DF-RHF Final Energy:  -821.76141607289458

   => Energetics <=

    Nuclear Repulsion Energy =            708.7276697057559431
    One-Electron Energy =               -2534.1518284190101440
    Two-Electron Energy =                1003.6627426403596246
    Total Energy =                       -821.7614160728945762

Computation Completed

*** tstop() called on c401-011.stampede2.tacc.utexas.edu at Sun Feb 28 09:59:26 2021
Module time:
	user time   =    1083.12 seconds =      18.05 minutes
	system time =      60.41 seconds =       1.01 minutes
	total time  =         60 seconds =       1.00 minutes
Total time:
	user time   =    1083.12 seconds =      18.05 minutes
	system time =      60.41 seconds =       1.01 minutes
	total time  =         60 seconds =       1.00 minutes
   => Loading Basis Set <=

    Name: (AUG-CC-PVTZ AUX)
    Role: RIFIT
    Keyword: DF_BASIS_MP2
    atoms 1     entry S          line   666 file /home1/07844/xy3866/miniconda3/envs/p4env/share/psi4/basis/aug-cc-pvtz-ri.gbs 
    atoms 2-3   entry O          line   264 file /home1/07844/xy3866/miniconda3/envs/p4env/share/psi4/basis/aug-cc-pvtz-ri.gbs 
    atoms 4-10  entry C          line   148 file /home1/07844/xy3866/miniconda3/envs/p4env/share/psi4/basis/aug-cc-pvtz-ri.gbs 
    atoms 11-26 entry H          line    30 file /home1/07844/xy3866/miniconda3/envs/p4env/share/psi4/basis/aug-cc-pvtz-ri.gbs 


*** tstart() called on c401-011.stampede2.tacc.utexas.edu
*** at Sun Feb 28 09:59:27 2021


  //>>>>>>>>>>>>>>>>>>>>>>>>>>>>>>>>>>>//
  //               DFMP2               //
  //<<<<<<<<<<<<<<<<<<<<<<<<<<<<<<<<<<<//

	 --------------------------------------------------------
	                          DF-MP2                         
	      2nd-Order Density-Fitted Moller-Plesset Theory     
	              RMP2 Wavefunction,  32 Threads             
	                                                         
	        Rob Parrish, Justin Turney, Andy Simmonett,      
	           Ed Hohenstein, and C. David Sherrill          
	 --------------------------------------------------------

   => Auxiliary Basis Set <=

  Basis Set: (AUG-CC-PVTZ AUX)
    Blend: AUG-CC-PVTZ-RI
    Number of shells: 513
    Number of basis functions: 1837
    Number of Cartesian functions: 2295
    Spherical Harmonics?: true
    Max angular momentum: 4

	 --------------------------------------------------------
	                 NBF =   832, NAUX =  1837
	 --------------------------------------------------------
	   CLASS    FOCC     OCC    AOCC    AVIR     VIR    FVIR
	   PAIRS       0      45      45     787     787       0
	 --------------------------------------------------------

  DFHelper Memory: AOs need 8.662 GiB; user supplied 22.352 GiB. Using in-core AOs.


         ------------------------------------------------------------
                                     CPHF                           
                                  Rob Parrish                       
         ------------------------------------------------------------

  ==> Geometry <==

    Molecular point group: c1
    Full point group: C1

    Geometry (in Angstrom), charge = 0, multiplicity = 1:

       Center              X                  Y                   Z               Mass       
    ------------   -----------------  -----------------  -----------------  -----------------
         S           -0.237286329395    -0.285646248381     0.117471013742    31.972071174400
         O           -0.265981329395    -1.475729248381    -0.753263986258    15.994914619570
         O           -0.171283329395    -0.435322248381     1.583503013742    15.994914619570
         C            1.127782670605     0.777143751619    -0.377137986258    12.000000000000
         C            2.340425470605     0.232545251619     0.247434013742    12.000000000000
         C           -1.691951329395     0.693711751619    -0.271146986258    12.000000000000
         C           -2.957293329395    -0.102329248381     0.034864013742    12.000000000000
         C            2.913676670605    -1.030505248381    -0.393709986258    12.000000000000
         C            3.518019670605     1.391598751619    -0.065889986258    12.000000000000
         C           -4.210460329395     0.711079751619    -0.276942986258    12.000000000000
         H            1.140183670605     0.797976751619    -1.472780986258     1.007825032230
         H            0.883838670605     1.778128751619    -0.002523986258     1.007825032230
         H            2.340203670605     0.196581751619     1.275226013742     1.007825032230
         H           -1.631516329395     0.955432751619    -1.333184986258     1.007825032230
         H           -1.638285329395     1.607060751619     0.330279013742     1.007825032230
         H           -2.944103329395    -1.024918248381    -0.552759986258     1.007825032230
         H           -2.944430329395    -0.391036248381     1.090417013742     1.007825032230
         H            3.019988670605    -0.954096248381    -1.481533986258     1.007825032230
         H            2.200879670605    -1.829488248381    -0.182915986258     1.007825032230
         H            3.885318670605    -1.314710248381     0.021722013742     1.007825032230
         H            3.657253670605     1.547606751619    -1.141191986258     1.007825032230
         H            3.230774670605     2.346924751619     0.384811013742     1.007825032230
         H            4.482288670605     1.094614751619     0.357287013742     1.007825032230
         H           -4.245319329395     1.627158751619     0.320242013742     1.007825032230
         H           -4.244751329395     0.993120751619    -1.333561986258     1.007825032230
         H           -5.110462329395     0.131342751619    -0.055021986258     1.007825032230

  Nuclear repulsion =  708.727669705755943
  Reference energy  = -821.761416072894576

  ==> Basis Set <==

  Basis Set: AUG-CC-PVTZ
    Blend: AUG-CC-PVTZ
    Number of shells: 286
    Number of basis functions: 832
    Number of Cartesian functions: 954
    Spherical Harmonics?: true
    Max angular momentum: 3

  ==> CGRSolver (by Rob Parrish) <==

   Number of roots    =         1
   Preconditioning    =    JACOBI
   Convergence cutoff =     1E-06
   Maximum iterations =       100

  ==> CPHFRHamiltonian (by Rob Parrish) <== 

  ==> MemDFJK: Density-Fitted J/K Matrices <==

    J tasked:                   Yes
    K tasked:                   Yes
    wK tasked:                   No
    OpenMP threads:              32
    Memory [MiB]:             22888
    Algorithm:                 Core
    Schwarz Cutoff:           1E-12
    Mask sparsity (%):      11.1218
    Fitting Condition:        1E-10

   => Auxiliary Basis Set <=

  Basis Set: (AUG-CC-PVTZ AUX)
    Blend: AUG-CC-PVTZ-JKFIT
    Number of shells: 536
    Number of basis functions: 1818
    Number of Cartesian functions: 2239
    Spherical Harmonics?: true
    Max angular momentum: 4

  ==> CPHF Iterations <==

  => Iterations <=

             Iter  Converged  Remaining    Residual
  CGR           1          0          1   1.131E-01
  CGR           2          0          1   2.921E-02
  CGR           3          0          1   1.167E-02
  CGR           4          0          1   3.346E-03
  CGR           5          0          1   1.014E-03
  CGR           6          0          1   3.234E-04
  CGR           7          0          1   8.551E-05
  CGR           8          0          1   2.914E-05
  CGR           9          0          1   9.815E-06
  CGR          10          0          1   2.800E-06
  CGR          11          0          1   1.070E-06
  CGR          12          1          0   3.202E-07

    CGRSolver converged.

	-----------------------------------------------------------
	 ==================> DF-MP2 Energies <==================== 
	-----------------------------------------------------------
	 Reference Energy          =    -821.7614160728945762 [Eh]
	 Singles Energy            =      -0.0000000000000000 [Eh]
	 Same-Spin Energy          =      -0.5018419262645628 [Eh]
	 Opposite-Spin Energy      =      -1.6507115217360535 [Eh]
	 Correlation Energy        =      -2.1525534480006163 [Eh]
	 Total Energy              =    -823.9139695208951935 [Eh]
	-----------------------------------------------------------
	 ================> DF-SCS-MP2 Energies <================== 
	-----------------------------------------------------------
	 SCS Same-Spin Scale       =       0.3333333333333333 [-]
	 SCS Opposite-Spin Scale   =       1.2000000000000000 [-]
	 SCS Same-Spin Energy      =      -0.1672806420881876 [Eh]
	 SCS Opposite-Spin Energy  =      -1.9808538260832642 [Eh]
	 SCS Correlation Energy    =      -2.1481344681714516 [Eh]
	 SCS Total Energy          =    -823.9095505410659825 [Eh]
	-----------------------------------------------------------



Properties will be evaluated at  -0.000000,   0.000000,   0.000000 [a0]

Properties computed using the MP2 density matrix

  Nuclear Dipole Moment: [e a0]
     X:     1.9433      Y:     7.0721      Z:    -3.5323

  Electronic Dipole Moment: [e a0]
     X:    -2.0225      Y:    -5.5947      Z:     2.9100

  Dipole Moment: [e a0]
     X:    -0.0792      Y:     1.4774      Z:    -0.6223     Total:     1.6051

  Dipole Moment: [D]
     X:    -0.2013      Y:     3.7552      Z:    -1.5818     Total:     4.0798


*** tstop() called on c401-011.stampede2.tacc.utexas.edu at Sun Feb 28 10:06:09 2021
Module time:
	user time   =    3817.54 seconds =      63.63 minutes
	system time =      90.45 seconds =       1.51 minutes
	total time  =        402 seconds =       6.70 minutes
Total time:
	user time   =    4901.93 seconds =      81.70 minutes
	system time =     150.89 seconds =       2.51 minutes
	total time  =        463 seconds =       7.72 minutes

    Psi4 stopped on: Sunday, 28 February 2021 10:06AM
    Psi4 wall time for execution: 0:07:44.56

*** Psi4 exiting successfully. Buy a developer a beer!
