188_EthylPropionate Gaussian SP Calculation on node58.bme.utexas.edu    
Freq      RMP2-FC                                                     6-31G(d)            
Number of atoms                            I               17
Info1-9                                    I   N=           9
          28          27        1002           0           0         100
           6           2           1
Charge                                     I                0
Multiplicity                               I                1
Number of electrons                        I               56
Number of alpha electrons                  I               28
Number of beta electrons                   I               28
Number of basis functions                  I              125
Number of independent functions            I              125
Number of point charges in /Mol/           I                0
Number of translation vectors              I                0
Atomic numbers                             I   N=          17
           8           8           6           6           6           6
           6           1           1           1           1           1
           1           1           1           1           1
Nuclear charges                            R   N=          17
  8.00000000E+00  8.00000000E+00  6.00000000E+00  6.00000000E+00  6.00000000E+00
  6.00000000E+00  6.00000000E+00  1.00000000E+00  1.00000000E+00  1.00000000E+00
  1.00000000E+00  1.00000000E+00  1.00000000E+00  1.00000000E+00  1.00000000E+00
  1.00000000E+00  1.00000000E+00
Current cartesian coordinates              R   N=          51
  1.32171471E+00 -8.50488815E-01  1.26787988E-05 -1.18759436E+00  2.63531617E+00
  4.36700739E-06 -3.08362849E+00 -1.55313168E+00  2.11526333E-05  3.48837249E+00
  8.22612874E-01  7.30373516E-06 -9.49874449E-01  3.41093306E-01  9.85289228E-06
 -5.66668955E+00 -2.87775761E-01 -2.79346203E-05  5.80817367E+00 -8.44302025E-01
 -2.11057376E-05 -2.83664793E+00 -2.77788716E+00 -1.65111025E+00 -2.83668143E+00
 -2.77781781E+00  1.65120989E+00  3.39622853E+00  2.03727059E+00 -1.66912101E+00
  3.39625387E+00  2.03724731E+00  1.66915432E+00 -5.89569553E+00  9.08405855E-01
 -1.66513017E+00 -7.16374860E+00 -1.71089061E+00 -1.03955272E-04 -5.89579927E+00
  9.08331181E-01  1.66511407E+00  7.51400305E+00  3.22570327E-01 -2.38170909E-05
  5.83551271E+00 -2.04842723E+00  1.67567830E+00  5.83548968E+00 -2.04840154E+00
 -1.67573935E+00
Force Field                                I                0
Int Atom Types                             I   N=          17
           0           0           0           0           0           0
           0           0           0           0           0           0
           0           0           0           0           0
MM charges                                 R   N=          17
  0.00000000E+00  0.00000000E+00  0.00000000E+00  0.00000000E+00  0.00000000E+00
  0.00000000E+00  0.00000000E+00  0.00000000E+00  0.00000000E+00  0.00000000E+00
  0.00000000E+00  0.00000000E+00  0.00000000E+00  0.00000000E+00  0.00000000E+00
  0.00000000E+00  0.00000000E+00
Integer atomic weights                     I   N=          17
          16          16          12          12          12          12
          12           1           1           1           1           1
           1           1           1           1           1
Real atomic weights                        R   N=          17
  1.59949146E+01  1.59949146E+01  1.20000000E+01  1.20000000E+01  1.20000000E+01
  1.20000000E+01  1.20000000E+01  1.00782504E+00  1.00782504E+00  1.00782504E+00
  1.00782504E+00  1.00782504E+00  1.00782504E+00  1.00782504E+00  1.00782504E+00
  1.00782504E+00  1.00782504E+00
Atom fragment info                         I   N=          17
           0           0           0           0           0           0
           0           0           0           0           0           0
           0           0           0           0           0
Atom residue num                           I   N=          17
           0           0           0           0           0           0
           0           0           0           0           0           0
           0           0           0           0           0
Nuclear spins                              I   N=          17
           0           0           0           0           0           0
           0           1           1           1           1           1
           1           1           1           1           1
Nuclear ZEff                               R   N=          17
 -5.60000000E+00 -5.60000000E+00 -3.60000000E+00 -3.60000000E+00 -3.60000000E+00
 -3.60000000E+00 -3.60000000E+00 -1.00000000E+00 -1.00000000E+00 -1.00000000E+00
 -1.00000000E+00 -1.00000000E+00 -1.00000000E+00 -1.00000000E+00 -1.00000000E+00
 -1.00000000E+00 -1.00000000E+00
Nuclear QMom                               R   N=          17
  0.00000000E+00  0.00000000E+00  0.00000000E+00  0.00000000E+00  0.00000000E+00
  0.00000000E+00  0.00000000E+00  0.00000000E+00  0.00000000E+00  0.00000000E+00
  0.00000000E+00  0.00000000E+00  0.00000000E+00  0.00000000E+00  0.00000000E+00
  0.00000000E+00  0.00000000E+00
Nuclear GFac                               R   N=          17
  0.00000000E+00  0.00000000E+00  0.00000000E+00  0.00000000E+00  0.00000000E+00
  0.00000000E+00  0.00000000E+00  2.79284600E+00  2.79284600E+00  2.79284600E+00
  2.79284600E+00  2.79284600E+00  2.79284600E+00  2.79284600E+00  2.79284600E+00
  2.79284600E+00  2.79284600E+00
MicOpt                                     I   N=          17
          -1          -1          -1          -1          -1          -1
          -1          -1          -1          -1          -1          -1
          -1          -1          -1          -1          -1
Number of contracted shells                I               48
Number of primitive shells                 I              117
Pure/Cartesian d shells                    I                1
Pure/Cartesian f shells                    I                0
Highest angular momentum                   I                2
Largest degree of contraction              I                6
Shell types                                I   N=          48
           0          -1          -1           2           0          -1
          -1           2           0          -1          -1           2
           0          -1          -1           2           0          -1
          -1           2           0          -1          -1           2
           0          -1          -1           2           0           0
           0           0           0           0           0           0
           0           0           0           0           0           0
           0           0           0           0           0           0
Number of primitives per shell             I   N=          48
           6           3           1           1           6           3
           1           1           6           3           1           1
           6           3           1           1           6           3
           1           1           6           3           1           1
           6           3           1           1           3           1
           3           1           3           1           3           1
           3           1           3           1           3           1
           3           1           3           1           3           1
Shell to atom map                          I   N=          48
           1           1           1           1           2           2
           2           2           3           3           3           3
           4           4           4           4           5           5
           5           5           6           6           6           6
           7           7           7           7           8           8
           9           9          10          10          11          11
          12          12          13          13          14          14
          15          15          16          16          17          17
Primitive exponents                        R   N=         117
  5.48467166E+03  8.25234946E+02  1.88046958E+02  5.29645000E+01  1.68975704E+01
  5.79963534E+00  1.55396162E+01  3.59993359E+00  1.01376175E+00  2.70005823E-01
  8.00000000E-01  5.48467166E+03  8.25234946E+02  1.88046958E+02  5.29645000E+01
  1.68975704E+01  5.79963534E+00  1.55396162E+01  3.59993359E+00  1.01376175E+00
  2.70005823E-01  8.00000000E-01  3.04752488E+03  4.57369518E+02  1.03948685E+02
  2.92101553E+01  9.28666296E+00  3.16392696E+00  7.86827235E+00  1.88128854E+00
  5.44249258E-01  1.68714478E-01  8.00000000E-01  3.04752488E+03  4.57369518E+02
  1.03948685E+02  2.92101553E+01  9.28666296E+00  3.16392696E+00  7.86827235E+00
  1.88128854E+00  5.44249258E-01  1.68714478E-01  8.00000000E-01  3.04752488E+03
  4.57369518E+02  1.03948685E+02  2.92101553E+01  9.28666296E+00  3.16392696E+00
  7.86827235E+00  1.88128854E+00  5.44249258E-01  1.68714478E-01  8.00000000E-01
  3.04752488E+03  4.57369518E+02  1.03948685E+02  2.92101553E+01  9.28666296E+00
  3.16392696E+00  7.86827235E+00  1.88128854E+00  5.44249258E-01  1.68714478E-01
  8.00000000E-01  3.04752488E+03  4.57369518E+02  1.03948685E+02  2.92101553E+01
  9.28666296E+00  3.16392696E+00  7.86827235E+00  1.88128854E+00  5.44249258E-01
  1.68714478E-01  8.00000000E-01  1.87311370E+01  2.82539436E+00  6.40121692E-01
  1.61277759E-01  1.87311370E+01  2.82539436E+00  6.40121692E-01  1.61277759E-01
  1.87311370E+01  2.82539436E+00  6.40121692E-01  1.61277759E-01  1.87311370E+01
  2.82539436E+00  6.40121692E-01  1.61277759E-01  1.87311370E+01  2.82539436E+00
  6.40121692E-01  1.61277759E-01  1.87311370E+01  2.82539436E+00  6.40121692E-01
  1.61277759E-01  1.87311370E+01  2.82539436E+00  6.40121692E-01  1.61277759E-01
  1.87311370E+01  2.82539436E+00  6.40121692E-01  1.61277759E-01  1.87311370E+01
  2.82539436E+00  6.40121692E-01  1.61277759E-01  1.87311370E+01  2.82539436E+00
  6.40121692E-01  1.61277759E-01
Contraction coefficients                   R   N=         117
  1.83107443E-03  1.39501722E-02  6.84450781E-02  2.32714336E-01  4.70192898E-01
  3.58520853E-01 -1.10777550E-01 -1.48026263E-01  1.13076702E+00  1.00000000E+00
  1.00000000E+00  1.83107443E-03  1.39501722E-02  6.84450781E-02  2.32714336E-01
  4.70192898E-01  3.58520853E-01 -1.10777550E-01 -1.48026263E-01  1.13076702E+00
  1.00000000E+00  1.00000000E+00  1.83473713E-03  1.40373228E-02  6.88426223E-02
  2.32184443E-01  4.67941348E-01  3.62311985E-01 -1.19332420E-01 -1.60854152E-01
  1.14345644E+00  1.00000000E+00  1.00000000E+00  1.83473713E-03  1.40373228E-02
  6.88426223E-02  2.32184443E-01  4.67941348E-01  3.62311985E-01 -1.19332420E-01
 -1.60854152E-01  1.14345644E+00  1.00000000E+00  1.00000000E+00  1.83473713E-03
  1.40373228E-02  6.88426223E-02  2.32184443E-01  4.67941348E-01  3.62311985E-01
 -1.19332420E-01 -1.60854152E-01  1.14345644E+00  1.00000000E+00  1.00000000E+00
  1.83473713E-03  1.40373228E-02  6.88426223E-02  2.32184443E-01  4.67941348E-01
  3.62311985E-01 -1.19332420E-01 -1.60854152E-01  1.14345644E+00  1.00000000E+00
  1.00000000E+00  1.83473713E-03  1.40373228E-02  6.88426223E-02  2.32184443E-01
  4.67941348E-01  3.62311985E-01 -1.19332420E-01 -1.60854152E-01  1.14345644E+00
  1.00000000E+00  1.00000000E+00  3.34946043E-02  2.34726953E-01  8.13757326E-01
  1.00000000E+00  3.34946043E-02  2.34726953E-01  8.13757326E-01  1.00000000E+00
  3.34946043E-02  2.34726953E-01  8.13757326E-01  1.00000000E+00  3.34946043E-02
  2.34726953E-01  8.13757326E-01  1.00000000E+00  3.34946043E-02  2.34726953E-01
  8.13757326E-01  1.00000000E+00  3.34946043E-02  2.34726953E-01  8.13757326E-01
  1.00000000E+00  3.34946043E-02  2.34726953E-01  8.13757326E-01  1.00000000E+00
  3.34946043E-02  2.34726953E-01  8.13757326E-01  1.00000000E+00  3.34946043E-02
  2.34726953E-01  8.13757326E-01  1.00000000E+00  3.34946043E-02  2.34726953E-01
  8.13757326E-01  1.00000000E+00
P(S=P) Contraction coefficients            R   N=         117
  0.00000000E+00  0.00000000E+00  0.00000000E+00  0.00000000E+00  0.00000000E+00
  0.00000000E+00  7.08742682E-02  3.39752839E-01  7.27158577E-01  1.00000000E+00
  0.00000000E+00  0.00000000E+00  0.00000000E+00  0.00000000E+00  0.00000000E+00
  0.00000000E+00  0.00000000E+00  7.08742682E-02  3.39752839E-01  7.27158577E-01
  1.00000000E+00  0.00000000E+00  0.00000000E+00  0.00000000E+00  0.00000000E+00
  0.00000000E+00  0.00000000E+00  0.00000000E+00  6.89990666E-02  3.16423961E-01
  7.44308291E-01  1.00000000E+00  0.00000000E+00  0.00000000E+00  0.00000000E+00
  0.00000000E+00  0.00000000E+00  0.00000000E+00  0.00000000E+00  6.89990666E-02
  3.16423961E-01  7.44308291E-01  1.00000000E+00  0.00000000E+00  0.00000000E+00
  0.00000000E+00  0.00000000E+00  0.00000000E+00  0.00000000E+00  0.00000000E+00
  6.89990666E-02  3.16423961E-01  7.44308291E-01  1.00000000E+00  0.00000000E+00
  0.00000000E+00  0.00000000E+00  0.00000000E+00  0.00000000E+00  0.00000000E+00
  0.00000000E+00  6.89990666E-02  3.16423961E-01  7.44308291E-01  1.00000000E+00
  0.00000000E+00  0.00000000E+00  0.00000000E+00  0.00000000E+00  0.00000000E+00
  0.00000000E+00  0.00000000E+00  6.89990666E-02  3.16423961E-01  7.44308291E-01
  1.00000000E+00  0.00000000E+00  0.00000000E+00  0.00000000E+00  0.00000000E+00
  0.00000000E+00  0.00000000E+00  0.00000000E+00  0.00000000E+00  0.00000000E+00
  0.00000000E+00  0.00000000E+00  0.00000000E+00  0.00000000E+00  0.00000000E+00
  0.00000000E+00  0.00000000E+00  0.00000000E+00  0.00000000E+00  0.00000000E+00
  0.00000000E+00  0.00000000E+00  0.00000000E+00  0.00000000E+00  0.00000000E+00
  0.00000000E+00  0.00000000E+00  0.00000000E+00  0.00000000E+00  0.00000000E+00
  0.00000000E+00  0.00000000E+00  0.00000000E+00  0.00000000E+00  0.00000000E+00
  0.00000000E+00  0.00000000E+00  0.00000000E+00  0.00000000E+00  0.00000000E+00
  0.00000000E+00  0.00000000E+00
Coordinates of each shell                  R   N=         144
  1.32171471E+00 -8.50488815E-01  1.26787988E-05  1.32171471E+00 -8.50488815E-01
  1.26787988E-05  1.32171471E+00 -8.50488815E-01  1.26787988E-05  1.32171471E+00
 -8.50488815E-01  1.26787988E-05 -1.18759436E+00  2.63531617E+00  4.36700739E-06
 -1.18759436E+00  2.63531617E+00  4.36700739E-06 -1.18759436E+00  2.63531617E+00
  4.36700739E-06 -1.18759436E+00  2.63531617E+00  4.36700739E-06 -3.08362849E+00
 -1.55313168E+00  2.11526333E-05 -3.08362849E+00 -1.55313168E+00  2.11526333E-05
 -3.08362849E+00 -1.55313168E+00  2.11526333E-05 -3.08362849E+00 -1.55313168E+00
  2.11526333E-05  3.48837249E+00  8.22612874E-01  7.30373516E-06  3.48837249E+00
  8.22612874E-01  7.30373516E-06  3.48837249E+00  8.22612874E-01  7.30373516E-06
  3.48837249E+00  8.22612874E-01  7.30373516E-06 -9.49874449E-01  3.41093306E-01
  9.85289228E-06 -9.49874449E-01  3.41093306E-01  9.85289228E-06 -9.49874449E-01
  3.41093306E-01  9.85289228E-06 -9.49874449E-01  3.41093306E-01  9.85289228E-06
 -5.66668955E+00 -2.87775761E-01 -2.79346203E-05 -5.66668955E+00 -2.87775761E-01
 -2.79346203E-05 -5.66668955E+00 -2.87775761E-01 -2.79346203E-05 -5.66668955E+00
 -2.87775761E-01 -2.79346203E-05  5.80817367E+00 -8.44302025E-01 -2.11057376E-05
  5.80817367E+00 -8.44302025E-01 -2.11057376E-05  5.80817367E+00 -8.44302025E-01
 -2.11057376E-05  5.80817367E+00 -8.44302025E-01 -2.11057376E-05 -2.83664793E+00
 -2.77788716E+00 -1.65111025E+00 -2.83664793E+00 -2.77788716E+00 -1.65111025E+00
 -2.83668143E+00 -2.77781781E+00  1.65120989E+00 -2.83668143E+00 -2.77781781E+00
  1.65120989E+00  3.39622853E+00  2.03727059E+00 -1.66912101E+00  3.39622853E+00
  2.03727059E+00 -1.66912101E+00  3.39625387E+00  2.03724731E+00  1.66915432E+00
  3.39625387E+00  2.03724731E+00  1.66915432E+00 -5.89569553E+00  9.08405855E-01
 -1.66513017E+00 -5.89569553E+00  9.08405855E-01 -1.66513017E+00 -7.16374860E+00
 -1.71089061E+00 -1.03955272E-04 -7.16374860E+00 -1.71089061E+00 -1.03955272E-04
 -5.89579927E+00  9.08331181E-01  1.66511407E+00 -5.89579927E+00  9.08331181E-01
  1.66511407E+00  7.51400305E+00  3.22570327E-01 -2.38170909E-05  7.51400305E+00
  3.22570327E-01 -2.38170909E-05  5.83551271E+00 -2.04842723E+00  1.67567830E+00
  5.83551271E+00 -2.04842723E+00  1.67567830E+00  5.83548968E+00 -2.04840154E+00
 -1.67573935E+00  5.83548968E+00 -2.04840154E+00 -1.67573935E+00
Constraint Structure                       R   N=          51
  1.32171471E+00 -8.50488815E-01  1.26787988E-05 -1.18759436E+00  2.63531617E+00
  4.36700739E-06 -3.08362849E+00 -1.55313168E+00  2.11526333E-05  3.48837249E+00
  8.22612874E-01  7.30373516E-06 -9.49874449E-01  3.41093306E-01  9.85289228E-06
 -5.66668955E+00 -2.87775761E-01 -2.79346203E-05  5.80817367E+00 -8.44302025E-01
 -2.11057376E-05 -2.83664793E+00 -2.77788716E+00 -1.65111025E+00 -2.83668143E+00
 -2.77781781E+00  1.65120989E+00  3.39622853E+00  2.03727059E+00 -1.66912101E+00
  3.39625387E+00  2.03724731E+00  1.66915432E+00 -5.89569553E+00  9.08405855E-01
 -1.66513017E+00 -7.16374860E+00 -1.71089061E+00 -1.03955272E-04 -5.89579927E+00
  9.08331181E-01  1.66511407E+00  7.51400305E+00  3.22570327E-01 -2.38170909E-05
  5.83551271E+00 -2.04842723E+00  1.67567830E+00  5.83548968E+00 -2.04840154E+00
 -1.67573935E+00
Num ILSW                                   I              100
ILSW                                       I   N=         100
           0           1           0           1           2           0
           0           0           0           0           0          -1
           0           0           0           0           0           0
           0           0           0           0           1           0
           1           0           0           0           0           0
           0           0      100000           0          -1           0
           0           0           0           0           0           0
           0           0           0           1           1           0
           0           0           1           0           0           0
           0           0           4          40           0           0
           0           0           0           0           0           0
           0           0           0           0           0           0
           0           0           0           0           0           0
           0           0           0           0           0           0
           0           0           0           0           0           0
           0           0           0           0           0           0
           0           0           0           0
Num RLSW                                   I               40
RLSW                                       R   N=          40
  1.00000000E+00  1.00000000E+00  1.00000000E+00  1.00000000E+00  1.00000000E+00
  0.00000000E+00  0.00000000E+00  1.00000000E+00  0.00000000E+00  0.00000000E+00
  0.00000000E+00  0.00000000E+00  1.00000000E+00  0.00000000E+00  0.00000000E+00
  0.00000000E+00  0.00000000E+00  1.00000000E+00  0.00000000E+00  0.00000000E+00
  0.00000000E+00  0.00000000E+00  1.00000000E+00  0.00000000E+00  0.00000000E+00
  0.00000000E+00  0.00000000E+00  1.00000000E+00  0.00000000E+00  0.00000000E+00
  0.00000000E+00  0.00000000E+00  0.00000000E+00  0.00000000E+00  0.00000000E+00
  0.00000000E+00  0.00000000E+00  0.00000000E+00  1.00000000E+00  1.00000000E+00
MxBond                                     I                4
NBond                                      I   N=          17
           2           1           4           4           3           4
           4           1           1           1           1           1
           1           1           1           1           1
IBond                                      I   N=          68
           4           5           0           0           5           0
           0           0           5           6           8           9
           1           7          10          11           1           2
           3           0           3          12          13          14
           4          15          16          17           3           0
           0           0           3           0           0           0
           4           0           0           0           4           0
           0           0           6           0           0           0
           6           0           0           0           6           0
           0           0           7           0           0           0
           7           0           0           0           7           0
           0           0
RBond                                      R   N=          68
  1.00000000E+00  1.50000000E+00  0.00000000E+00  0.00000000E+00  2.00000000E+00
  0.00000000E+00  0.00000000E+00  0.00000000E+00  1.00000000E+00  1.00000000E+00
  1.00000000E+00  1.00000000E+00  1.00000000E+00  1.00000000E+00  1.00000000E+00
  1.00000000E+00  1.50000000E+00  2.00000000E+00  1.00000000E+00  0.00000000E+00
  1.00000000E+00  1.00000000E+00  1.00000000E+00  1.00000000E+00  1.00000000E+00
  1.00000000E+00  1.00000000E+00  1.00000000E+00  1.00000000E+00  0.00000000E+00
  0.00000000E+00  0.00000000E+00  1.00000000E+00  0.00000000E+00  0.00000000E+00
  0.00000000E+00  1.00000000E+00  0.00000000E+00  0.00000000E+00  0.00000000E+00
  1.00000000E+00  0.00000000E+00  0.00000000E+00  0.00000000E+00  1.00000000E+00
  0.00000000E+00  0.00000000E+00  0.00000000E+00  1.00000000E+00  0.00000000E+00
  0.00000000E+00  0.00000000E+00  1.00000000E+00  0.00000000E+00  0.00000000E+00
  0.00000000E+00  1.00000000E+00  0.00000000E+00  0.00000000E+00  0.00000000E+00
  1.00000000E+00  0.00000000E+00  0.00000000E+00  0.00000000E+00  1.00000000E+00
  0.00000000E+00  0.00000000E+00  0.00000000E+00
Virial Ratio                               R      2.002435974202028E+00
SCF Energy                                 R     -3.449081999596765E+02
MP2 Energy                                 R     -3.459103796083325E+02
Total Energy                               R     -3.459103796083325E+02
Post-SCF wavefunction norm                 R      1.620617970355272E+00
RMS Force                                  R      3.181895414373857E-07
RMS Density                                R      1.299400057799997E-09
External E-field                           R   N=          35
  0.00000000E+00  0.00000000E+00  0.00000000E+00  0.00000000E+00  0.00000000E+00
  0.00000000E+00  0.00000000E+00  0.00000000E+00  0.00000000E+00  0.00000000E+00
  0.00000000E+00  0.00000000E+00  0.00000000E+00  0.00000000E+00  0.00000000E+00
  0.00000000E+00  0.00000000E+00  0.00000000E+00  0.00000000E+00  0.00000000E+00
  0.00000000E+00  0.00000000E+00  0.00000000E+00  0.00000000E+00  0.00000000E+00
  0.00000000E+00  0.00000000E+00  0.00000000E+00  0.00000000E+00  0.00000000E+00
  0.00000000E+00  0.00000000E+00  0.00000000E+00  0.00000000E+00  0.00000000E+00
IOpCl                                      I                0
IROHF                                      I                0
Alpha Orbital Energies                     R   N=         125
 -2.06038246E+01 -2.05496497E+01 -1.13802289E+01 -1.12879533E+01 -1.12436669E+01
 -1.12250927E+01 -1.12199361E+01 -1.44742437E+00 -1.34701890E+00 -1.06848146E+00
 -1.02891257E+00 -9.05833673E-01 -8.41931506E-01 -7.66721021E-01 -6.91557873E-01
 -6.80573519E-01 -6.56981399E-01 -6.28043875E-01 -5.78362793E-01 -5.66611759E-01
 -5.56907811E-01 -5.20806166E-01 -5.17782569E-01 -5.10663859E-01 -5.07761572E-01
 -4.88901972E-01 -4.51758124E-01 -4.38153802E-01  1.85972030E-01  2.35002547E-01
  2.47088145E-01  2.91955154E-01  2.96372453E-01  2.97411089E-01  3.07653185E-01
  3.10188002E-01  3.18489391E-01  3.41064832E-01  3.41134585E-01  3.61774583E-01
  4.10124567E-01  4.12267906E-01  4.39698279E-01  5.02690950E-01  5.46366953E-01
  7.26532305E-01  7.30626555E-01  7.40053389E-01  7.42158895E-01  7.54618273E-01
  7.85223393E-01  7.86483477E-01  8.32738184E-01  8.95998985E-01  8.97921731E-01
  9.10828609E-01  9.41808169E-01  9.77745741E-01  1.00059311E+00  1.01748120E+00
  1.07446297E+00  1.11377976E+00  1.12169841E+00  1.12193007E+00  1.15399305E+00
  1.16930748E+00  1.17178262E+00  1.17408690E+00  1.18624094E+00  1.19850544E+00
  1.21642496E+00  1.23327976E+00  1.24196518E+00  1.30749866E+00  1.32352165E+00
  1.40876305E+00  1.41485847E+00  1.53119837E+00  1.62582240E+00  1.63497146E+00
  1.64880511E+00  1.68768406E+00  1.76512906E+00  1.78545405E+00  1.82564934E+00
  1.88948745E+00  1.96911707E+00  2.04044687E+00  2.07727436E+00  2.09294100E+00
  2.14790075E+00  2.17364182E+00  2.19108069E+00  2.20583809E+00  2.26080951E+00
  2.27021140E+00  2.31454839E+00  2.31857105E+00  2.35642496E+00  2.45028348E+00
  2.46509716E+00  2.51533106E+00  2.53695527E+00  2.63056224E+00  2.64579386E+00
  2.66490963E+00  2.67494802E+00  2.68512830E+00  2.74419209E+00  2.80425115E+00
  2.88657581E+00  2.96681467E+00  3.01909807E+00  3.03412604E+00  3.11883437E+00
  3.31308687E+00  3.42509076E+00  3.52727131E+00  4.40147777E+00  4.54594046E+00
  4.58189433E+00  4.63217630E+00  4.74976754E+00  4.84236199E+00  4.95246887E+00
Alpha MO coefficients                      R   N=       15625
  9.94651366E-01  2.12409989E-02 -2.19457482E-04  1.19798503E-03 -2.84180196E-09
  3.72962012E-03 -1.61468955E-05 -7.87823996E-04  1.62712364E-09 -4.17706843E-03
 -4.07395774E-03 -3.90961980E-03 -6.00893510E-05  1.40003065E-10  7.20943458E-10
 -2.99489901E-04  3.49521094E-05 -2.79401937E-05  2.77378135E-05  1.49909303E-10
 -3.01096383E-04 -9.43616504E-05  7.83848998E-05 -1.08703962E-09  1.79692976E-06
 -3.36147245E-06  4.32827124E-06  7.17385443E-05 -1.58892570E-10  1.33968457E-10
 -4.31442888E-06  3.19438560E-05  1.58513609E-05 -1.41078455E-05  8.82693264E-10
  3.97077774E-04 -3.16016050E-04  1.56117446E-04 -7.44488905E-09 -7.48793626E-05
 -6.89271364E-06 -3.04448240E-05 -3.44509240E-05  9.36027272E-10 -8.05460920E-10
 -2.19991762E-05  1.30755940E-04 -2.97421993E-04 -2.44957717E-04  9.45414004E-10
  3.95672884E-04  1.21392075E-05  2.47714022E-05 -3.80908510E-09  1.02610468E-04
  2.78105999E-05 -4.75654779E-05  9.94466199E-05 -4.66489984E-10 -2.05089237E-10
  2.11522462E-06  3.72532430E-04  3.21383865E-04 -1.49113816E-04  3.84533365E-10
  2.82600850E-05  1.20223189E-04  3.18743137E-04  1.12078684E-09 -3.12796520E-05
  7.31270926E-06 -4.72695620E-05  4.22373814E-05 -2.45060687E-10 -3.02030654E-10
  6.76054942E-06  3.86789765E-05 -1.15895888E-05  9.25427271E-07  3.69017196E-10
 -3.84419710E-04 -1.54386943E-04  9.09578665E-05 -5.46893926E-09 -5.56668871E-06
  8.78627553E-06  1.00382939E-05  2.54439328E-06 -2.66215354E-10 -3.94461355E-10
  1.07604016E-05  9.66850017E-05 -1.53346082E-05 -2.28698737E-05 -1.96346386E-10
 -2.05696555E-04  3.20311261E-04  8.61855306E-05  2.62121059E-10 -5.49699300E-05
  1.38156314E-05 -2.77499906E-06  1.35052770E-05  4.28057738E-10  1.53217485E-10
  3.22704954E-05 -3.91751593E-05  3.22689541E-05 -3.91681082E-05 -3.94699930E-05
 -1.03145162E-04 -3.94689331E-05 -1.03142462E-04  1.48325256E-05 -4.40732047E-06
  1.50863714E-05  1.18826607E-05  1.48330840E-05 -4.40401309E-06 -1.06165341E-05
 -1.48898353E-04  5.00129461E-05 -5.19347064E-06  5.00127783E-05 -5.19107295E-06
  2.98306796E-04 -5.72682876E-05  2.11059185E-05 -3.36997131E-05 -1.41947058E-10
  2.35836755E-04 -1.37789716E-04  5.63690366E-05  1.08980091E-09  6.86292502E-05
 -9.79929103E-05 -7.60897871E-05  3.82647558E-05 -7.72470854E-11  2.23520246E-10
  9.94694544E-01  2.10047353E-02  1.91472082E-04 -1.55363189E-03  3.37847818E-09
  4.34277355E-03  4.31724888E-06  6.83846982E-05 -1.66927830E-10 -3.89592703E-03
 -3.59384321E-03 -4.13143150E-03 -3.04413094E-05  2.81659925E-10 -1.60200150E-09
 -4.58867305E-06 -3.01571338E-05  1.75967168E-05 -1.92886077E-05 -1.64343435E-10
  1.57600724E-04 -9.60185619E-05  4.72378851E-05  1.73840723E-09  6.40823211E-05
 -5.69582052E-05 -2.04694414E-05 -4.81259855E-06 -2.88634766E-10 -1.17959638E-10
 -5.38744637E-06  8.49869551E-06 -1.68775479E-06  1.77685243E-05  3.47735223E-10
  1.76264689E-04  1.23049636E-04 -6.79337135E-05 -3.16197347E-09 -3.18310053E-05
 -2.97052100E-05 -1.88802311E-05 -1.14855318E-05 -1.21305623E-10  1.46196658E-10
 -3.99729916E-06  4.99466462E-04 -8.76282237E-06 -5.19955618E-05  3.59279767E-10
 -4.47806387E-04 -4.59287099E-05 -2.91111403E-04 -9.51734538E-10 -8.83739667E-05
 -8.01689671E-04 -3.76887150E-05  1.10018716E-04 -2.16663415E-10  2.25556603E-09
  6.03639534E-06  3.43266482E-05  1.04857548E-05  2.08824502E-05  1.35093019E-09
 -1.35243750E-04 -1.51307571E-04 -3.60203539E-05 -1.06357953E-08 -3.63927601E-06
 -1.73769742E-07  5.81742002E-06  1.42847584E-05 -2.44508786E-11  8.14393080E-10
  1.88037862E-06  8.12885381E-06  7.67851382E-06 -1.64165911E-06  7.55278749E-11
 -1.51936607E-04  3.07910858E-05 -5.34872052E-05 -7.66110520E-10  3.69296178E-06
 -5.90489502E-07  2.97070410E-06  1.51769774E-06 -1.09459025E-10  1.51836190E-11
  3.66272488E-06 -2.56531910E-05  3.66181806E-06 -2.56540726E-05  2.05226100E-05
 -5.34728759E-05  2.05223295E-05 -5.34680386E-05  3.05067572E-05 -2.29242253E-05
 -6.36699360E-06 -5.86183705E-05  3.05050490E-05 -2.29111444E-05  6.30566250E-06
  2.02667259E-05  2.05068135E-06  1.44944441E-06  2.05067293E-06  1.44900430E-06
 -5.22448142E-05  8.46903568E-04 -1.36616247E-04  2.11737260E-04  1.10536779E-10
 -2.63572120E-03  1.11543911E-03 -1.84305178E-03  3.29996579E-09 -4.20580195E-04
  2.83554759E-05  6.21989126E-04  4.31818610E-04 -9.34807993E-10  2.32379888E-09
 -2.74256037E-04  6.30214441E-04  9.08976519E-05 -2.80866279E-04  5.11393463E-10
 -2.97045505E-03 -9.01559491E-04  1.62200028E-03 -2.60142036E-09  1.57647671E-04
  5.78806898E-05  4.31150251E-04  1.79065720E-04 -5.84719194E-10  7.00774689E-10
  2.20628487E-03  2.00211267E-04 -8.08507266E-05 -9.04122752E-05  3.38640237E-09
  2.94979893E-03  1.83853709E-03  1.05174820E-03 -2.75209050E-08 -4.01810128E-04
 -2.96871764E-04 -8.43854609E-05 -1.70522705E-04  6.81729563E-10  3.12023074E-09