088_DiethylDisulfide Gaussian SP Calculation on node142.bme.utexas.edu  
Freq      RMP2-FC                                                     6-31G(d)            
Number of atoms                            I               16
Info1-9                                    I   N=           9
          27          26        1002           0           0         100
           6           2           1
Charge                                     I                0
Multiplicity                               I                1
Number of electrons                        I               66
Number of alpha electrons                  I               33
Number of beta electrons                   I               33
Number of basis functions                  I              118
Number of independent functions            I              118
Number of point charges in /Mol/           I                0
Number of translation vectors              I                0
Atomic numbers                             I   N=          16
          16          16           6           6           6           6
           1           1           1           1           1           1
           1           1           1           1
Nuclear charges                            R   N=          16
  1.60000000E+01  1.60000000E+01  6.00000000E+00  6.00000000E+00  6.00000000E+00
  6.00000000E+00  1.00000000E+00  1.00000000E+00  1.00000000E+00  1.00000000E+00
  1.00000000E+00  1.00000000E+00  1.00000000E+00  1.00000000E+00  1.00000000E+00
  1.00000000E+00
Current cartesian coordinates              R   N=          48
 -1.25771243E+00 -2.30657943E-01 -1.47142816E+00  1.79328612E+00 -2.06449580E+00
  8.65581774E-02 -3.42772773E+00 -5.73363042E-02  1.19916563E+00  3.61151025E+00
  5.28206103E-01  1.44327999E+00 -5.86897799E+00  1.20590787E+00  3.39954153E-01
  4.77599632E+00  2.28212666E+00 -5.11935045E-01 -3.78602377E+00 -1.97136761E+00
  1.88560164E+00 -2.54756257E+00  1.02475756E+00  2.72394488E+00  2.41034196E+00
  1.57030164E+00  2.76458954E+00  5.08039338E+00 -4.13591263E-01  2.55868966E+00
 -5.51919553E+00  3.12440569E+00 -3.40836746E-01 -6.76735137E+00  1.31343352E-01
 -1.17786911E+00 -7.19378554E+00  1.31632929E+00  1.92213958E+00  6.03696097E+00
  1.23837783E+00 -1.76999709E+00  3.30831252E+00  3.17671544E+00 -1.65551875E+00
  5.86392587E+00  3.77176204E+00  4.24387724E-01
Force Field                                I                0
Int Atom Types                             I   N=          16
           0           0           0           0           0           0
           0           0           0           0           0           0
           0           0           0           0
MM charges                                 R   N=          16
  0.00000000E+00  0.00000000E+00  0.00000000E+00  0.00000000E+00  0.00000000E+00
  0.00000000E+00  0.00000000E+00  0.00000000E+00  0.00000000E+00  0.00000000E+00
  0.00000000E+00  0.00000000E+00  0.00000000E+00  0.00000000E+00  0.00000000E+00
  0.00000000E+00
Integer atomic weights                     I   N=          16
          32          32          12          12          12          12
           1           1           1           1           1           1
           1           1           1           1
Real atomic weights                        R   N=          16
  3.19720718E+01  3.19720718E+01  1.20000000E+01  1.20000000E+01  1.20000000E+01
  1.20000000E+01  1.00782504E+00  1.00782504E+00  1.00782504E+00  1.00782504E+00
  1.00782504E+00  1.00782504E+00  1.00782504E+00  1.00782504E+00  1.00782504E+00
  1.00782504E+00
Atom fragment info                         I   N=          16
           0           0           0           0           0           0
           0           0           0           0           0           0
           0           0           0           0
Atom residue num                           I   N=          16
           0           0           0           0           0           0
           0           0           0           0           0           0
           0           0           0           0
Nuclear spins                              I   N=          16
           0           0           0           0           0           0
           1           1           1           1           1           1
           1           1           1           1
Nuclear ZEff                               R   N=          16
 -1.36000000E+01 -1.36000000E+01 -3.60000000E+00 -3.60000000E+00 -3.60000000E+00
 -3.60000000E+00 -1.00000000E+00 -1.00000000E+00 -1.00000000E+00 -1.00000000E+00
 -1.00000000E+00 -1.00000000E+00 -1.00000000E+00 -1.00000000E+00 -1.00000000E+00
 -1.00000000E+00
Nuclear QMom                               R   N=          16
  0.00000000E+00  0.00000000E+00  0.00000000E+00  0.00000000E+00  0.00000000E+00
  0.00000000E+00  0.00000000E+00  0.00000000E+00  0.00000000E+00  0.00000000E+00
  0.00000000E+00  0.00000000E+00  0.00000000E+00  0.00000000E+00  0.00000000E+00
  0.00000000E+00
Nuclear GFac                               R   N=          16
  0.00000000E+00  0.00000000E+00  0.00000000E+00  0.00000000E+00  0.00000000E+00
  0.00000000E+00  2.79284600E+00  2.79284600E+00  2.79284600E+00  2.79284600E+00
  2.79284600E+00  2.79284600E+00  2.79284600E+00  2.79284600E+00  2.79284600E+00
  2.79284600E+00
MicOpt                                     I   N=          16
          -1          -1          -1          -1          -1          -1
          -1          -1          -1          -1          -1          -1
          -1          -1          -1          -1
Number of contracted shells                I               46
Number of primitive shells                 I              118
Pure/Cartesian d shells                    I                1
Pure/Cartesian f shells                    I                0
Highest angular momentum                   I                2
Largest degree of contraction              I                6
Shell types                                I   N=          46
           0          -1          -1          -1           2           0
          -1          -1          -1           2           0          -1
          -1           2           0          -1          -1           2
           0          -1          -1           2           0          -1
          -1           2           0           0           0           0
           0           0           0           0           0           0
           0           0           0           0           0           0
           0           0           0           0
Number of primitives per shell             I   N=          46
           6           6           3           1           1           6
           6           3           1           1           6           3
           1           1           6           3           1           1
           6           3           1           1           6           3
           1           1           3           1           3           1
           3           1           3           1           3           1
           3           1           3           1           3           1
           3           1           3           1
Shell to atom map                          I   N=          46
           1           1           1           1           1           2
           2           2           2           2           3           3
           3           3           4           4           4           4
           5           5           5           5           6           6
           6           6           7           7           8           8
           9           9          10          10          11          11
          12          12          13          13          14          14
          15          15          16          16
Primitive exponents                        R   N=         118
  2.19171000E+04  3.30149000E+03  7.54146000E+02  2.12711000E+02  6.79896000E+01
  2.30515000E+01  4.23735000E+02  1.00710000E+02  3.21599000E+01  1.18079000E+01
  4.63110000E+00  1.87025000E+00  2.61584000E+00  9.22167000E-01  3.41287000E-01
  1.17167000E-01  6.50000000E-01  2.19171000E+04  3.30149000E+03  7.54146000E+02
  2.12711000E+02  6.79896000E+01  2.30515000E+01  4.23735000E+02  1.00710000E+02
  3.21599000E+01  1.18079000E+01  4.63110000E+00  1.87025000E+00  2.61584000E+00
  9.22167000E-01  3.41287000E-01  1.17167000E-01  6.50000000E-01  3.04752488E+03
  4.57369518E+02  1.03948685E+02  2.92101553E+01  9.28666296E+00  3.16392696E+00
  7.86827235E+00  1.88128854E+00  5.44249258E-01  1.68714478E-01  8.00000000E-01
  3.04752488E+03  4.57369518E+02  1.03948685E+02  2.92101553E+01  9.28666296E+00
  3.16392696E+00  7.86827235E+00  1.88128854E+00  5.44249258E-01  1.68714478E-01
  8.00000000E-01  3.04752488E+03  4.57369518E+02  1.03948685E+02  2.92101553E+01
  9.28666296E+00  3.16392696E+00  7.86827235E+00  1.88128854E+00  5.44249258E-01
  1.68714478E-01  8.00000000E-01  3.04752488E+03  4.57369518E+02  1.03948685E+02
  2.92101553E+01  9.28666296E+00  3.16392696E+00  7.86827235E+00  1.88128854E+00
  5.44249258E-01  1.68714478E-01  8.00000000E-01  1.87311370E+01  2.82539436E+00
  6.40121692E-01  1.61277759E-01  1.87311370E+01  2.82539436E+00  6.40121692E-01
  1.61277759E-01  1.87311370E+01  2.82539436E+00  6.40121692E-01  1.61277759E-01
  1.87311370E+01  2.82539436E+00  6.40121692E-01  1.61277759E-01  1.87311370E+01
  2.82539436E+00  6.40121692E-01  1.61277759E-01  1.87311370E+01  2.82539436E+00
  6.40121692E-01  1.61277759E-01  1.87311370E+01  2.82539436E+00  6.40121692E-01
  1.61277759E-01  1.87311370E+01  2.82539436E+00  6.40121692E-01  1.61277759E-01
  1.87311370E+01  2.82539436E+00  6.40121692E-01  1.61277759E-01  1.87311370E+01
  2.82539436E+00  6.40121692E-01  1.61277759E-01
Contraction coefficients                   R   N=         118
  1.86924085E-03  1.42303065E-02  6.96962317E-02  2.38487108E-01  4.83307220E-01
  3.38074154E-01 -2.37677050E-03 -3.16930067E-02 -1.13317024E-01  5.60900118E-02
  5.92255124E-01  4.55006095E-01 -2.50373114E-01  6.69567631E-02  1.05450627E+00
  1.00000000E+00  1.00000000E+00  1.86924085E-03  1.42303065E-02  6.96962317E-02
  2.38487108E-01  4.83307220E-01  3.38074154E-01 -2.37677050E-03 -3.16930067E-02
 -1.13317024E-01  5.60900118E-02  5.92255124E-01  4.55006095E-01 -2.50373114E-01
  6.69567631E-02  1.05450627E+00  1.00000000E+00  1.00000000E+00  1.83473713E-03
  1.40373228E-02  6.88426223E-02  2.32184443E-01  4.67941348E-01  3.62311985E-01
 -1.19332420E-01 -1.60854152E-01  1.14345644E+00  1.00000000E+00  1.00000000E+00
  1.83473713E-03  1.40373228E-02  6.88426223E-02  2.32184443E-01  4.67941348E-01
  3.62311985E-01 -1.19332420E-01 -1.60854152E-01  1.14345644E+00  1.00000000E+00
  1.00000000E+00  1.83473713E-03  1.40373228E-02  6.88426223E-02  2.32184443E-01
  4.67941348E-01  3.62311985E-01 -1.19332420E-01 -1.60854152E-01  1.14345644E+00
  1.00000000E+00  1.00000000E+00  1.83473713E-03  1.40373228E-02  6.88426223E-02
  2.32184443E-01  4.67941348E-01  3.62311985E-01 -1.19332420E-01 -1.60854152E-01
  1.14345644E+00  1.00000000E+00  1.00000000E+00  3.34946043E-02  2.34726953E-01
  8.13757326E-01  1.00000000E+00  3.34946043E-02  2.34726953E-01  8.13757326E-01
  1.00000000E+00  3.34946043E-02  2.34726953E-01  8.13757326E-01  1.00000000E+00
  3.34946043E-02  2.34726953E-01  8.13757326E-01  1.00000000E+00  3.34946043E-02
  2.34726953E-01  8.13757326E-01  1.00000000E+00  3.34946043E-02  2.34726953E-01
  8.13757326E-01  1.00000000E+00  3.34946043E-02  2.34726953E-01  8.13757326E-01
  1.00000000E+00  3.34946043E-02  2.34726953E-01  8.13757326E-01  1.00000000E+00
  3.34946043E-02  2.34726953E-01  8.13757326E-01  1.00000000E+00  3.34946043E-02
  2.34726953E-01  8.13757326E-01  1.00000000E+00
P(S=P) Contraction coefficients            R   N=         118
  0.00000000E+00  0.00000000E+00  0.00000000E+00  0.00000000E+00  0.00000000E+00
  0.00000000E+00  4.06100998E-03  3.06812999E-02  1.30451999E-01  3.27204999E-01
  4.52850998E-01  2.56041999E-01 -1.45104895E-02  3.10262776E-01  7.54482456E-01
  1.00000000E+00  0.00000000E+00  0.00000000E+00  0.00000000E+00  0.00000000E+00
  0.00000000E+00  0.00000000E+00  0.00000000E+00  4.06100998E-03  3.06812999E-02
  1.30451999E-01  3.27204999E-01  4.52850998E-01  2.56041999E-01 -1.45104895E-02
  3.10262776E-01  7.54482456E-01  1.00000000E+00  0.00000000E+00  0.00000000E+00
  0.00000000E+00  0.00000000E+00  0.00000000E+00  0.00000000E+00  0.00000000E+00
  6.89990666E-02  3.16423961E-01  7.44308291E-01  1.00000000E+00  0.00000000E+00
  0.00000000E+00  0.00000000E+00  0.00000000E+00  0.00000000E+00  0.00000000E+00
  0.00000000E+00  6.89990666E-02  3.16423961E-01  7.44308291E-01  1.00000000E+00
  0.00000000E+00  0.00000000E+00  0.00000000E+00  0.00000000E+00  0.00000000E+00
  0.00000000E+00  0.00000000E+00  6.89990666E-02  3.16423961E-01  7.44308291E-01
  1.00000000E+00  0.00000000E+00  0.00000000E+00  0.00000000E+00  0.00000000E+00
  0.00000000E+00  0.00000000E+00  0.00000000E+00  6.89990666E-02  3.16423961E-01
  7.44308291E-01  1.00000000E+00  0.00000000E+00  0.00000000E+00  0.00000000E+00
  0.00000000E+00  0.00000000E+00  0.00000000E+00  0.00000000E+00  0.00000000E+00
  0.00000000E+00  0.00000000E+00  0.00000000E+00  0.00000000E+00  0.00000000E+00
  0.00000000E+00  0.00000000E+00  0.00000000E+00  0.00000000E+00  0.00000000E+00
  0.00000000E+00  0.00000000E+00  0.00000000E+00  0.00000000E+00  0.00000000E+00
  0.00000000E+00  0.00000000E+00  0.00000000E+00  0.00000000E+00  0.00000000E+00
  0.00000000E+00  0.00000000E+00  0.00000000E+00  0.00000000E+00  0.00000000E+00
  0.00000000E+00  0.00000000E+00  0.00000000E+00  0.00000000E+00  0.00000000E+00
  0.00000000E+00  0.00000000E+00  0.00000000E+00
Coordinates of each shell                  R   N=         138
 -1.25771243E+00 -2.30657943E-01 -1.47142816E+00 -1.25771243E+00 -2.30657943E-01
 -1.47142816E+00 -1.25771243E+00 -2.30657943E-01 -1.47142816E+00 -1.25771243E+00
 -2.30657943E-01 -1.47142816E+00 -1.25771243E+00 -2.30657943E-01 -1.47142816E+00
  1.79328612E+00 -2.06449580E+00  8.65581774E-02  1.79328612E+00 -2.06449580E+00
  8.65581774E-02  1.79328612E+00 -2.06449580E+00  8.65581774E-02  1.79328612E+00
 -2.06449580E+00  8.65581774E-02  1.79328612E+00 -2.06449580E+00  8.65581774E-02
 -3.42772773E+00 -5.73363042E-02  1.19916563E+00 -3.42772773E+00 -5.73363042E-02
  1.19916563E+00 -3.42772773E+00 -5.73363042E-02  1.19916563E+00 -3.42772773E+00
 -5.73363042E-02  1.19916563E+00  3.61151025E+00  5.28206103E-01  1.44327999E+00
  3.61151025E+00  5.28206103E-01  1.44327999E+00  3.61151025E+00  5.28206103E-01
  1.44327999E+00  3.61151025E+00  5.28206103E-01  1.44327999E+00 -5.86897799E+00
  1.20590787E+00  3.39954153E-01 -5.86897799E+00  1.20590787E+00  3.39954153E-01
 -5.86897799E+00  1.20590787E+00  3.39954153E-01 -5.86897799E+00  1.20590787E+00
  3.39954153E-01  4.77599632E+00  2.28212666E+00 -5.11935045E-01  4.77599632E+00
  2.28212666E+00 -5.11935045E-01  4.77599632E+00  2.28212666E+00 -5.11935045E-01
  4.77599632E+00  2.28212666E+00 -5.11935045E-01 -3.78602377E+00 -1.97136761E+00
  1.88560164E+00 -3.78602377E+00 -1.97136761E+00  1.88560164E+00 -2.54756257E+00
  1.02475756E+00  2.72394488E+00 -2.54756257E+00  1.02475756E+00  2.72394488E+00
  2.41034196E+00  1.57030164E+00  2.76458954E+00  2.41034196E+00  1.57030164E+00
  2.76458954E+00  5.08039338E+00 -4.13591263E-01  2.55868966E+00  5.08039338E+00
 -4.13591263E-01  2.55868966E+00 -5.51919553E+00  3.12440569E+00 -3.40836746E-01
 -5.51919553E+00  3.12440569E+00 -3.40836746E-01 -6.76735137E+00  1.31343352E-01
 -1.17786911E+00 -6.76735137E+00  1.31343352E-01 -1.17786911E+00 -7.19378554E+00
  1.31632929E+00  1.92213958E+00 -7.19378554E+00  1.31632929E+00  1.92213958E+00
  6.03696097E+00  1.23837783E+00 -1.76999709E+00  6.03696097E+00  1.23837783E+00
 -1.76999709E+00  3.30831252E+00  3.17671544E+00 -1.65551875E+00  3.30831252E+00
  3.17671544E+00 -1.65551875E+00  5.86392587E+00  3.77176204E+00  4.24387724E-01
  5.86392587E+00  3.77176204E+00  4.24387724E-01
Constraint Structure                       R   N=          48
 -1.25771243E+00 -2.30657943E-01 -1.47142816E+00  1.79328612E+00 -2.06449580E+00
  8.65581774E-02 -3.42772773E+00 -5.73363042E-02  1.19916563E+00  3.61151025E+00
  5.28206103E-01  1.44327999E+00 -5.86897799E+00  1.20590787E+00  3.39954153E-01
  4.77599632E+00  2.28212666E+00 -5.11935045E-01 -3.78602377E+00 -1.97136761E+00
  1.88560164E+00 -2.54756257E+00  1.02475756E+00  2.72394488E+00  2.41034196E+00
  1.57030164E+00  2.76458954E+00  5.08039338E+00 -4.13591263E-01  2.55868966E+00
 -5.51919553E+00  3.12440569E+00 -3.40836746E-01 -6.76735137E+00  1.31343352E-01
 -1.17786911E+00 -7.19378554E+00  1.31632929E+00  1.92213958E+00  6.03696097E+00
  1.23837783E+00 -1.76999709E+00  3.30831252E+00  3.17671544E+00 -1.65551875E+00
  5.86392587E+00  3.77176204E+00  4.24387724E-01
Num ILSW                                   I              100
ILSW                                       I   N=         100
           0           1           0           0           2           0
           0           0           0           0           0          -1
           0           0           0           0           0           0
           0           0           0           0           1           0
           1           0           0           0           0           0
           0           0      100000           0          -1           0
           0           0           0           0           0           0
           0           0           0           1           1           0
           0           0           1           0           0           0
           0           0           4          40           0           0
           0           0           0           0           0           0
           0           0           0           0           0           0
           0           0           0           0           0           0
           0           0           0           0           0           0
           0           0           0           0           0           0
           0           0           0           0           0           0
           0           0           0           0
Num RLSW                                   I               40
RLSW                                       R   N=          40
  1.00000000E+00  1.00000000E+00  1.00000000E+00  1.00000000E+00  1.00000000E+00
  0.00000000E+00  0.00000000E+00  1.00000000E+00  0.00000000E+00  0.00000000E+00
  0.00000000E+00  0.00000000E+00  1.00000000E+00  0.00000000E+00  0.00000000E+00
  0.00000000E+00  0.00000000E+00  1.00000000E+00  0.00000000E+00  0.00000000E+00
  0.00000000E+00  0.00000000E+00  1.00000000E+00  0.00000000E+00  0.00000000E+00
  0.00000000E+00  0.00000000E+00  1.00000000E+00  0.00000000E+00  0.00000000E+00
  0.00000000E+00  0.00000000E+00  0.00000000E+00  0.00000000E+00  0.00000000E+00
  0.00000000E+00  0.00000000E+00  0.00000000E+00  1.00000000E+00  1.00000000E+00
MxBond                                     I                4
NBond                                      I   N=          16
           2           2           4           4           4           4
           1           1           1           1           1           1
           1           1           1           1
IBond                                      I   N=          64
           2           3           0           0           1           4
           0           0           1           5           7           8
           2           6           9          10           3          11
          12          13           4          14          15          16
           3           0           0           0           3           0
           0           0           4           0           0           0
           4           0           0           0           5           0
           0           0           5           0           0           0
           5           0           0           0           6           0
           0           0           6           0           0           0
           6           0           0           0
RBond                                      R   N=          64
  1.00000000E+00  1.00000000E+00  0.00000000E+00  0.00000000E+00  1.00000000E+00
  1.00000000E+00  0.00000000E+00  0.00000000E+00  1.00000000E+00  1.00000000E+00
  1.00000000E+00  1.00000000E+00  1.00000000E+00  1.00000000E+00  1.00000000E+00
  1.00000000E+00  1.00000000E+00  1.00000000E+00  1.00000000E+00  1.00000000E+00
  1.00000000E+00  1.00000000E+00  1.00000000E+00  1.00000000E+00  1.00000000E+00
  0.00000000E+00  0.00000000E+00  0.00000000E+00  1.00000000E+00  0.00000000E+00
  0.00000000E+00  0.00000000E+00  1.00000000E+00  0.00000000E+00  0.00000000E+00
  0.00000000E+00  1.00000000E+00  0.00000000E+00  0.00000000E+00  0.00000000E+00
  1.00000000E+00  0.00000000E+00  0.00000000E+00  0.00000000E+00  1.00000000E+00
  0.00000000E+00  0.00000000E+00  0.00000000E+00  1.00000000E+00  0.00000000E+00
  0.00000000E+00  0.00000000E+00  1.00000000E+00  0.00000000E+00  0.00000000E+00
  0.00000000E+00  1.00000000E+00  0.00000000E+00  0.00000000E+00  0.00000000E+00
  1.00000000E+00  0.00000000E+00  0.00000000E+00  0.00000000E+00
Virial Ratio                               R      2.000422924801022E+00
SCF Energy                                 R     -9.523181277500272E+02
MP2 Energy                                 R     -9.530895388236778E+02
Total Energy                               R     -9.530895388236778E+02
Post-SCF wavefunction norm                 R      1.604152437560581E+00
RMS Force                                  R      5.594573785405152E-07
RMS Density                                R      1.225565265641417E-09
External E-field                           R   N=          35
  0.00000000E+00  0.00000000E+00  0.00000000E+00  0.00000000E+00  0.00000000E+00
  0.00000000E+00  0.00000000E+00  0.00000000E+00  0.00000000E+00  0.00000000E+00
  0.00000000E+00  0.00000000E+00  0.00000000E+00  0.00000000E+00  0.00000000E+00
  0.00000000E+00  0.00000000E+00  0.00000000E+00  0.00000000E+00  0.00000000E+00
  0.00000000E+00  0.00000000E+00  0.00000000E+00  0.00000000E+00  0.00000000E+00
  0.00000000E+00  0.00000000E+00  0.00000000E+00  0.00000000E+00  0.00000000E+00
  0.00000000E+00  0.00000000E+00  0.00000000E+00  0.00000000E+00  0.00000000E+00
IOpCl                                      I                0
IROHF                                      I                0
Alpha Orbital Energies                     R   N=         118
 -9.19526636E+01 -9.19524640E+01 -1.12645148E+01 -1.12635519E+01 -1.12318103E+01
 -1.12235864E+01 -8.96351959E+00 -8.96326615E+00 -6.64645487E+00 -6.64607146E+00
 -6.64432297E+00 -6.64416652E+00 -6.64237987E+00 -6.64217567E+00 -1.10143486E+00
 -1.05970525E+00 -9.83324755E-01 -8.97075277E-01 -8.35384910E-01 -7.70050326E-01
 -6.40008182E-01 -6.29850522E-01 -6.00845912E-01 -5.87101374E-01 -5.44701847E-01
 -5.40178348E-01 -5.18777319E-01 -5.11614656E-01 -4.92326645E-01 -4.66620908E-01
 -4.32464008E-01 -3.53519565E-01 -3.46202869E-01  1.35493508E-01  1.95267220E-01
  2.02538624E-01  2.36628072E-01  2.64212575E-01  2.70755734E-01  2.88156517E-01
  2.93664228E-01  3.12131388E-01  3.17510425E-01  3.24554970E-01  3.42421213E-01
  3.53380134E-01  3.71558265E-01  3.90823565E-01  5.14627539E-01  5.39579124E-01
  5.53682806E-01  5.64216748E-01  5.87711908E-01  5.98803298E-01  6.03942644E-01
  6.54241389E-01  6.93608873E-01  7.29768155E-01  7.46318078E-01  7.87236390E-01
  7.91507300E-01  8.33170402E-01  8.36471715E-01  8.44371338E-01  8.62422928E-01
  8.85956469E-01  9.49842011E-01  9.63650876E-01  1.02651123E+00  1.10077209E+00
  1.11292810E+00  1.11424922E+00  1.14147439E+00  1.14629292E+00  1.15411490E+00
  1.15976190E+00  1.17025757E+00  1.17494640E+00  1.19936823E+00  1.20928087E+00
  1.21612851E+00  1.23002422E+00  1.23763993E+00  1.26004418E+00  1.26917153E+00
  1.28191059E+00  1.28842955E+00  1.38209247E+00  1.46401756E+00  1.54016259E+00
  1.70461350E+00  1.77974153E+00  1.80743927E+00  1.84207046E+00  1.85709714E+00
  1.88187819E+00  2.23410973E+00  2.24419664E+00  2.27504589E+00  2.27596097E+00
  2.30128895E+00  2.30605042E+00  2.54338127E+00  2.55152133E+00  2.59745889E+00
  2.61016506E+00  2.64479778E+00  2.64636306E+00  2.65719373E+00  2.66365834E+00
  2.93485068E+00  2.94736106E+00  4.25375398E+00  4.38373538E+00  4.56772877E+00
  4.59762110E+00  4.78368398E+00  4.81404650E+00
Alpha MO coefficients                      R   N=       13924
 -9.63971882E-03 -1.38235183E-04 -9.75166700E-06  1.02351098E-05 -3.58659120E-06
  2.46474629E-04  9.44104223E-05 -7.68165511E-05  3.47362202E-05 -5.49268150E-04
 -3.14690691E-04  1.49243454E-04 -4.19169250E-05 -2.84257073E-05 -4.54098044E-05
 -3.77514380E-05 -4.35316369E-05  2.17178985E-05 -2.63709135E-05  9.96205715E-01
  1.42305441E-02 -2.68570495E-05  9.85636859E-05 -3.21854021E-06 -2.00954603E-02
  4.54480773E-05 -1.72733716E-04  6.60353022E-06  3.27924954E-03 -2.30642936E-04
  4.72753344E-04 -5.77064516E-05  6.85501201E-03  6.86584952E-03  6.85326692E-03
 -9.32043724E-06  1.52684979E-05  2.69477907E-06 -2.71219387E-06  7.76490617E-06
  2.26591024E-05 -3.27919907E-06  1.32941806E-07  1.84413892E-04 -2.53813793E-04
  7.61284050E-05 -2.27374023E-05 -1.75967854E-05 -1.09163182E-05 -7.09431959E-06
 -1.13633295E-06  8.02293631E-06 -7.75568141E-06 -8.96186808E-06  1.74170861E-05
 -5.74904597E-05 -6.45336499E-05 -3.12848470E-05  2.89085421E-04  2.30851755E-04
  1.28020427E-04 -8.69004336E-05 -3.81315995E-05 -2.35524292E-05 -2.72944054E-06
 -7.54534268E-06 -1.15875787E-05 -2.57614901E-05  5.99741987E-06  3.04834283E-05
 -3.20774552E-06  3.69633562E-06 -1.01465820E-05 -2.77569501E-04 -1.24377604E-04
  6.36309560E-05 -1.12821128E-06  1.98551611E-06  5.83078483E-06  6.59580645E-06
  6.07129618E-06 -3.68629982E-06  1.61702993E-06  8.98925062E-06  7.13564934E-05
  1.30526998E-06  5.55104393E-07 -1.62325011E-05 -3.55340070E-04  1.55029414E-04
  2.59137325E-04 -7.09952937E-05 -2.93644913E-06 -2.10528975E-05  3.30040118E-06
 -1.07820757E-05  1.11453198E-05  1.72688837E-05  2.65328391E-05 -1.04353163E-04
  2.54351301E-05 -5.75349880E-05 -1.56043935E-05 -1.24384406E-04 -3.88353554E-05
 -1.81341653E-04  1.29283750E-05 -1.22541951E-06  1.52420178E-05  3.49241183E-06
  4.66175673E-06 -1.85177970E-05  5.19911836E-05 -7.81366506E-05  2.54930292E-05
 -2.14968310E-05 -8.91144965E-06 -7.46416885E-05  9.96206081E-01  1.42376953E-02
  2.40072914E-05 -2.71846507E-05  8.89801431E-05 -2.00779828E-02 -5.54074854E-05
  1.99101395E-05 -1.34790685E-04  3.16392272E-03  1.68404469E-04 -1.05002521E-04
  3.80194626E-04  6.86986516E-03  6.86201051E-03  6.88113744E-03 -1.07223096E-05
 -1.58274572E-06 -5.00938621E-06  9.64368034E-03  1.32165354E-04  8.58329051E-06
 -2.38670248E-06  7.72799843E-06 -1.60746272E-04 -8.59221466E-05  3.78823702E-05
 -6.08672938E-05 -3.46127381E-04  2.49756046E-04  1.22636394E-05  1.38420123E-04
  1.05525853E-04  9.72060098E-05  7.14568594E-05 -3.20327122E-05  4.25328262E-05
 -1.58262683E-05 -4.50878793E-06  3.66386603E-05  7.38913049E-05  1.28408999E-06
 -7.90889910E-05  1.52190422E-04 -2.33381354E-04  2.28290098E-06  9.05479205E-05
 -1.69456261E-05 -1.25297874E-05 -1.81569838E-05 -1.04035045E-05  2.17706513E-05
 -1.18960684E-05  4.68424300E-06  3.32621909E-05 -1.55050515E-05  1.09443961E-06
 -1.30770164E-05 -1.68145585E-05  1.86086617E-04  1.23665543E-05  7.71262302E-05
 -1.15515195E-05  7.81232485E-06  7.36337887E-06 -7.90547757E-07 -1.08598561E-05
 -8.09855013E-06 -6.29866068E-06  7.90605040E-06 -2.34095814E-05  4.89030984E-06
  1.04967671E-05 -1.96922489E-05 -1.21723902E-04  1.05301450E-04 -8.45848058E-05
 -3.59094755E-05 -2.77286461E-05 -2.43269398E-05  1.08635452E-05 -4.73242512E-06
  2.61013186E-06 -7.38215311E-07  5.06656099E-07 -9.80493981E-06 -2.02958655E-05
  2.69960678E-06  1.22976889E-04 -2.80168786E-05  1.40190674E-04 -6.78728676E-05
 -1.80932086E-06  2.45020766E-07 -5.72090414E-06 -3.45261578E-06  2.49800294E-06
  8.91732235E-06 -2.43377062E-05 -2.07807176E-04 -1.45017167E-05 -1.57034306E-04
  3.00973484E-05 -5.95842689E-05 -1.16384613E-05 -1.10519509E-04  1.46489811E-05
 -1.55981722E-04  1.42654429E-05 -1.23266723E-04 -7.37012254E-06  2.42339208E-06
  4.96364783E-06  2.25755325E-06  3.04887562E-05 -2.59799972E-04 -1.52529229E-05
 -4.29637120E-05 -3.30775755E-06 -6.61325340E-05  2.86052282E-05 -6.59769201E-06
  1.36945594E-05 -1.48217542E-04 -2.04110901E-04  4.35720238E-05 -1.01590507E-04
  8.69814419E-04 -1.40068082E-04 -9.34540412E-05  6.25207462E-04 -1.50472235E-04
 -1.56386759E-04 -8.75231998E-05  2.66103133E-05 -4.58917012E-05  1.47882246E-05
  9.11298078E-07 -3.21105364E-05 -5.24329309E-05 -4.49122788E-05 -2.25518395E-05
  3.58356869E-04  4.51064528E-04  4.07562020E-04  2.32910537E-04  2.46309351E-03
  6.68898163E-04  1.37387744E-03  4.91366013E-04 -1.53881176E-04 -8.16488061E-05
 -1.94825093E-04  3.35789343E-05  1.37301260E-05  7.50691377E-06  1.42150026E-03
  1.52343148E-04  7.19114939E-05 -3.23914155E-05 -3.85605337E-05 -4.97481901E-04
 -6.50714878E-04  2.69634045E-04  3.30915885E-04  3.39181847E-05  5.41645989E-05
  4.18255164E-05 -1.74396174E-05  3.29601029E-05 -4.12752093E-06  9.95845280E-01
  2.81381804E-02 -2.41818705E-04 -3.36115562E-04 -2.03577396E-04 -1.54435967E-02
  2.59539543E-04  1.11379186E-04  7.54133840E-04 -1.62407776E-03 -1.67604582E-03
 -1.60812610E-03 -1.54501922E-04 -8.39908642E-05 -1.07651415E-04  2.38923651E-05
  3.93942144E-05 -3.79367130E-06 -7.34117092E-06 -1.01550495E-05 -3.23841079E-04
 -1.18249311E-04  1.27538634E-04 -1.09245178E-04 -1.07688989E-06  1.36047509E-05
 -7.23490013E-06  1.20447593E-05 -1.52203064E-05  1.39657060E-05  7.29218356E-03
  2.37363462E-04 -3.59040035E-05 -4.36901481E-05  5.72762385E-06  3.76898624E-03
 -6.88246440E-04 -1.00121476E-03  1.09482711E-03 -1.75641941E-04 -2.55718790E-04
 -3.23994964E-04 -9.48583581E-05  1.16897821E-04  1.84340875E-04  4.76644330E-05