3815167                                                                 
Freq      RMP2-FC                                                     6-31G(d)            
Number of atoms                            I                7
Info1-9                                    I   N=           9
          19          17        1002           0           0         100
           6           2           1
Charge                                     I               -1
Multiplicity                               I                1
Number of electrons                        I               40
Number of alpha electrons                  I               20
Number of beta electrons                   I               20
Number of basis functions                  I               70
Number of independent functions            I               70
Number of point charges in /Mol/           I                0
Number of translation vectors              I                0
Atomic numbers                             I   N=           7
          16           8           6           6           1           1
           1
Nuclear charges                            R   N=           7
  1.60000000E+01  8.00000000E+00  6.00000000E+00  6.00000000E+00  1.00000000E+00
  1.00000000E+00  1.00000000E+00
Current cartesian coordinates              R   N=          21
 -2.53869915E+00 -2.41142931E-01  1.91677456E-07  1.70239040E+00  2.53056738E+00
  5.49459701E-07  2.41811169E+00 -1.90663262E+00 -3.20481000E-07  6.66137951E-01
  4.14970547E-01 -1.97342666E-06  2.05143131E+00 -3.07715409E+00  1.66404960E+00
  4.39174820E+00 -1.28193049E+00 -3.23447132E-05  2.05138587E+00 -3.07719514E+00
 -1.66401095E+00
Force Field                                I                0
Int Atom Types                             I   N=           7
           0           0           0           0           0           0
           0
MM charges                                 R   N=           7
  0.00000000E+00  0.00000000E+00  0.00000000E+00  0.00000000E+00  0.00000000E+00
  0.00000000E+00  0.00000000E+00
Integer atomic weights                     I   N=           7
          32          16          12          12           1           1
           1
Real atomic weights                        R   N=           7
  3.19720718E+01  1.59949146E+01  1.20000000E+01  1.20000000E+01  1.00782504E+00
  1.00782504E+00  1.00782504E+00
Atom fragment info                         I   N=           7
           0           0           0           0           0           0
           0
Atom residue num                           I   N=           7
           0           0           0           0           0           0
           0
Nuclear spins                              I   N=           7
           0           0           0           0           1           1
           1
Nuclear ZEff                               R   N=           7
 -1.36000000E+01 -5.60000000E+00 -3.60000000E+00 -3.60000000E+00 -1.00000000E+00
 -1.00000000E+00 -1.00000000E+00
Nuclear QMom                               R   N=           7
  0.00000000E+00  0.00000000E+00  0.00000000E+00  0.00000000E+00  0.00000000E+00
  0.00000000E+00  0.00000000E+00
Nuclear GFac                               R   N=           7
  0.00000000E+00  0.00000000E+00  0.00000000E+00  0.00000000E+00  2.79284600E+00
  2.79284600E+00  2.79284600E+00
MicOpt                                     I   N=           7
          -1          -1          -1          -1          -1          -1
          -1
Number of contracted shells                I               23
Number of primitive shells                 I               62
Pure/Cartesian d shells                    I                1
Pure/Cartesian f shells                    I                0
Highest angular momentum                   I                2
Largest degree of contraction              I                6
Shell types                                I   N=          23
           0          -1          -1          -1           2           0
          -1          -1           2           0          -1          -1
           2           0          -1          -1           2           0
           0           0           0           0           0
Number of primitives per shell             I   N=          23
           6           6           3           1           1           6
           3           1           1           6           3           1
           1           6           3           1           1           3
           1           3           1           3           1
Shell to atom map                          I   N=          23
           1           1           1           1           1           2
           2           2           2           3           3           3
           3           4           4           4           4           5
           5           6           6           7           7
Primitive exponents                        R   N=          62
  2.19171000E+04  3.30149000E+03  7.54146000E+02  2.12711000E+02  6.79896000E+01
  2.30515000E+01  4.23735000E+02  1.00710000E+02  3.21599000E+01  1.18079000E+01
  4.63110000E+00  1.87025000E+00  2.61584000E+00  9.22167000E-01  3.41287000E-01
  1.17167000E-01  6.50000000E-01  5.48467166E+03  8.25234946E+02  1.88046958E+02
  5.29645000E+01  1.68975704E+01  5.79963534E+00  1.55396162E+01  3.59993359E+00
  1.01376175E+00  2.70005823E-01  8.00000000E-01  3.04752488E+03  4.57369518E+02
  1.03948685E+02  2.92101553E+01  9.28666296E+00  3.16392696E+00  7.86827235E+00
  1.88128854E+00  5.44249258E-01  1.68714478E-01  8.00000000E-01  3.04752488E+03
  4.57369518E+02  1.03948685E+02  2.92101553E+01  9.28666296E+00  3.16392696E+00
  7.86827235E+00  1.88128854E+00  5.44249258E-01  1.68714478E-01  8.00000000E-01
  1.87311370E+01  2.82539436E+00  6.40121692E-01  1.61277759E-01  1.87311370E+01
  2.82539436E+00  6.40121692E-01  1.61277759E-01  1.87311370E+01  2.82539436E+00
  6.40121692E-01  1.61277759E-01
Contraction coefficients                   R   N=          62
  1.86924085E-03  1.42303065E-02  6.96962317E-02  2.38487108E-01  4.83307220E-01
  3.38074154E-01 -2.37677050E-03 -3.16930067E-02 -1.13317024E-01  5.60900118E-02
  5.92255124E-01  4.55006095E-01 -2.50373114E-01  6.69567631E-02  1.05450627E+00
  1.00000000E+00  1.00000000E+00  1.83107443E-03  1.39501722E-02  6.84450781E-02
  2.32714336E-01  4.70192898E-01  3.58520853E-01 -1.10777550E-01 -1.48026263E-01
  1.13076702E+00  1.00000000E+00  1.00000000E+00  1.83473713E-03  1.40373228E-02
  6.88426223E-02  2.32184443E-01  4.67941348E-01  3.62311985E-01 -1.19332420E-01
 -1.60854152E-01  1.14345644E+00  1.00000000E+00  1.00000000E+00  1.83473713E-03
  1.40373228E-02  6.88426223E-02  2.32184443E-01  4.67941348E-01  3.62311985E-01
 -1.19332420E-01 -1.60854152E-01  1.14345644E+00  1.00000000E+00  1.00000000E+00
  3.34946043E-02  2.34726953E-01  8.13757326E-01  1.00000000E+00  3.34946043E-02
  2.34726953E-01  8.13757326E-01  1.00000000E+00  3.34946043E-02  2.34726953E-01
  8.13757326E-01  1.00000000E+00
P(S=P) Contraction coefficients            R   N=          62
  0.00000000E+00  0.00000000E+00  0.00000000E+00  0.00000000E+00  0.00000000E+00
  0.00000000E+00  4.06100998E-03  3.06812999E-02  1.30451999E-01  3.27204999E-01
  4.52850998E-01  2.56041999E-01 -1.45104895E-02  3.10262776E-01  7.54482456E-01
  1.00000000E+00  0.00000000E+00  0.00000000E+00  0.00000000E+00  0.00000000E+00
  0.00000000E+00  0.00000000E+00  0.00000000E+00  7.08742682E-02  3.39752839E-01
  7.27158577E-01  1.00000000E+00  0.00000000E+00  0.00000000E+00  0.00000000E+00
  0.00000000E+00  0.00000000E+00  0.00000000E+00  0.00000000E+00  6.89990666E-02
  3.16423961E-01  7.44308291E-01  1.00000000E+00  0.00000000E+00  0.00000000E+00
  0.00000000E+00  0.00000000E+00  0.00000000E+00  0.00000000E+00  0.00000000E+00
  6.89990666E-02  3.16423961E-01  7.44308291E-01  1.00000000E+00  0.00000000E+00
  0.00000000E+00  0.00000000E+00  0.00000000E+00  0.00000000E+00  0.00000000E+00
  0.00000000E+00  0.00000000E+00  0.00000000E+00  0.00000000E+00  0.00000000E+00
  0.00000000E+00  0.00000000E+00
Coordinates of each shell                  R   N=          69
 -2.53869915E+00 -2.41142931E-01  1.91677456E-07 -2.53869915E+00 -2.41142931E-01
  1.91677456E-07 -2.53869915E+00 -2.41142931E-01  1.91677456E-07 -2.53869915E+00
 -2.41142931E-01  1.91677456E-07 -2.53869915E+00 -2.41142931E-01  1.91677456E-07
  1.70239040E+00  2.53056738E+00  5.49459701E-07  1.70239040E+00  2.53056738E+00
  5.49459701E-07  1.70239040E+00  2.53056738E+00  5.49459701E-07  1.70239040E+00
  2.53056738E+00  5.49459701E-07  2.41811169E+00 -1.90663262E+00 -3.20481000E-07
  2.41811169E+00 -1.90663262E+00 -3.20481000E-07  2.41811169E+00 -1.90663262E+00
 -3.20481000E-07  2.41811169E+00 -1.90663262E+00 -3.20481000E-07  6.66137951E-01
  4.14970547E-01 -1.97342666E-06  6.66137951E-01  4.14970547E-01 -1.97342666E-06
  6.66137951E-01  4.14970547E-01 -1.97342666E-06  6.66137951E-01  4.14970547E-01
 -1.97342666E-06  2.05143131E+00 -3.07715409E+00  1.66404960E+00  2.05143131E+00
 -3.07715409E+00  1.66404960E+00  4.39174820E+00 -1.28193049E+00 -3.23447132E-05
  4.39174820E+00 -1.28193049E+00 -3.23447132E-05  2.05138587E+00 -3.07719514E+00
 -1.66401095E+00  2.05138587E+00 -3.07719514E+00 -1.66401095E+00
Constraint Structure                       R   N=          21
 -2.53869915E+00 -2.41142931E-01  1.91677456E-07  1.70239040E+00  2.53056738E+00
  5.49459701E-07  2.41811169E+00 -1.90663262E+00 -3.20481000E-07  6.66137951E-01
  4.14970547E-01 -1.97342666E-06  2.05143131E+00 -3.07715409E+00  1.66404960E+00
  4.39174820E+00 -1.28193049E+00 -3.23447132E-05  2.05138587E+00 -3.07719514E+00
 -1.66401095E+00
Num ILSW                                   I              100
ILSW                                       I   N=         100
           0           1           0           0           2           0
           0           0           0           0           0          -1
           0           0           0           0           0           0
           0           0           0           0           1           0
           1           0           0           0           0           0
           0           0      100000           0          -1           0
           0           0           0           0           0           0
           0           0           0           1           1           0
           0           0           1           0           0           0
           0           0           4          40           0           0
           0           0           0           0           0           0
           0           0           0           0           0           0
           0           0           0           0           0           0
           0           0           0           0           0           0
           0           0           0           0           0           0
           0           0           0           0           0           0
           0           0           0           0
Num RLSW                                   I               40
RLSW                                       R   N=          40
  1.00000000E+00  1.00000000E+00  1.00000000E+00  1.00000000E+00  1.00000000E+00
  0.00000000E+00  0.00000000E+00  1.00000000E+00  0.00000000E+00  0.00000000E+00
  0.00000000E+00  0.00000000E+00  1.00000000E+00  0.00000000E+00  0.00000000E+00
  0.00000000E+00  0.00000000E+00  1.00000000E+00  0.00000000E+00  0.00000000E+00
  0.00000000E+00  0.00000000E+00  1.00000000E+00  0.00000000E+00  0.00000000E+00
  0.00000000E+00  0.00000000E+00  1.00000000E+00  0.00000000E+00  0.00000000E+00
  0.00000000E+00  0.00000000E+00  0.00000000E+00  0.00000000E+00  0.00000000E+00
  0.00000000E+00  0.00000000E+00  0.00000000E+00  1.00000000E+00  1.00000000E+00
MxBond                                     I                4
NBond                                      I   N=           7
           1           1           4           3           1           1
           1
IBond                                      I   N=          28
           4           0           0           0           4           0
           0           0           4           5           6           7
           1           2           3           0           3           0
           0           0           3           0           0           0
           3           0           0           0
RBond                                      R   N=          28
  2.00000000E+00  0.00000000E+00  0.00000000E+00  0.00000000E+00  2.00000000E+00
  0.00000000E+00  0.00000000E+00  0.00000000E+00  1.00000000E+00  1.00000000E+00
  1.00000000E+00  1.00000000E+00  2.00000000E+00  2.00000000E+00  1.00000000E+00
  0.00000000E+00  1.00000000E+00  0.00000000E+00  0.00000000E+00  0.00000000E+00
  1.00000000E+00  0.00000000E+00  0.00000000E+00  0.00000000E+00  1.00000000E+00
  0.00000000E+00  0.00000000E+00  0.00000000E+00
Virial Ratio                               R      2.000985447901847E+00
SCF Energy                                 R     -5.498834636388663E+02
MP2 Energy                                 R     -5.504418939476442E+02
Total Energy                               R     -5.504418939476442E+02
Post-SCF wavefunction norm                 R      1.546839077322715E+00
RMS Force                                  R      2.584326800654034E-07
RMS Density                                R      1.688309653860066E-09
External E-field                           R   N=          35
  0.00000000E+00  0.00000000E+00  0.00000000E+00  0.00000000E+00  0.00000000E+00
  0.00000000E+00  0.00000000E+00  0.00000000E+00  0.00000000E+00  0.00000000E+00
  0.00000000E+00  0.00000000E+00  0.00000000E+00  0.00000000E+00  0.00000000E+00
  0.00000000E+00  0.00000000E+00  0.00000000E+00  0.00000000E+00  0.00000000E+00
  0.00000000E+00  0.00000000E+00  0.00000000E+00  0.00000000E+00  0.00000000E+00
  0.00000000E+00  0.00000000E+00  0.00000000E+00  0.00000000E+00  0.00000000E+00
  0.00000000E+00  0.00000000E+00  0.00000000E+00  0.00000000E+00  0.00000000E+00
IOpCl                                      I                0
IROHF                                      I                0
Alpha Orbital Energies                     R   N=          70
 -9.16677651E+01 -2.03355295E+01 -1.11479701E+01 -1.10633293E+01 -8.67833058E+00
 -6.36200407E+00 -6.35921907E+00 -6.35854982E+00 -1.15470702E+00 -8.32397659E-01
 -7.17985906E-01 -5.11540185E-01 -4.19338920E-01 -4.16601854E-01 -4.09706395E-01
 -3.29246700E-01 -3.02207757E-01 -1.89528556E-01 -1.18211227E-01 -1.10834522E-01
  3.55754203E-01  4.09160015E-01  4.44280783E-01  4.68926162E-01  4.85280355E-01
  5.71129011E-01  6.35521932E-01  7.08132638E-01  7.79729875E-01  7.91897859E-01
  8.44725686E-01  9.33892261E-01  9.66441049E-01  1.03401280E+00  1.04974502E+00
  1.12770226E+00  1.13327255E+00  1.26930957E+00  1.29347167E+00  1.32245671E+00
  1.32283003E+00  1.32318256E+00  1.34914972E+00  1.36983034E+00  1.38092463E+00
  1.50256235E+00  1.52571458E+00  1.53446907E+00  1.62062849E+00  1.67987609E+00
  1.87826038E+00  2.04471312E+00  2.09295198E+00  2.22557207E+00  2.30696373E+00
  2.32174281E+00  2.39131484E+00  2.57292041E+00  2.58705233E+00  2.66268930E+00
  2.81415522E+00  2.87666611E+00  3.06813917E+00  3.08339870E+00  3.35059643E+00
  3.49835464E+00  4.48943909E+00  4.58254337E+00  4.74170484E+00  4.97525960E+00
Alpha MO coefficients                      R   N=        4900
  9.96255937E-01  1.42585542E-02  7.48682563E-05  8.75062919E-06 -3.19246072E-11
 -1.99622704E-02 -1.63381327E-04 -5.22209789E-06  5.03176305E-11  2.33738088E-03
  6.01803248E-05  6.14656888E-06 -3.74890083E-11  6.89344843E-03  6.92245283E-03
  6.91464752E-03  6.26357919E-06 -1.34506981E-11 -1.88535784E-11 -1.93571570E-05
 -8.42255839E-05 -5.46762711E-06  1.97687540E-05  1.48113477E-10  5.82240857E-04
  6.74834372E-05 -2.26710153E-04 -8.85801687E-10 -9.81464523E-05 -3.97893546E-07
 -6.62279566E-05 -2.26152823E-05 -8.05919263E-12  2.38352932E-10 -7.42710928E-06
  4.59699923E-08  9.09101380E-07  4.08148615E-06  2.65386398E-11  2.31194113E-04
  2.52046475E-04  8.33203887E-05 -1.02191181E-09 -5.84292659E-05  9.05039998E-06
 -3.30738149E-05  3.15374880E-05 -5.80967407E-10 -3.38527205E-10  1.15309563E-05
  1.01057939E-04 -5.42504500E-05 -1.60009771E-05 -4.98823131E-11 -3.36736815E-04
 -4.85402513E-04 -3.44164149E-04  6.61186745E-10 -7.28797216E-05  2.62493303E-05
  2.18204620E-06 -5.91490320E-05  3.46775295E-11  2.44115046E-11  2.44952025E-05
 -9.66788897E-05 -3.53191898E-05 -1.31294978E-04  2.44954663E-05 -9.66791637E-05
  2.11327821E-08  6.39682623E-07  3.77448893E-06  3.35952920E-06  1.08503078E-11
  1.14599710E-05 -2.86111735E-05  6.41243978E-07 -2.50216387E-11 -1.86831018E-04
 -1.22358317E-04  1.46666317E-06  1.12198966E-10 -6.46330563E-06 -6.72139370E-06
 -4.86750682E-06 -1.60504807E-05 -5.19067358E-11 -1.45106337E-11  9.94693835E-01
  2.09329741E-02 -5.79202889E-04 -1.24407233E-03 -1.52388216E-09  4.45378106E-03
  2.24893324E-05  7.73732370E-05 -1.30186628E-10 -3.85491221E-03 -3.74484903E-03
 -4.11539986E-03  6.69344962E-05 -1.93100118E-10  6.08577871E-10 -7.84179485E-07
  2.64925665E-05  6.54248752E-06 -3.41894380E-05  1.02302574E-10 -1.18661296E-04
  1.43616458E-04 -6.22278879E-05 -6.24321191E-10  4.93256377E-07 -6.24513318E-05
 -2.05319749E-05  8.35797122E-06 -3.14627044E-11 -1.89403104E-11 -7.14181056E-06
  4.74817744E-04  3.03827615E-05  5.13813070E-05 -1.46416860E-11 -7.59347811E-05
 -2.32931622E-04 -5.64712881E-04 -3.69593788E-11 -1.82385432E-04 -5.22041624E-04
 -5.86148060E-05 -2.70284368E-04 -2.37933362E-10 -7.32549793E-10  1.08394944E-05
 -1.48046552E-05  7.60945081E-06 -8.56408639E-05  1.08393557E-05 -1.48043806E-05
 -3.63335100E-06  6.80537033E-06 -1.66080260E-05  1.90421613E-05 -1.16694125E-10
  4.37714409E-04  2.86918446E-04 -7.95031261E-05  4.32951845E-10  2.56824668E-03
  1.68857916E-03  1.31769619E-04 -2.66901512E-09 -2.67524839E-04 -2.20210186E-04
 -9.07439919E-05 -1.37845870E-04  1.34773370E-11  1.04007320E-10 -2.51247303E-04
  4.81878161E-04 -1.00260793E-04 -1.83419639E-04 -3.29257881E-10 -2.01915684E-03
  6.30830756E-04  1.25468130E-03  2.65990625E-09  9.09539893E-05 -1.52311584E-04
  3.55217997E-04 -1.27390312E-04 -2.25796611E-10 -1.11128987E-09  3.21391781E-03
  2.84956954E-04 -2.46329455E-06 -1.08389269E-04  2.17951246E-09  2.70053656E-03
 -1.03601944E-03  8.99272529E-04 -1.44935927E-08 -2.41753509E-04 -5.03093843E-04
 -7.53912106E-05  2.28354991E-04  8.19443945E-10  1.36928824E-09  9.95946962E-01
  2.59580535E-02  3.04235275E-04  3.20004171E-04  8.94701772E-10 -8.95046781E-03
  1.21852110E-03  2.80612785E-03  1.39800618E-09 -1.35115374E-03 -7.88772306E-04
 -2.06235783E-03  4.35567138E-04  9.26305766E-10  7.43561492E-10 -1.19558009E-04
  6.83714688E-05 -9.29413926E-05  9.81632874E-05 -1.19557403E-04  6.83457563E-05
 -7.65116920E-07 -3.51341017E-05  6.31453179E-06 -1.03825638E-05  3.65100675E-11
 -8.18065151E-05 -8.60682173E-05  7.51566317E-05 -4.27213156E-10  4.33119048E-04
  2.80278819E-04  9.56783107E-05  2.43771897E-09 -3.88964545E-05 -1.83081148E-06
 -1.22762503E-04  2.09850637E-05  5.99476684E-10 -5.96383269E-10 -3.13945723E-05
 -2.10342815E-04  1.20570030E-06  5.52468065E-05 -5.68722997E-10  5.95284368E-04
 -3.04760682E-04 -1.50192404E-04  2.51789620E-09 -5.08905553E-05 -2.12196254E-05
 -2.07623753E-04  2.92764742E-05  6.96074992E-10 -7.60434744E-10  9.95733748E-01
  2.84994087E-02  2.77918550E-05 -1.77233159E-04  6.27893126E-09 -1.52970214E-02
  6.27695315E-04 -5.52284725E-04 -9.87764802E-09 -1.87912413E-03 -1.88581410E-03
 -1.83713016E-03  5.29300183E-05  1.60240019E-10  4.91157056E-10 -3.49849211E-03
 -1.33442379E-05 -3.53596153E-05 -1.10806208E-04  2.63477491E-10  3.29839499E-03
  1.42348181E-03 -1.82827026E-03 -1.43238353E-09 -2.62544874E-04 -3.52444617E-04
 -1.58082253E-04  1.38882529E-04 -2.70799742E-10 -3.46196176E-10  1.24752457E-04
  2.59208398E-03  1.15467686E-04  2.49796519E-03  1.24752658E-04  2.59207757E-03
 -2.81789872E-01  1.03023755E+00  3.84620094E-03  5.88290312E-04 -1.68425061E-09
  2.40941880E-02  1.73306234E-03  1.79225904E-04 -5.57790695E-10 -5.00239720E-03
 -3.17478524E-04 -3.14958638E-07 -7.25460713E-10 -6.57452472E-04 -1.65423540E-03
 -1.55825509E-03  1.79953267E-04 -6.96490746E-10 -2.48555782E-10  6.31250950E-05
  2.41062148E-04  1.19405097E-04 -7.31987693E-05 -6.68631779E-10 -2.09874296E-03
 -3.99265153E-04  6.87906926E-04  3.39014631E-09  2.71506258E-04  1.10888932E-04
  1.05269368E-04  8.02122236E-05 -2.73159171E-11 -3.65292714E-10 -2.25054539E-06
 -1.34482488E-04  1.13319932E-04 -1.46649874E-05 -7.45292958E-10 -2.46573617E-04
 -1.42634109E-03 -5.41585631E-04  6.26788102E-09  1.44338648E-04 -1.17687514E-04
  4.53759848E-05 -1.21671519E-04  3.42863387E-09  2.60466896E-09 -1.71335108E-04
  4.97375879E-04 -1.54796279E-05 -3.75940010E-05 -6.12848717E-11  5.21466494E-04
  2.42762871E-03  1.58998263E-03 -2.57110359E-09 -5.82165963E-04 -1.21164872E-04
  3.52310168E-05 -3.57013900E-05  5.75073911E-10  1.52099178E-10 -1.54846475E-04
  1.10013105E-04  1.55200352E-04  6.46912216E-04 -1.54851680E-04  1.10011514E-04
  1.35876532E-03 -5.12294500E-03  9.77155373E-01  1.75350111E-01 -6.58692698E-07
  3.61730812E-03  2.42655440E-02  4.38101100E-03 -1.52733653E-08  2.72304203E-03
 -4.01256636E-03 -6.19734545E-04 -6.84758166E-10  8.07125769E-04 -1.20954513E-03
 -1.21935891E-03  4.26011831E-04 -1.90173123E-09 -2.94574950E-10  8.86822243E-05
  3.28594458E-04  1.64210078E-04 -1.41000319E-04 -8.90161628E-10 -2.90833790E-03
 -1.21435413E-03  1.12708935E-03  4.27807723E-09  5.00165926E-04  9.99196448E-05
  1.88920165E-04  2.45000313E-04  4.24190247E-10 -6.62431529E-10  3.03459600E-05
 -2.24978423E-05 -6.42154270E-05 -2.64345696E-05  2.25956422E-09 -1.41783503E-03
 -1.36207997E-03 -1.39732127E-03 -1.13869320E-08  3.66936952E-04 -1.97199240E-04
  1.52553051E-04 -1.76672029E-04  3.98556381E-09  3.49549554E-09 -2.16658346E-04
  7.49971584E-04  7.18760373E-05 -2.29572720E-05 -4.31788668E-10 -6.67210067E-04
  6.30872496E-03  1.76125352E-03 -1.19009302E-10 -7.71945200E-04 -1.65425734E-04
  1.69246255E-04 -8.22769492E-05  1.75825793E-09 -4.86788908E-10 -6.96145393E-05
 -1.18438789E-05  2.21594365E-04  5.83209643E-04 -6.96165852E-05 -1.18820621E-05
  4.37539068E-10 -1.26295763E-09  1.10303210E-06 -2.41615371E-06  9.93635565E-01
  2.01159463E-09  2.53731371E-08 -5.19022139E-08  2.11527067E-02  1.93871839E-09
 -4.83245831E-09  1.10507170E-08 -5.10973382E-03  1.32910498E-09 -6.02218281E-10
 -1.81986813E-11 -1.47879790E-09  3.43774501E-04  3.68441855E-05  4.87612793E-10
  2.22167404E-09 -3.94045068E-10  3.36548609E-10 -5.52131444E-05 -1.54077920E-08
  3.68708018E-09  1.83963253E-09  1.91358974E-04  9.82474976E-10  1.29807184E-09
  1.42610566E-09 -3.66051512E-10 -5.57553926E-05  2.27083437E-05 -2.75038035E-10
 -1.93723651E-09  2.36047375E-09  2.19344880E-09 -2.07602331E-06  1.22664998E-08
 -2.35308657E-08 -1.14252797E-08 -1.00193831E-04 -7.67778647E-10 -6.73538491E-10
  1.59163028E-09 -8.44918496E-10 -5.24160416E-05 -1.26550560E-05  5.60739223E-10
  2.08928820E-09 -4.30927208E-10 -2.96930715E-10 -1.59185446E-04 -6.81313340E-09
  5.44551680E-09  1.77535979E-08  2.04291766E-04  1.81228581E-09  5.78077614E-10
  5.35858199E-10 -2.75132688E-10  3.22497767E-04  6.22340315E-05 -1.05155810E-04
  4.54134877E-04  1.49056715E-09  1.26201902E-08  1.05150297E-04 -4.54145597E-04
 -4.71507638E-05  1.16513466E-04 -1.75541963E-01  9.78092737E-01  2.57348041E-06
 -3.48988201E-04 -3.70466930E-03  2.06418084E-02  5.38196984E-08  8.43523527E-04
  1.34505946E-03 -4.43529138E-03 -1.44183881E-08 -1.27148874E-04  1.37160225E-04
 -6.31358221E-05  6.08768133E-04  6.75717282E-10 -3.46713532E-10 -1.80758088E-04
 -8.10201702E-04  1.49723102E-04  2.10241307E-05  2.33030407E-10  4.30308215E-03
 -1.36502747E-03 -6.31574126E-04 -2.19234485E-09 -3.27377963E-04 -5.86042526E-04
 -5.79832051E-04  1.62581843E-04  2.96668152E-10  1.66318386E-10  4.72038903E-05
  3.30238590E-04  1.43891866E-05 -5.06596814E-05  1.28692260E-09 -2.54271559E-03
  1.76526959E-03 -9.42716456E-04 -1.11026441E-08 -1.09429758E-04  6.24410221E-05
  1.56134400E-05  7.56744691E-05 -1.50745043E-09 -2.90970196E-10 -8.27285051E-05
 -3.22073188E-04 -1.04958615E-04 -4.36432109E-05 -8.00744456E-10  1.85077454E-04
  1.03534025E-03 -3.62982731E-03  3.13783949E-09 -1.48409522E-04 -8.05761262E-05
 -1.21097391E-04  1.87100748E-04  1.59950105E-09 -9.30679552E-10  2.36101976E-04
 -4.37703306E-04 -1.79813613E-05 -3.47563354E-04  2.36105000E-04 -4.37728195E-04
  4.39059068E-03 -2.06625551E-02 -1.10090058E-02 -4.30891596E-03  2.61352567E-09
  3.22395628E-02  2.40162233E-02  1.01644892E-02 -5.05149080E-09  1.46249375E-03
 -5.56220700E-03  2.81590580E-03  1.45457171E-08  1.03664432E-02 -2.50460627E-04
 -1.66883673E-03  5.94287680E-03 -3.19366763E-09 -2.99477259E-09 -1.94425221E-01
  4.27645130E-01 -5.14993779E-02 -1.14319201E-01 -1.20529131E-07  4.04665972E-01
 -1.86793137E-02 -4.57225031E-02 -5.37643951E-08  8.03640061E-04  1.39324759E-02
 -1.70466289E-03  8.88042934E-03  1.09622786E-08  1.97047128E-08 -2.05368059E-02
  3.91406322E-02 -1.15259369E-02  2.62103552E-02  2.13237973E-10  1.33248103E-02
  6.14406205E-03  4.67563634E-03  3.72722852E-09  1.78406844E-03  6.02016697E-03
 -2.99602953E-04 -3.89794549E-03 -1.50076969E-08 -1.75609062E-08 -1.10363167E-01
  2.12917594E-01  7.60018753E-02  1.42919782E-01  1.93930027E-07  7.84529782E-02
 -6.48325912E-03 -2.17299300E-02 -1.93857873E-08 -4.59028930E-03  2.15417014E-02
 -1.61380108E-02  2.08080774E-02  2.81743182E-08  4.60774029E-08  7.11720181E-03
  1.77576978E-03  1.06468138E-02  5.82718094E-05  7.11716035E-03  1.77575591E-03
  1.95368291E-02 -9.14100091E-02 -2.91555751E-02  1.44258351E-03  1.39764426E-08
  1.68987969E-01  6.38095394E-02 -3.54033281E-03 -2.45136064E-08  5.33726833E-02
 -5.63599416E-03 -3.00447392E-03 -1.87526353E-08  2.00148146E-02 -5.70162813E-03
 -4.87877130E-03  1.62722400E-03 -1.95344807E-08 -5.31525194E-09  6.17051178E-02
 -1.38289020E-01  6.93822138E-03 -2.37206829E-02  3.64292557E-08 -1.57753589E-01
  1.85948930E-04 -1.15716210E-02 -1.94234978E-08 -1.47509222E-03  9.45458893E-04
  5.98016966E-05 -3.51302033E-04 -1.68240407E-09 -1.92913962E-09 -1.65549859E-01
  3.09556101E-01 -3.04110184E-02  1.73039702E-02  1.87978000E-07  2.93291115E-01
  2.33060528E-03 -3.51241268E-03 -5.81492194E-08  7.84135673E-03  7.36685825E-03
  8.09552000E-03 -1.40165706E-03  2.50148776E-08  1.82408582E-08 -7.87184951E-02
  1.61949849E-01 -6.52944012E-03 -1.62004574E-01  2.86101510E-08  1.26463261E-01
 -1.17602883E-02 -3.87473171E-02  6.52537730E-08  1.21887389E-02  1.86685359E-03
 -5.56175529E-03 -1.46590566E-02 -2.87860968E-09 -2.47173015E-08  1.09398025E-01
  2.83310624E-02  9.97952965E-02  2.05865398E-02  1.09398000E-01  2.83309019E-02
  5.49539569E-02 -2.58089986E-01 -4.99315767E-02 -1.05455850E-02  4.15176114E-08
  4.87832224E-01  1.12719053E-01  2.43656397E-02 -9.60344510E-08  2.12944683E-01
 -2.12100070E-03 -2.22803116E-03  2.69392210E-09  3.65343010E-02 -8.79671201E-03
 -9.03397790E-03  1.15818578E-02 -3.87606987E-08 -9.43342297E-09  3.21684124E-02
 -7.22662558E-02 -6.34232240E-02 -6.98734785E-03  1.83167511E-09 -9.03368821E-02
 -3.12261354E-02 -5.44886128E-03  1.22957034E-09  3.61178610E-03 -2.30159456E-03
 -1.61117403E-04  5.07136453E-03  4.11412123E-09 -4.52314531E-09  8.82428417E-02
 -1.64702464E-01 -5.80984737E-02  3.13796872E-02 -2.09964858E-07 -1.94020507E-01
 -1.94348393E-02  9.06258369E-03  5.77767126E-08 -2.23196750E-03 -1.97598493E-03
 -6.82292773E-03 -7.62959920E-03  5.45799537E-08  4.08087304E-08 -6.85743860E-02
  1.42063085E-01 -1.98543069E-01 -1.51373925E-02  3.67496472E-08  1.41149827E-01
 -5.25570386E-02 -2.39334927E-02 -1.33664557E-08  1.56369838E-02 -8.68258947E-03
 -3.79913546E-03  7.99045638E-03 -2.57215904E-08 -3.74582444E-09 -6.81838867E-02
 -2.48907299E-02 -8.67081146E-02 -3.26226765E-02 -6.81833786E-02 -2.48902631E-02
  2.97104246E-02 -1.41310644E-01  2.82681516E-02  2.39073407E-03 -1.22265672E-08
  2.74909754E-01 -6.76708913E-02 -7.11076489E-03  3.02832069E-08  2.08121734E-01
 -3.16191793E-03 -1.83009224E-03  9.45021404E-10 -9.59708666E-03  5.13613402E-03
  3.27898999E-03 -2.07519706E-03  8.32596267E-09  6.26659998E-09 -7.64970907E-02
  1.72398106E-01  4.25731206E-02  2.92311880E-01  3.51991595E-07  2.76055101E-01
  2.81963946E-02  1.72634889E-01  2.37129375E-07  5.11222382E-03 -2.05138482E-02
  3.16195077E-03 -7.41760275E-03 -1.21473621E-08 -3.22589476E-08 -2.85204851E-02
  4.96091895E-02  1.08292775E-01 -2.26101901E-01  2.56276974E-07  6.30174706E-02
  4.05238449E-02 -1.08035929E-01  3.01019084E-07 -1.17463809E-03 -8.17069525E-03
  1.40709690E-02  1.71254181E-02  1.21420046E-07  1.25362542E-07  1.15265661E-01
 -2.52798713E-01 -1.58678710E-01  2.77344618E-02 -6.12951267E-09 -2.13438459E-01
 -1.66138379E-02  4.94221369E-02 -2.57790124E-09  7.22378117E-04 -3.69628582E-03
  9.96497259E-03  1.05685908E-03 -1.04581842E-08 -1.50579186E-09  9.00778601E-02
  5.96813309E-02  4.87655672E-02  4.59409022E-02  9.00788385E-02  5.96820498E-02
 -2.43850011E-07  1.17917476E-06 -5.45036864E-07 -3.79612137E-07 -2.37972015E-02
 -2.28960828E-06  1.34244753E-06  9.21843957E-07  5.87801794E-02 -2.17662199E-06
  1.42853558E-07  3.49689845E-07  2.78360837E-02  1.99323246E-07 -1.65140844E-08
 -6.97252362E-08  1.79941680E-07  1.04543962E-02  5.40906073E-04  3.27771807E-07
 -4.92197980E-07 -4.34948090E-06 -9.11386092E-07  1.40626644E-01 -2.06451342E-06
 -2.78485784E-06 -2.51027120E-07  9.69327849E-02  2.15827745E-07  8.10923572E-08
  5.07179986E-08  2.41241047E-07 -4.70231979E-03 -1.17399659E-02  1.22559836E-07
 -2.89365493E-07 -1.51477042E-06 -2.85279797E-06  3.97222548E-01 -5.81377130E-07
 -5.15092089E-07 -1.23355929E-06  2.12892475E-01 -9.97952298E-07 -5.32311660E-07
  1.57498519E-06 -6.33987236E-07 -1.18869024E-02 -2.84620847E-02 -3.25021384E-07
  6.87486218E-07 -1.75343914E-06  2.54841796E-06  1.50054228E-01  1.17331222E-06