135432558                                                               
Freq      RMP2-FC                                                     6-31G(d)            
Number of atoms                            I               23
Info1-9                                    I   N=           9
          35          33        1002           0           0         100
           6           2           1
Charge                                     I                0
Multiplicity                               I                1
Number of electrons                        I               92
Number of alpha electrons                  I               46
Number of beta electrons                   I               46
Number of basis functions                  I              215
Number of independent functions            I              215
Number of point charges in /Mol/           I                0
Number of translation vectors              I                0
Atomic numbers                             I   N=          23
           8           7           7           6           6           6
           6           6           6           6           6           6
           6           1           1           1           1           1
           1           1           1           1           1
Nuclear charges                            R   N=          23
  8.00000000E+00  7.00000000E+00  7.00000000E+00  6.00000000E+00  6.00000000E+00
  6.00000000E+00  6.00000000E+00  6.00000000E+00  6.00000000E+00  6.00000000E+00
  6.00000000E+00  6.00000000E+00  6.00000000E+00  1.00000000E+00  1.00000000E+00
  1.00000000E+00  1.00000000E+00  1.00000000E+00  1.00000000E+00  1.00000000E+00
  1.00000000E+00  1.00000000E+00  1.00000000E+00
Current cartesian coordinates              R   N=          69
  5.94839488E+00 -2.73733361E+00 -4.04978036E-01  1.71265510E+00 -2.36302884E+00
 -1.11371015E+00  2.93764754E+00  2.77002695E+00  6.33390517E-01 -1.31545432E+00
  9.59011416E-01  6.37625234E-02 -7.39083074E-01 -1.59738987E+00 -4.46570969E-01
  6.32122276E-01  2.95819737E+00 -1.58456177E-01  3.62849997E+00  4.51374703E-01
  1.96497274E+00 -3.83290559E+00  1.59217610E+00  6.37219660E-01 -2.66942752E+00
 -3.41763977E+00 -4.36684356E-01  3.94420799E+00 -1.68473774E+00  8.43314725E-02
 -1.10454496E-01  5.38244514E+00 -1.45320276E+00 -5.72955677E+00 -2.25681435E-01
  6.84732531E-01 -5.14586866E+00 -2.74072164E+00  1.16516692E-01  1.88494258E+00
 -3.94786114E+00 -2.18758148E+00  2.20171327E+00 -8.63472839E-02  3.38065878E+00
  5.44647933E+00  7.26890725E-01  2.89556622E+00 -4.29988862E+00  3.54849067E+00
  1.05335043E+00 -2.19379164E+00 -5.37784142E+00 -8.40299130E-01 -1.50148176E+00
  6.43384672E+00 -3.38355044E-01 -9.51940752E-01  5.00530882E+00 -3.30420042E+00
  1.57455538E+00  6.55035559E+00 -1.67333020E+00 -7.65675772E+00  3.10771095E-01
  1.14946020E+00 -6.61558638E+00 -4.17613723E+00  1.27064203E-01
Force Field                                I                0
Int Atom Types                             I   N=          23
           0           0           0           0           0           0
           0           0           0           0           0           0
           0           0           0           0           0           0
           0           0           0           0           0
MM charges                                 R   N=          23
  0.00000000E+00  0.00000000E+00  0.00000000E+00  0.00000000E+00  0.00000000E+00
  0.00000000E+00  0.00000000E+00  0.00000000E+00  0.00000000E+00  0.00000000E+00
  0.00000000E+00  0.00000000E+00  0.00000000E+00  0.00000000E+00  0.00000000E+00
  0.00000000E+00  0.00000000E+00  0.00000000E+00  0.00000000E+00  0.00000000E+00
  0.00000000E+00  0.00000000E+00  0.00000000E+00
Integer atomic weights                     I   N=          23
          16          14          14          12          12          12
          12          12          12          12          12          12
          12           1           1           1           1           1
           1           1           1           1           1
Real atomic weights                        R   N=          23
  1.59949146E+01  1.40030740E+01  1.40030740E+01  1.20000000E+01  1.20000000E+01
  1.20000000E+01  1.20000000E+01  1.20000000E+01  1.20000000E+01  1.20000000E+01
  1.20000000E+01  1.20000000E+01  1.20000000E+01  1.00782504E+00  1.00782504E+00
  1.00782504E+00  1.00782504E+00  1.00782504E+00  1.00782504E+00  1.00782504E+00
  1.00782504E+00  1.00782504E+00  1.00782504E+00
Atom fragment info                         I   N=          23
           0           0           0           0           0           0
           0           0           0           0           0           0
           0           0           0           0           0           0
           0           0           0           0           0
Atom residue num                           I   N=          23
           0           0           0           0           0           0
           0           0           0           0           0           0
           0           0           0           0           0           0
           0           0           0           0           0
Nuclear spins                              I   N=          23
           0           2           2           0           0           0
           0           0           0           0           0           0
           0           1           1           1           1           1
           1           1           1           1           1
Nuclear ZEff                               R   N=          23
 -5.60000000E+00 -4.55000000E+00 -4.55000000E+00 -3.60000000E+00 -3.60000000E+00
 -3.60000000E+00 -3.60000000E+00 -3.60000000E+00 -3.60000000E+00 -3.60000000E+00
 -3.60000000E+00 -3.60000000E+00 -3.60000000E+00 -1.00000000E+00 -1.00000000E+00
 -1.00000000E+00 -1.00000000E+00 -1.00000000E+00 -1.00000000E+00 -1.00000000E+00
 -1.00000000E+00 -1.00000000E+00 -1.00000000E+00
Nuclear QMom                               R   N=          23
  0.00000000E+00  2.04400000E+00  2.04400000E+00  0.00000000E+00  0.00000000E+00
  0.00000000E+00  0.00000000E+00  0.00000000E+00  0.00000000E+00  0.00000000E+00
  0.00000000E+00  0.00000000E+00  0.00000000E+00  0.00000000E+00  0.00000000E+00
  0.00000000E+00  0.00000000E+00  0.00000000E+00  0.00000000E+00  0.00000000E+00
  0.00000000E+00  0.00000000E+00  0.00000000E+00
Nuclear GFac                               R   N=          23
  0.00000000E+00  4.03761000E-01  4.03761000E-01  0.00000000E+00  0.00000000E+00
  0.00000000E+00  0.00000000E+00  0.00000000E+00  0.00000000E+00  0.00000000E+00
  0.00000000E+00  0.00000000E+00  0.00000000E+00  2.79284600E+00  2.79284600E+00
  2.79284600E+00  2.79284600E+00  2.79284600E+00  2.79284600E+00  2.79284600E+00
  2.79284600E+00  2.79284600E+00  2.79284600E+00
MicOpt                                     I   N=          23
          -1          -1          -1          -1          -1          -1
          -1          -1          -1          -1          -1          -1
          -1          -1          -1          -1          -1          -1
          -1          -1          -1          -1          -1
Number of contracted shells                I               72
Number of primitive shells                 I              183
Pure/Cartesian d shells                    I                1
Pure/Cartesian f shells                    I                0
Highest angular momentum                   I                2
Largest degree of contraction              I                6
Shell types                                I   N=          72
           0          -1          -1           2           0          -1
          -1           2           0          -1          -1           2
           0          -1          -1           2           0          -1
          -1           2           0          -1          -1           2
           0          -1          -1           2           0          -1
          -1           2           0          -1          -1           2
           0          -1          -1           2           0          -1
          -1           2           0          -1          -1           2
           0          -1          -1           2           0           0
           0           0           0           0           0           0
           0           0           0           0           0           0
           0           0           0           0           0           0
Number of primitives per shell             I   N=          72
           6           3           1           1           6           3
           1           1           6           3           1           1
           6           3           1           1           6           3
           1           1           6           3           1           1
           6           3           1           1           6           3
           1           1           6           3           1           1
           6           3           1           1           6           3
           1           1           6           3           1           1
           6           3           1           1           3           1
           3           1           3           1           3           1
           3           1           3           1           3           1
           3           1           3           1           3           1
Shell to atom map                          I   N=          72
           1           1           1           1           2           2
           2           2           3           3           3           3
           4           4           4           4           5           5
           5           5           6           6           6           6
           7           7           7           7           8           8
           8           8           9           9           9           9
          10          10          10          10          11          11
          11          11          12          12          12          12
          13          13          13          13          14          14
          15          15          16          16          17          17
          18          18          19          19          20          20
          21          21          22          22          23          23
Primitive exponents                        R   N=         183
  5.48467166E+03  8.25234946E+02  1.88046958E+02  5.29645000E+01  1.68975704E+01
  5.79963534E+00  1.55396162E+01  3.59993359E+00  1.01376175E+00  2.70005823E-01
  8.00000000E-01  4.17351146E+03  6.27457911E+02  1.42902093E+02  4.02343293E+01
  1.28202129E+01  4.39043701E+00  1.16263619E+01  2.71627981E+00  7.72218397E-01
  2.12031498E-01  8.00000000E-01  4.17351146E+03  6.27457911E+02  1.42902093E+02
  4.02343293E+01  1.28202129E+01  4.39043701E+00  1.16263619E+01  2.71627981E+00
  7.72218397E-01  2.12031498E-01  8.00000000E-01  3.04752488E+03  4.57369518E+02
  1.03948685E+02  2.92101553E+01  9.28666296E+00  3.16392696E+00  7.86827235E+00
  1.88128854E+00  5.44249258E-01  1.68714478E-01  8.00000000E-01  3.04752488E+03
  4.57369518E+02  1.03948685E+02  2.92101553E+01  9.28666296E+00  3.16392696E+00
  7.86827235E+00  1.88128854E+00  5.44249258E-01  1.68714478E-01  8.00000000E-01
  3.04752488E+03  4.57369518E+02  1.03948685E+02  2.92101553E+01  9.28666296E+00
  3.16392696E+00  7.86827235E+00  1.88128854E+00  5.44249258E-01  1.68714478E-01
  8.00000000E-01  3.04752488E+03  4.57369518E+02  1.03948685E+02  2.92101553E+01
  9.28666296E+00  3.16392696E+00  7.86827235E+00  1.88128854E+00  5.44249258E-01
  1.68714478E-01  8.00000000E-01  3.04752488E+03  4.57369518E+02  1.03948685E+02
  2.92101553E+01  9.28666296E+00  3.16392696E+00  7.86827235E+00  1.88128854E+00
  5.44249258E-01  1.68714478E-01  8.00000000E-01  3.04752488E+03  4.57369518E+02
  1.03948685E+02  2.92101553E+01  9.28666296E+00  3.16392696E+00  7.86827235E+00
  1.88128854E+00  5.44249258E-01  1.68714478E-01  8.00000000E-01  3.04752488E+03
  4.57369518E+02  1.03948685E+02  2.92101553E+01  9.28666296E+00  3.16392696E+00
  7.86827235E+00  1.88128854E+00  5.44249258E-01  1.68714478E-01  8.00000000E-01
  3.04752488E+03  4.57369518E+02  1.03948685E+02  2.92101553E+01  9.28666296E+00
  3.16392696E+00  7.86827235E+00  1.88128854E+00  5.44249258E-01  1.68714478E-01
  8.00000000E-01  3.04752488E+03  4.57369518E+02  1.03948685E+02  2.92101553E+01
  9.28666296E+00  3.16392696E+00  7.86827235E+00  1.88128854E+00  5.44249258E-01
  1.68714478E-01  8.00000000E-01  3.04752488E+03  4.57369518E+02  1.03948685E+02
  2.92101553E+01  9.28666296E+00  3.16392696E+00  7.86827235E+00  1.88128854E+00
  5.44249258E-01  1.68714478E-01  8.00000000E-01  1.87311370E+01  2.82539436E+00
  6.40121692E-01  1.61277759E-01  1.87311370E+01  2.82539436E+00  6.40121692E-01
  1.61277759E-01  1.87311370E+01  2.82539436E+00  6.40121692E-01  1.61277759E-01
  1.87311370E+01  2.82539436E+00  6.40121692E-01  1.61277759E-01  1.87311370E+01
  2.82539436E+00  6.40121692E-01  1.61277759E-01  1.87311370E+01  2.82539436E+00
  6.40121692E-01  1.61277759E-01  1.87311370E+01  2.82539436E+00  6.40121692E-01
  1.61277759E-01  1.87311370E+01  2.82539436E+00  6.40121692E-01  1.61277759E-01
  1.87311370E+01  2.82539436E+00  6.40121692E-01  1.61277759E-01  1.87311370E+01
  2.82539436E+00  6.40121692E-01  1.61277759E-01
Contraction coefficients                   R   N=         183
  1.83107443E-03  1.39501722E-02  6.84450781E-02  2.32714336E-01  4.70192898E-01
  3.58520853E-01 -1.10777550E-01 -1.48026263E-01  1.13076702E+00  1.00000000E+00
  1.00000000E+00  1.83477216E-03  1.39946270E-02  6.85865518E-02  2.32240873E-01
  4.69069948E-01  3.60455199E-01 -1.14961182E-01 -1.69117479E-01  1.14585195E+00
  1.00000000E+00  1.00000000E+00  1.83477216E-03  1.39946270E-02  6.85865518E-02
  2.32240873E-01  4.69069948E-01  3.60455199E-01 -1.14961182E-01 -1.69117479E-01
  1.14585195E+00  1.00000000E+00  1.00000000E+00  1.83473713E-03  1.40373228E-02
  6.88426223E-02  2.32184443E-01  4.67941348E-01  3.62311985E-01 -1.19332420E-01
 -1.60854152E-01  1.14345644E+00  1.00000000E+00  1.00000000E+00  1.83473713E-03
  1.40373228E-02  6.88426223E-02  2.32184443E-01  4.67941348E-01  3.62311985E-01
 -1.19332420E-01 -1.60854152E-01  1.14345644E+00  1.00000000E+00  1.00000000E+00
  1.83473713E-03  1.40373228E-02  6.88426223E-02  2.32184443E-01  4.67941348E-01
  3.62311985E-01 -1.19332420E-01 -1.60854152E-01  1.14345644E+00  1.00000000E+00
  1.00000000E+00  1.83473713E-03  1.40373228E-02  6.88426223E-02  2.32184443E-01
  4.67941348E-01  3.62311985E-01 -1.19332420E-01 -1.60854152E-01  1.14345644E+00
  1.00000000E+00  1.00000000E+00  1.83473713E-03  1.40373228E-02  6.88426223E-02
  2.32184443E-01  4.67941348E-01  3.62311985E-01 -1.19332420E-01 -1.60854152E-01
  1.14345644E+00  1.00000000E+00  1.00000000E+00  1.83473713E-03  1.40373228E-02
  6.88426223E-02  2.32184443E-01  4.67941348E-01  3.62311985E-01 -1.19332420E-01
 -1.60854152E-01  1.14345644E+00  1.00000000E+00  1.00000000E+00  1.83473713E-03
  1.40373228E-02  6.88426223E-02  2.32184443E-01  4.67941348E-01  3.62311985E-01
 -1.19332420E-01 -1.60854152E-01  1.14345644E+00  1.00000000E+00  1.00000000E+00
  1.83473713E-03  1.40373228E-02  6.88426223E-02  2.32184443E-01  4.67941348E-01
  3.62311985E-01 -1.19332420E-01 -1.60854152E-01  1.14345644E+00  1.00000000E+00
  1.00000000E+00  1.83473713E-03  1.40373228E-02  6.88426223E-02  2.32184443E-01
  4.67941348E-01  3.62311985E-01 -1.19332420E-01 -1.60854152E-01  1.14345644E+00
  1.00000000E+00  1.00000000E+00  1.83473713E-03  1.40373228E-02  6.88426223E-02
  2.32184443E-01  4.67941348E-01  3.62311985E-01 -1.19332420E-01 -1.60854152E-01
  1.14345644E+00  1.00000000E+00  1.00000000E+00  3.34946043E-02  2.34726953E-01
  8.13757326E-01  1.00000000E+00  3.34946043E-02  2.34726953E-01  8.13757326E-01
  1.00000000E+00  3.34946043E-02  2.34726953E-01  8.13757326E-01  1.00000000E+00
  3.34946043E-02  2.34726953E-01  8.13757326E-01  1.00000000E+00  3.34946043E-02
  2.34726953E-01  8.13757326E-01  1.00000000E+00  3.34946043E-02  2.34726953E-01
  8.13757326E-01  1.00000000E+00  3.34946043E-02  2.34726953E-01  8.13757326E-01
  1.00000000E+00  3.34946043E-02  2.34726953E-01  8.13757326E-01  1.00000000E+00
  3.34946043E-02  2.34726953E-01  8.13757326E-01  1.00000000E+00  3.34946043E-02
  2.34726953E-01  8.13757326E-01  1.00000000E+00
P(S=P) Contraction coefficients            R   N=         183
  0.00000000E+00  0.00000000E+00  0.00000000E+00  0.00000000E+00  0.00000000E+00
  0.00000000E+00  7.08742682E-02  3.39752839E-01  7.27158577E-01  1.00000000E+00
  0.00000000E+00  0.00000000E+00  0.00000000E+00  0.00000000E+00  0.00000000E+00
  0.00000000E+00  0.00000000E+00  6.75797439E-02  3.23907296E-01  7.40895140E-01
  1.00000000E+00  0.00000000E+00  0.00000000E+00  0.00000000E+00  0.00000000E+00
  0.00000000E+00  0.00000000E+00  0.00000000E+00  6.75797439E-02  3.23907296E-01
  7.40895140E-01  1.00000000E+00  0.00000000E+00  0.00000000E+00  0.00000000E+00
  0.00000000E+00  0.00000000E+00  0.00000000E+00  0.00000000E+00  6.89990666E-02
  3.16423961E-01  7.44308291E-01  1.00000000E+00  0.00000000E+00  0.00000000E+00
  0.00000000E+00  0.00000000E+00  0.00000000E+00  0.00000000E+00  0.00000000E+00
  6.89990666E-02  3.16423961E-01  7.44308291E-01  1.00000000E+00  0.00000000E+00
  0.00000000E+00  0.00000000E+00  0.00000000E+00  0.00000000E+00  0.00000000E+00
  0.00000000E+00  6.89990666E-02  3.16423961E-01  7.44308291E-01  1.00000000E+00
  0.00000000E+00  0.00000000E+00  0.00000000E+00  0.00000000E+00  0.00000000E+00
  0.00000000E+00  0.00000000E+00  6.89990666E-02  3.16423961E-01  7.44308291E-01
  1.00000000E+00  0.00000000E+00  0.00000000E+00  0.00000000E+00  0.00000000E+00
  0.00000000E+00  0.00000000E+00  0.00000000E+00  6.89990666E-02  3.16423961E-01
  7.44308291E-01  1.00000000E+00  0.00000000E+00  0.00000000E+00  0.00000000E+00
  0.00000000E+00  0.00000000E+00  0.00000000E+00  0.00000000E+00  6.89990666E-02
  3.16423961E-01  7.44308291E-01  1.00000000E+00  0.00000000E+00  0.00000000E+00
  0.00000000E+00  0.00000000E+00  0.00000000E+00  0.00000000E+00  0.00000000E+00
  6.89990666E-02  3.16423961E-01  7.44308291E-01  1.00000000E+00  0.00000000E+00
  0.00000000E+00  0.00000000E+00  0.00000000E+00  0.00000000E+00  0.00000000E+00
  0.00000000E+00  6.89990666E-02  3.16423961E-01  7.44308291E-01  1.00000000E+00
  0.00000000E+00  0.00000000E+00  0.00000000E+00  0.00000000E+00  0.00000000E+00
  0.00000000E+00  0.00000000E+00  6.89990666E-02  3.16423961E-01  7.44308291E-01
  1.00000000E+00  0.00000000E+00  0.00000000E+00  0.00000000E+00  0.00000000E+00
  0.00000000E+00  0.00000000E+00  0.00000000E+00  6.89990666E-02  3.16423961E-01
  7.44308291E-01  1.00000000E+00  0.00000000E+00  0.00000000E+00  0.00000000E+00
  0.00000000E+00  0.00000000E+00  0.00000000E+00  0.00000000E+00  0.00000000E+00
  0.00000000E+00  0.00000000E+00  0.00000000E+00  0.00000000E+00  0.00000000E+00
  0.00000000E+00  0.00000000E+00  0.00000000E+00  0.00000000E+00  0.00000000E+00
  0.00000000E+00  0.00000000E+00  0.00000000E+00  0.00000000E+00  0.00000000E+00
  0.00000000E+00  0.00000000E+00  0.00000000E+00  0.00000000E+00  0.00000000E+00
  0.00000000E+00  0.00000000E+00  0.00000000E+00  0.00000000E+00  0.00000000E+00
  0.00000000E+00  0.00000000E+00  0.00000000E+00  0.00000000E+00  0.00000000E+00
  0.00000000E+00  0.00000000E+00  0.00000000E+00
Coordinates of each shell                  R   N=         216
  5.94839488E+00 -2.73733361E+00 -4.04978036E-01  5.94839488E+00 -2.73733361E+00
 -4.04978036E-01  5.94839488E+00 -2.73733361E+00 -4.04978036E-01  5.94839488E+00
 -2.73733361E+00 -4.04978036E-01  1.71265510E+00 -2.36302884E+00 -1.11371015E+00
  1.71265510E+00 -2.36302884E+00 -1.11371015E+00  1.71265510E+00 -2.36302884E+00
 -1.11371015E+00  1.71265510E+00 -2.36302884E+00 -1.11371015E+00  2.93764754E+00
  2.77002695E+00  6.33390517E-01  2.93764754E+00  2.77002695E+00  6.33390517E-01
  2.93764754E+00  2.77002695E+00  6.33390517E-01  2.93764754E+00  2.77002695E+00
  6.33390517E-01 -1.31545432E+00  9.59011416E-01  6.37625234E-02 -1.31545432E+00
  9.59011416E-01  6.37625234E-02 -1.31545432E+00  9.59011416E-01  6.37625234E-02
 -1.31545432E+00  9.59011416E-01  6.37625234E-02 -7.39083074E-01 -1.59738987E+00
 -4.46570969E-01 -7.39083074E-01 -1.59738987E+00 -4.46570969E-01 -7.39083074E-01
 -1.59738987E+00 -4.46570969E-01 -7.39083074E-01 -1.59738987E+00 -4.46570969E-01
  6.32122276E-01  2.95819737E+00 -1.58456177E-01  6.32122276E-01  2.95819737E+00
 -1.58456177E-01  6.32122276E-01  2.95819737E+00 -1.58456177E-01  6.32122276E-01
  2.95819737E+00 -1.58456177E-01  3.62849997E+00  4.51374703E-01  1.96497274E+00
  3.62849997E+00  4.51374703E-01  1.96497274E+00  3.62849997E+00  4.51374703E-01
  1.96497274E+00  3.62849997E+00  4.51374703E-01  1.96497274E+00 -3.83290559E+00
  1.59217610E+00  6.37219660E-01 -3.83290559E+00  1.59217610E+00  6.37219660E-01
 -3.83290559E+00  1.59217610E+00  6.37219660E-01 -3.83290559E+00  1.59217610E+00
  6.37219660E-01 -2.66942752E+00 -3.41763977E+00 -4.36684356E-01 -2.66942752E+00
 -3.41763977E+00 -4.36684356E-01 -2.66942752E+00 -3.41763977E+00 -4.36684356E-01
 -2.66942752E+00 -3.41763977E+00 -4.36684356E-01  3.94420799E+00 -1.68473774E+00
  8.43314725E-02  3.94420799E+00 -1.68473774E+00  8.43314725E-02  3.94420799E+00
 -1.68473774E+00  8.43314725E-02  3.94420799E+00 -1.68473774E+00  8.43314725E-02
 -1.10454496E-01  5.38244514E+00 -1.45320276E+00 -1.10454496E-01  5.38244514E+00
 -1.45320276E+00 -1.10454496E-01  5.38244514E+00 -1.45320276E+00 -1.10454496E-01
  5.38244514E+00 -1.45320276E+00 -5.72955677E+00 -2.25681435E-01  6.84732531E-01
 -5.72955677E+00 -2.25681435E-01  6.84732531E-01 -5.72955677E+00 -2.25681435E-01
  6.84732531E-01 -5.72955677E+00 -2.25681435E-01  6.84732531E-01 -5.14586866E+00
 -2.74072164E+00  1.16516692E-01 -5.14586866E+00 -2.74072164E+00  1.16516692E-01
 -5.14586866E+00 -2.74072164E+00  1.16516692E-01 -5.14586866E+00 -2.74072164E+00
  1.16516692E-01  1.88494258E+00 -3.94786114E+00 -2.18758148E+00  1.88494258E+00
 -3.94786114E+00 -2.18758148E+00  2.20171327E+00 -8.63472839E-02  3.38065878E+00
  2.20171327E+00 -8.63472839E-02  3.38065878E+00  5.44647933E+00  7.26890725E-01
  2.89556622E+00  5.44647933E+00  7.26890725E-01  2.89556622E+00 -4.29988862E+00
  3.54849067E+00  1.05335043E+00 -4.29988862E+00  3.54849067E+00  1.05335043E+00
 -2.19379164E+00 -5.37784142E+00 -8.40299130E-01 -2.19379164E+00 -5.37784142E+00
 -8.40299130E-01 -1.50148176E+00  6.43384672E+00 -3.38355044E-01 -1.50148176E+00
  6.43384672E+00 -3.38355044E-01 -9.51940752E-01  5.00530882E+00 -3.30420042E+00
 -9.51940752E-01  5.00530882E+00 -3.30420042E+00  1.57455538E+00  6.55035559E+00
 -1.67333020E+00  1.57455538E+00  6.55035559E+00 -1.67333020E+00 -7.65675772E+00
  3.10771095E-01  1.14946020E+00 -7.65675772E+00  3.10771095E-01  1.14946020E+00
 -6.61558638E+00 -4.17613723E+00  1.27064203E-01 -6.61558638E+00 -4.17613723E+00
  1.27064203E-01
Constraint Structure                       R   N=          69
  5.94839488E+00 -2.73733361E+00 -4.04978036E-01  1.71265510E+00 -2.36302884E+00
 -1.11371015E+00  2.93764754E+00  2.77002695E+00  6.33390517E-01 -1.31545432E+00
  9.59011416E-01  6.37625234E-02 -7.39083074E-01 -1.59738987E+00 -4.46570969E-01
  6.32122276E-01  2.95819737E+00 -1.58456177E-01  3.62849997E+00  4.51374703E-01
  1.96497274E+00 -3.83290559E+00  1.59217610E+00  6.37219660E-01 -2.66942752E+00
 -3.41763977E+00 -4.36684356E-01  3.94420799E+00 -1.68473774E+00  8.43314725E-02
 -1.10454496E-01  5.38244514E+00 -1.45320276E+00 -5.72955677E+00 -2.25681435E-01
  6.84732531E-01 -5.14586866E+00 -2.74072164E+00  1.16516692E-01  1.88494258E+00
 -3.94786114E+00 -2.18758148E+00  2.20171327E+00 -8.63472839E-02  3.38065878E+00
  5.44647933E+00  7.26890725E-01  2.89556622E+00 -4.29988862E+00  3.54849067E+00
  1.05335043E+00 -2.19379164E+00 -5.37784142E+00 -8.40299130E-01 -1.50148176E+00
  6.43384672E+00 -3.38355044E-01 -9.51940752E-01  5.00530882E+00 -3.30420042E+00
  1.57455538E+00  6.55035559E+00 -1.67333020E+00 -7.65675772E+00  3.10771095E-01
  1.14946020E+00 -6.61558638E+00 -4.17613723E+00  1.27064203E-01
Num ILSW                                   I              100
ILSW                                       I   N=         100
           0           1           0           0           2           0
           0           0           0           0           0          -1
           0           0           0           0           0           0
           0           0           0           0           1           0
           1           0           0           0           0           0
           0           0      100000           0          -1           0
           0           0           0           0           0           0
           0           0           0           1           1           0
           0           0           1           0           0           0
           0           0           4          40           0           0
           0           0           0           0           0           0
           0           0           0           0           0           0
           0           0           0           0           0           0
           0           0           0           0           0           0
           0           0           0           0           0           0
           0           0           0           0           0           0
           0           0           0           0
Num RLSW                                   I               40
RLSW                                       R   N=          40
  1.00000000E+00  1.00000000E+00  1.00000000E+00  1.00000000E+00  1.00000000E+00
  0.00000000E+00  0.00000000E+00  1.00000000E+00  0.00000000E+00  0.00000000E+00
  0.00000000E+00  0.00000000E+00  1.00000000E+00  0.00000000E+00  0.00000000E+00
  0.00000000E+00  0.00000000E+00  1.00000000E+00  0.00000000E+00  0.00000000E+00
  0.00000000E+00  0.00000000E+00  1.00000000E+00  0.00000000E+00  0.00000000E+00
  0.00000000E+00  0.00000000E+00  1.00000000E+00  0.00000000E+00  0.00000000E+00
  0.00000000E+00  0.00000000E+00  0.00000000E+00  0.00000000E+00  0.00000000E+00
  0.00000000E+00  0.00000000E+00  0.00000000E+00  1.00000000E+00  1.00000000E+00
MxBond                                     I                4
NBond                                      I   N=          23
           1           3           2           3           3           3
           4           3           3           3           4           3
           3           1           1           1           1           1
           1           1           1           1           1
IBond                                      I   N=          92
          10           0           0           0           5          10
          14           0           6           7           0           0
           5           6           8           0           2           4
           9           0           3           4          11           0
           3          10          15          16           4          12
          17           0           5          13          18           0
           1           2           7           0           6          19
          20          21           8          13          22           0
           9          12          23           0           2           0
           0           0           7           0           0           0
           7           0           0           0           8           0
           0           0           9           0           0           0
          11           0           0           0          11           0
           0           0          11           0           0           0
          12           0           0           0          13           0
           0           0
RBond                                      R   N=          92
  2.00000000E+00  0.00000000E+00  0.00000000E+00  0.00000000E+00  1.00000000E+00
  1.41000000E+00  1.00000000E+00  0.00000000E+00  2.00000000E+00  1.00000000E+00
  0.00000000E+00  0.00000000E+00  1.50000000E+00  1.00000000E+00  1.50000000E+00
  0.00000000E+00  1.00000000E+00  1.50000000E+00  1.50000000E+00  0.00000000E+00
  2.00000000E+00  1.00000000E+00  1.00000000E+00  0.00000000E+00  1.00000000E+00
  1.00000000E+00  1.00000000E+00  1.00000000E+00  1.50000000E+00  1.50000000E+00
  1.00000000E+00  0.00000000E+00  1.50000000E+00  1.50000000E+00  1.00000000E+00
  0.00000000E+00  2.00000000E+00  1.41000000E+00  1.00000000E+00  0.00000000E+00
  1.00000000E+00  1.00000000E+00  1.00000000E+00  1.00000000E+00  1.50000000E+00
  1.50000000E+00  1.00000000E+00  0.00000000E+00  1.50000000E+00  1.50000000E+00
  1.00000000E+00  0.00000000E+00  1.00000000E+00  0.00000000E+00  0.00000000E+00
  0.00000000E+00  1.00000000E+00  0.00000000E+00  0.00000000E+00  0.00000000E+00
  1.00000000E+00  0.00000000E+00  0.00000000E+00  0.00000000E+00  1.00000000E+00
  0.00000000E+00  0.00000000E+00  0.00000000E+00  1.00000000E+00  0.00000000E+00
  0.00000000E+00  0.00000000E+00  1.00000000E+00  0.00000000E+00  0.00000000E+00
  0.00000000E+00  1.00000000E+00  0.00000000E+00  0.00000000E+00  0.00000000E+00
  1.00000000E+00  0.00000000E+00  0.00000000E+00  0.00000000E+00  1.00000000E+00
  0.00000000E+00  0.00000000E+00  0.00000000E+00  1.00000000E+00  0.00000000E+00
  0.00000000E+00  0.00000000E+00
Virial Ratio                               R      2.002401143404396E+00
SCF Energy                                 R     -5.682697688380283E+02
MP2 Energy                                 R     -5.700422224878130E+02
Total Energy                               R     -5.700422224878130E+02
Post-SCF wavefunction norm                 R      1.795925036228600E+00
RMS Force                                  R      1.123743916932624E-06
RMS Density                                R      1.086319206463668E-09