
    -----------------------------------------------------------------------
          Psi4: An Open-Source Ab Initio Electronic Structure Package
                               Psi4 1.3.2 release

                         Git: Rev {HEAD} ecbda83 


    R. M. Parrish, L. A. Burns, D. G. A. Smith, A. C. Simmonett,
    A. E. DePrince III, E. G. Hohenstein, U. Bozkaya, A. Yu. Sokolov,
    R. Di Remigio, R. M. Richard, J. F. Gonthier, A. M. James,
    H. R. McAlexander, A. Kumar, M. Saitow, X. Wang, B. P. Pritchard,
    P. Verma, H. F. Schaefer III, K. Patkowski, R. A. King, E. F. Valeev,
    F. A. Evangelista, J. M. Turney, T. D. Crawford, and C. D. Sherrill,
    J. Chem. Theory Comput. 13(7) pp 3185--3197 (2017).
    (doi: 10.1021/acs.jctc.7b00174)


                         Additional Contributions by
    P. Kraus, H. Kruse, M. H. Lechner, M. C. Schieber, R. A. Shaw,
    A. Alenaizan, R. Galvelis, Z. L. Glick, S. Lehtola, and J. P. Misiewicz

    -----------------------------------------------------------------------


    Psi4 started on: Wednesday, 04 November 2020 03:59AM

    Process ID: 26436
    Host:       node100.bme.utexas.edu
    PSIDATADIR: /home/xy3866/psi4conda/share/psi4
    Memory:     500.0 MiB
    Threads:    8
    
  ==> Input File <==

--------------------------------------------------------------------------
#psi4
#
memory 32 gb

molecule  {
0 1
  N       -0.4971380    -0.4884030    -0.0000080
  C        1.8933030    -0.0828010    -0.0000140
  C        0.4334738     0.3906394     0.0000398
  C       -1.8470910     0.0589940    -0.0000070
  H        2.4160690     0.3042180    -0.8811360
  H        2.4155930     0.3023240     0.8822020
  H        1.9396870    -1.1727100    -0.0011150
  H        0.2802710     1.4452080    -0.0000290
  H       -1.8762720     1.1592310    -0.0004570
  H       -2.3769420    -0.3108180     0.8823140
  H       -2.3772210    -0.3115500    -0.8818350
units angstrom
no_reorient  #important for SAPT in psi4, default
symmetry c1  #important for SAPT in psi4, default
}

set PROPERTIES_ORIGIN ["COM"]
properties('MP2/aug-cc-pvtz', properties = ['dipole'])
--------------------------------------------------------------------------

  Memory set to  29.802 GiB by Python driver.
    SCF Algorithm Type (re)set to DF.

*** tstart() called on node100.bme.utexas.edu
*** at Wed Nov  4 03:59:53 2020

   => Loading Basis Set <=

    Name: AUG-CC-PVTZ
    Role: ORBITAL
    Keyword: BASIS
    atoms 1    entry N          line   281 file /home/xy3866/psi4conda/share/psi4/basis/aug-cc-pvtz.gbs 
    atoms 2-4  entry C          line   235 file /home/xy3866/psi4conda/share/psi4/basis/aug-cc-pvtz.gbs 
    atoms 5-11 entry H          line    36 file /home/xy3866/psi4conda/share/psi4/basis/aug-cc-pvtz.gbs 


         ---------------------------------------------------------
                                   SCF
               by Justin Turney, Rob Parrish, Andy Simmonett
                          and Daniel G. A. Smith
                              RHF Reference
                        8 Threads,  30517 MiB Core
         ---------------------------------------------------------

  ==> Geometry <==

    Molecular point group: c1
    Full point group: C1

    Geometry (in Angstrom), charge = 0, multiplicity = 1:

       Center              X                  Y                   Z               Mass       
    ------------   -----------------  -----------------  -----------------  -----------------
         N           -0.483454522113    -0.470698651168    -0.000009001391    14.003074004430
         C            1.906986477887    -0.065096651168    -0.000015001391    12.000000000000
         C            0.447157277887     0.408343748832     0.000038798609    12.000000000000
         C           -1.833407522113     0.076698348832    -0.000008001391    12.000000000000
         H            2.429752477887     0.321922348832    -0.881137001391     1.007825032230
         H            2.429276477887     0.320028348832     0.882200998609     1.007825032230
         H            1.953370477887    -1.155005651168    -0.001116001391     1.007825032230
         H            0.293954477887     1.462912348832    -0.000030001391     1.007825032230
         H           -1.862588522113     1.176935348832    -0.000458001391     1.007825032230
         H           -2.363258522113    -0.293113651168     0.882312998609     1.007825032230
         H           -2.363537522113    -0.293845651168    -0.881836001391     1.007825032230

  Running in c1 symmetry.

  Rotational constants: A =      1.23706  B =      0.13663  C =      0.12894 [cm^-1]
  Rotational constants: A =  37086.11943  B =   4096.12394  C =   3865.62414 [MHz]
  Nuclear repulsion =  117.732259911490360

  Charge       = 0
  Multiplicity = 1
  Electrons    = 32
  Nalpha       = 16
  Nbeta        = 16

  ==> Algorithm <==

  SCF Algorithm Type is DF.
  DIIS enabled.
  MOM disabled.
  Fractional occupation disabled.
  Guess Type is SAD.
  Energy threshold   = 1.00e-10
  Density threshold  = 1.00e-10
  Integral threshold = 0.00e+00

  ==> Primary Basis <==

  Basis Set: AUG-CC-PVTZ
    Blend: AUG-CC-PVTZ
    Number of shells: 119
    Number of basis function: 345
    Number of Cartesian functions: 395
    Spherical Harmonics?: true
    Max angular momentum: 3

   => Loading Basis Set <=

    Name: (AUG-CC-PVTZ AUX)
    Role: JKFIT
    Keyword: DF_BASIS_SCF
    atoms 1    entry N          line   224 file /home/xy3866/psi4conda/share/psi4/basis/aug-cc-pvtz-jkfit.gbs 
    atoms 2-4  entry C          line   162 file /home/xy3866/psi4conda/share/psi4/basis/aug-cc-pvtz-jkfit.gbs 
    atoms 5-11 entry H          line    70 file /home/xy3866/psi4conda/share/psi4/basis/aug-cc-pvtz-jkfit.gbs 

  ==> Pre-Iterations <==

   -------------------------------------------------------
    Irrep   Nso     Nmo     Nalpha   Nbeta   Ndocc  Nsocc
   -------------------------------------------------------
     A        345     345       0       0       0       0
   -------------------------------------------------------
    Total     345     345      16      16      16       0
   -------------------------------------------------------

  ==> Integral Setup <==

  DFHelper Memory: AOs need 0.676 GiB; user supplied 22.352 GiB. Using in-core AOs.

  ==> MemDFJK: Density-Fitted J/K Matrices <==

    J tasked:                   Yes
    K tasked:                   Yes
    wK tasked:                   No
    OpenMP threads:               8
    Memory [MiB]:             22888
    Algorithm:                 Core
    Schwarz Cutoff:           1E-12
    Mask sparsity (%):       2.0651
    Fitting Condition:        1E-10

   => Auxiliary Basis Set <=

  Basis Set: (AUG-CC-PVTZ AUX)
    Blend: AUG-CC-PVTZ-JKFIT
    Number of shells: 218
    Number of basis function: 738
    Number of Cartesian functions: 909
    Spherical Harmonics?: true
    Max angular momentum: 4

  Minimum eigenvalue in the overlap matrix is 1.0724649345E-05.
  Using Symmetric Orthogonalization.

  SCF Guess: Superposition of Atomic Densities via on-the-fly atomic UHF.

  ==> Iterations <==

                           Total Energy        Delta E     RMS |[F,P]|

   @DF-RHF iter SAD:  -171.26265697060828   -1.71263e+02   0.00000e+00 
   @DF-RHF iter   1:  -172.01111911685200   -7.48462e-01   1.44885e-03 DIIS
   @DF-RHF iter   2:  -172.13556062485026   -1.24442e-01   7.22422e-04 DIIS
   @DF-RHF iter   3:  -172.16366027087631   -2.80996e-02   1.81604e-04 DIIS
   @DF-RHF iter   4:  -172.16618271208381   -2.52244e-03   7.71696e-05 DIIS
   @DF-RHF iter   5:  -172.16662662511101   -4.43913e-04   1.01544e-05 DIIS
   @DF-RHF iter   6:  -172.16664380628575   -1.71812e-05   3.89460e-06 DIIS
   @DF-RHF iter   7:  -172.16664559766232   -1.79138e-06   1.70762e-06 DIIS
   @DF-RHF iter   8:  -172.16664606386095   -4.66199e-07   6.30502e-07 DIIS
   @DF-RHF iter   9:  -172.16664614333891   -7.94780e-08   1.19316e-07 DIIS
   @DF-RHF iter  10:  -172.16664614631694   -2.97803e-09   2.55895e-08 DIIS
   @DF-RHF iter  11:  -172.16664614642792   -1.10987e-10   6.38054e-09 DIIS
   @DF-RHF iter  12:  -172.16664614643346   -5.54223e-12   2.04648e-09 DIIS
   @DF-RHF iter  13:  -172.16664614643381   -3.41061e-13   4.33265e-10 DIIS
   @DF-RHF iter  14:  -172.16664614643435   -5.40012e-13   1.44761e-10 DIIS
   @DF-RHF iter  15:  -172.16664614643383    5.11591e-13   4.75947e-11 DIIS
  Energy and wave function converged.


  ==> Post-Iterations <==

    Orbital Energies [Eh]
    ---------------------

    Doubly Occupied:                                                      

       1A    -15.557623     2A    -11.275793     3A    -11.242635  
       4A    -11.225039     5A     -1.222298     6A     -1.002272  
       7A     -0.907425     8A     -0.773308     9A     -0.645787  
      10A     -0.608373    11A     -0.591763    12A     -0.562473  
      13A     -0.538619    14A     -0.505322    15A     -0.409618  
      16A     -0.399056  

    Virtual:                                                              

      17A      0.029754    18A      0.037973    19A      0.042261  
      20A      0.042982    21A      0.057777    22A      0.059895  
      23A      0.065352    24A      0.096423    25A      0.100382  
      26A      0.110860    27A      0.124626    28A      0.130512  
      29A      0.132940    30A      0.135283    31A      0.139684  
      32A      0.150913    33A      0.152361    34A      0.166811  
      35A      0.185125    36A      0.185239    37A      0.191072  
      38A      0.208133    39A      0.220340    40A      0.227720  
      41A      0.258539    42A      0.262803    43A      0.266738  
      44A      0.270907    45A      0.272992    46A      0.305726  
      47A      0.314258    48A      0.320353    49A      0.322315  
      50A      0.339834    51A      0.340241    52A      0.350230  
      53A      0.350384    54A      0.358968    55A      0.366914  
      56A      0.372678    57A      0.374146    58A      0.383727  
      59A      0.395139    60A      0.397859    61A      0.412041  
      62A      0.415276    63A      0.428993    64A      0.435228  
      65A      0.437881    66A      0.446897    67A      0.456510  
      68A      0.456746    69A      0.462319    70A      0.476807  
      71A      0.482536    72A      0.488695    73A      0.496123  
      74A      0.501151    75A      0.511918    76A      0.521223  
      77A      0.539835    78A      0.544494    79A      0.549530  
      80A      0.560283    81A      0.574600    82A      0.586665  
      83A      0.602622    84A      0.628587    85A      0.650403  
      86A      0.673149    87A      0.679949    88A      0.685744  
      89A      0.698850    90A      0.708567    91A      0.735599  
      92A      0.750466    93A      0.783716    94A      0.804171  
      95A      0.812599    96A      0.820705    97A      0.821533  
      98A      0.824990    99A      0.846967   100A      0.867422  
     101A      0.879448   102A      0.882931   103A      0.887676  
     104A      0.893085   105A      0.900009   106A      0.920771  
     107A      0.921413   108A      0.934320   109A      0.934777  
     110A      0.945488   111A      0.947511   112A      0.968219  
     113A      0.975423   114A      0.993880   115A      1.003988  
     116A      1.016994   117A      1.018193   118A      1.038512  
     119A      1.046577   120A      1.049112   121A      1.056562  
     122A      1.061133   123A      1.072715   124A      1.083622  
     125A      1.089661   126A      1.126028   127A      1.128699  
     128A      1.140738   129A      1.141930   130A      1.154433  
     131A      1.162479   132A      1.193110   133A      1.202688  
     134A      1.215001   135A      1.225740   136A      1.227280  
     137A      1.236180   138A      1.241104   139A      1.265460  
     140A      1.276548   141A      1.297701   142A      1.299171  
     143A      1.316660   144A      1.336842   145A      1.338565  
     146A      1.381465   147A      1.392018   148A      1.404966  
     149A      1.413760   150A      1.434178   151A      1.440096  
     152A      1.478968   153A      1.491133   154A      1.505477  
     155A      1.509386   156A      1.546208   157A      1.579510  
     158A      1.597436   159A      1.598286   160A      1.603519  
     161A      1.635157   162A      1.637941   163A      1.642374  
     164A      1.654705   165A      1.660854   166A      1.672601  
     167A      1.699040   168A      1.701772   169A      1.725978  
     170A      1.743268   171A      1.762498   172A      1.768082  
     173A      1.778642   174A      1.781297   175A      1.792802  
     176A      1.809581   177A      1.845644   178A      1.873756  
     179A      1.881350   180A      1.891023   181A      1.911370  
     182A      1.930570   183A      1.935416   184A      1.990610  
     185A      2.003887   186A      2.006115   187A      2.049854  
     188A      2.056940   189A      2.069191   190A      2.075643  
     191A      2.093691   192A      2.110109   193A      2.145492  
     194A      2.172331   195A      2.190597   196A      2.216540  
     197A      2.242691   198A      2.243187   199A      2.260134  
     200A      2.262080   201A      2.302001   202A      2.316586  
     203A      2.349187   204A      2.389300   205A      2.391199  
     206A      2.434058   207A      2.454191   208A      2.464295  
     209A      2.512344   210A      2.556044   211A      2.589702  
     212A      2.599239   213A      2.675834   214A      2.766247  
     215A      2.788361   216A      2.844557   217A      2.921868  
     218A      3.092508   219A      3.112109   220A      3.171471  
     221A      3.193572   222A      3.249782   223A      3.373573  
     224A      3.386244   225A      3.412507   226A      3.434535  
     227A      3.447627   228A      3.467904   229A      3.481703  
     230A      3.546339   231A      3.589081   232A      3.594965  
     233A      3.602168   234A      3.608471   235A      3.615586  
     236A      3.633182   237A      3.636632   238A      3.674256  
     239A      3.690930   240A      3.711894   241A      3.732315  
     242A      3.791616   243A      3.826953   244A      3.845706  
     245A      3.847755   246A      3.873688   247A      3.907190  
     248A      3.912186   249A      3.919681   250A      3.942878  
     251A      3.956857   252A      3.967909   253A      3.968459  
     254A      3.982684   255A      3.993975   256A      4.057763  
     257A      4.065422   258A      4.094887   259A      4.116098  
     260A      4.124288   261A      4.130998   262A      4.132862  
     263A      4.164647   264A      4.204293   265A      4.211986  
     266A      4.215019   267A      4.267464   268A      4.295137  
     269A      4.306444   270A      4.346394   271A      4.379590  
     272A      4.392338   273A      4.429693   274A      4.468008  
     275A      4.544118   276A      4.586859   277A      4.589677  
     278A      4.620330   279A      4.636208   280A      4.652443  
     281A      4.654726   282A      4.695585   283A      4.769883  
     284A      4.779403   285A      4.796707   286A      4.805497  
     287A      4.816805   288A      4.861765   289A      4.872835  
     290A      4.880565   291A      4.899510   292A      4.992767  
     293A      5.010492   294A      5.025668   295A      5.037993  
     296A      5.062104   297A      5.103724   298A      5.125480  
     299A      5.157195   300A      5.159650   301A      5.171654  
     302A      5.273875   303A      5.286618   304A      5.334849  
     305A      5.358607   306A      5.366211   307A      5.381873  
     308A      5.429449   309A      5.433492   310A      5.482886  
     311A      5.521551   312A      5.579148   313A      5.581341  
     314A      5.598781   315A      5.610051   316A      5.695500  
     317A      5.716283   318A      5.721489   319A      5.730787  
     320A      5.795378   321A      5.866024   322A      5.902635  
     323A      5.997553   324A      6.002660   325A      6.013083  
     326A      6.153528   327A      6.154679   328A      6.158261  
     329A      6.203952   330A      6.302512   331A      6.354586  
     332A      6.373152   333A      6.476744   334A      6.588090  
     335A      6.711717   336A      6.725180   337A      6.733735  
     338A      6.754733   339A      6.824236   340A      6.854090  
     341A      6.969788   342A     16.604525   343A     16.975177  
     344A     17.778631   345A     18.633708  

    Final Occupation by Irrep:
              A 
    DOCC [    16 ]

  @DF-RHF Final Energy:  -172.16664614643383

   => Energetics <=

    Nuclear Repulsion Energy =            117.7322599114903596
    One-Electron Energy =                -464.8630063378142268
    Two-Electron Energy =                 174.9641002798900331
    Total Energy =                       -172.1666461464338340

Computation Completed

*** tstop() called on node100.bme.utexas.edu at Wed Nov  4 03:59:58 2020
Module time:
	user time   =      32.48 seconds =       0.54 minutes
	system time =       1.11 seconds =       0.02 minutes
	total time  =          5 seconds =       0.08 minutes
Total time:
	user time   =      32.48 seconds =       0.54 minutes
	system time =       1.11 seconds =       0.02 minutes
	total time  =          5 seconds =       0.08 minutes
   => Loading Basis Set <=

    Name: (AUG-CC-PVTZ AUX)
    Role: RIFIT
    Keyword: DF_BASIS_MP2
    atoms 1    entry N          line   206 file /home/xy3866/psi4conda/share/psi4/basis/aug-cc-pvtz-ri.gbs 
    atoms 2-4  entry C          line   148 file /home/xy3866/psi4conda/share/psi4/basis/aug-cc-pvtz-ri.gbs 
    atoms 5-11 entry H          line    30 file /home/xy3866/psi4conda/share/psi4/basis/aug-cc-pvtz-ri.gbs 


*** tstart() called on node100.bme.utexas.edu
*** at Wed Nov  4 03:59:58 2020


  //>>>>>>>>>>>>>>>>>>>>>>>>>>>>>>>>>>>//
  //               DFMP2               //
  //<<<<<<<<<<<<<<<<<<<<<<<<<<<<<<<<<<<//

	 --------------------------------------------------------
	                          DF-MP2                         
	      2nd-Order Density-Fitted Moller-Plesset Theory     
	              RMP2 Wavefunction,   8 Threads             
	                                                         
	        Rob Parrish, Justin Turney, Andy Simmonett,      
	           Ed Hohenstein, and C. David Sherrill          
	 --------------------------------------------------------

   => Auxiliary Basis Set <=

  Basis Set: (AUG-CC-PVTZ AUX)
    Blend: AUG-CC-PVTZ-RI
    Number of shells: 210
    Number of basis function: 746
    Number of Cartesian functions: 929
    Spherical Harmonics?: true
    Max angular momentum: 4

	 --------------------------------------------------------
	                 NBF =   345, NAUX =   746
	 --------------------------------------------------------
	   CLASS    FOCC     OCC    AOCC    AVIR     VIR    FVIR
	   PAIRS       0      16      16     329     329       0
	 --------------------------------------------------------

  DFHelper Memory: AOs need 0.676 GiB; user supplied 22.352 GiB. Using in-core AOs.


         ------------------------------------------------------------
                                     CPHF                           
                                  Rob Parrish                       
         ------------------------------------------------------------

  ==> Geometry <==

    Molecular point group: c1
    Full point group: C1

    Geometry (in Angstrom), charge = 0, multiplicity = 1:

       Center              X                  Y                   Z               Mass       
    ------------   -----------------  -----------------  -----------------  -----------------
         N           -0.483454522113    -0.470698651168    -0.000009001391    14.003074004430
         C            1.906986477887    -0.065096651168    -0.000015001391    12.000000000000
         C            0.447157277887     0.408343748832     0.000038798609    12.000000000000
         C           -1.833407522113     0.076698348832    -0.000008001391    12.000000000000
         H            2.429752477887     0.321922348832    -0.881137001391     1.007825032230
         H            2.429276477887     0.320028348832     0.882200998609     1.007825032230
         H            1.953370477887    -1.155005651168    -0.001116001391     1.007825032230
         H            0.293954477887     1.462912348832    -0.000030001391     1.007825032230
         H           -1.862588522113     1.176935348832    -0.000458001391     1.007825032230
         H           -2.363258522113    -0.293113651168     0.882312998609     1.007825032230
         H           -2.363537522113    -0.293845651168    -0.881836001391     1.007825032230

  Nuclear repulsion =  117.732259911490360
  Reference energy  = -172.166646146433834

  ==> Basis Set <==

  Basis Set: AUG-CC-PVTZ
    Blend: AUG-CC-PVTZ
    Number of shells: 119
    Number of basis function: 345
    Number of Cartesian functions: 395
    Spherical Harmonics?: true
    Max angular momentum: 3

  ==> CGRSolver (by Rob Parrish) <==

   Number of roots    =         1
   Preconditioning    =    JACOBI
   Convergence cutoff =     1E-06
   Maximum iterations =       100

  ==> CPHFRHamiltonian (by Rob Parrish) <== 

  ==> MemDFJK: Density-Fitted J/K Matrices <==

    J tasked:                   Yes
    K tasked:                   Yes
    wK tasked:                   No
    OpenMP threads:               8
    Memory [MiB]:             22888
    Algorithm:                 Core
    Schwarz Cutoff:           1E-12
    Mask sparsity (%):       2.0651
    Fitting Condition:        1E-10

   => Auxiliary Basis Set <=

  Basis Set: (AUG-CC-PVTZ AUX)
    Blend: AUG-CC-PVTZ-JKFIT
    Number of shells: 218
    Number of basis function: 738
    Number of Cartesian functions: 909
    Spherical Harmonics?: true
    Max angular momentum: 4

  ==> CPHF Iterations <==

  => Iterations <=

             Iter  Converged  Remaining    Residual
  CGR           1          0          1   8.064E-02
  CGR           2          0          1   1.825E-02
  CGR           3          0          1   6.835E-03
  CGR           4          0          1   1.495E-03
  CGR           5          0          1   3.870E-04
  CGR           6          0          1   1.351E-04
  CGR           7          0          1   3.978E-05
  CGR           8          0          1   1.441E-05
  CGR           9          0          1   3.532E-06
  CGR          10          1          0   9.803E-07

    CGRSolver converged.

	-----------------------------------------------------------
	 ==================> DF-MP2 Energies <==================== 
	-----------------------------------------------------------
	 Reference Energy          =    -172.1666461464338340 [Eh]
	 Singles Energy            =      -0.0000000000000000 [Eh]
	 Same-Spin Energy          =      -0.1758219990410482 [Eh]
	 Opposite-Spin Energy      =      -0.6271352020082304 [Eh]
	 Correlation Energy        =      -0.8029572010492785 [Eh]
	 Total Energy              =    -172.9696033474831154 [Eh]
	-----------------------------------------------------------
	 ================> DF-SCS-MP2 Energies <================== 
	-----------------------------------------------------------
	 SCS Same-Spin Scale       =       0.3333333333333333 [-]
	 SCS Opposite-Spin Scale   =       1.2000000000000000 [-]
	 SCS Same-Spin Energy      =      -0.0586073330136827 [Eh]
	 SCS Opposite-Spin Energy  =      -0.7525622424098765 [Eh]
	 SCS Correlation Energy    =      -0.8111695754235592 [Eh]
	 SCS Total Energy          =    -172.9778157218573824 [Eh]
	-----------------------------------------------------------



Properties will be evaluated at   0.000000,   0.000000,   0.000000 [a0]

Properties computed using the MP2 density matrix

  Nuclear Dipole Moment: [e a0]
     X:     0.4860      Y:     1.4449      Z:    -0.0001

  Electronic Dipole Moment: [e a0]
     X:    -0.3978      Y:    -0.8077      Z:     0.0001

  Dipole Moment: [e a0]
     X:     0.0882      Y:     0.6372      Z:     0.0000     Total:     0.6432

  Dipole Moment: [D]
     X:     0.2242      Y:     1.6195      Z:     0.0001     Total:     1.6350


*** tstop() called on node100.bme.utexas.edu at Wed Nov  4 04:00:11 2020
Module time:
	user time   =      86.17 seconds =       1.44 minutes
	system time =       2.26 seconds =       0.04 minutes
	total time  =         13 seconds =       0.22 minutes
Total time:
	user time   =     119.47 seconds =       1.99 minutes
	system time =       3.41 seconds =       0.06 minutes
	total time  =         18 seconds =       0.30 minutes

    Psi4 stopped on: Wednesday, 04 November 2020 04:00AM
    Psi4 wall time for execution: 0:00:18.29

*** Psi4 exiting successfully. Buy a developer a beer!
