opt=Tight                                                               
Freq      RMP2-FC                                                     6-31G(d)            
Number of atoms                            I                8
Info1-9                                    I   N=           9
          17          17        1002           0           0         100
           6           2           1
Charge                                     I               -1
Multiplicity                               I                1
Number of electrons                        I               38
Number of alpha electrons                  I               19
Number of beta electrons                   I               19
Number of basis functions                  I               81
Number of independent functions            I               81
Number of point charges in /Mol/           I                0
Number of translation vectors              I                0
Atomic numbers                             I   N=           8
           8           8           6           6           6           1
           1           1
Nuclear charges                            R   N=           8
  8.00000000E+00  8.00000000E+00  6.00000000E+00  6.00000000E+00  6.00000000E+00
  1.00000000E+00  1.00000000E+00  1.00000000E+00
Current cartesian coordinates              R   N=          24
 -3.01788360E+00 -1.43472227E+00 -8.21108401E-05 -1.20852532E+00  2.46773857E+00
  6.75472940E-05  1.42567679E+00 -1.19258917E+00  6.87791958E-06 -1.15442670E+00
  7.41984638E-02 -5.33850504E-07  3.61824145E+00  7.46106532E-02  1.02750780E-05
  1.41851173E+00 -3.25174109E+00 -8.68537322E-06  5.43841241E+00 -8.75613794E-01
  2.58001713E-06  3.61739806E+00  2.12590482E+00  2.28988422E-05
Force Field                                I                0
Int Atom Types                             I   N=           8
           0           0           0           0           0           0
           0           0
MM charges                                 R   N=           8
  0.00000000E+00  0.00000000E+00  0.00000000E+00  0.00000000E+00  0.00000000E+00
  0.00000000E+00  0.00000000E+00  0.00000000E+00
Integer atomic weights                     I   N=           8
          16          16          12          12          12           1
           1           1
Real atomic weights                        R   N=           8
  1.59949146E+01  1.59949146E+01  1.20000000E+01  1.20000000E+01  1.20000000E+01
  1.00782504E+00  1.00782504E+00  1.00782504E+00
Atom fragment info                         I   N=           8
           0           0           0           0           0           0
           0           0
Atom residue num                           I   N=           8
           0           0           0           0           0           0
           0           0
Nuclear spins                              I   N=           8
           0           0           0           0           0           1
           1           1
Nuclear ZEff                               R   N=           8
 -5.60000000E+00 -5.60000000E+00 -3.60000000E+00 -3.60000000E+00 -3.60000000E+00
 -1.00000000E+00 -1.00000000E+00 -1.00000000E+00
Nuclear QMom                               R   N=           8
  0.00000000E+00  0.00000000E+00  0.00000000E+00  0.00000000E+00  0.00000000E+00
  0.00000000E+00  0.00000000E+00  0.00000000E+00
Nuclear GFac                               R   N=           8
  0.00000000E+00  0.00000000E+00  0.00000000E+00  0.00000000E+00  0.00000000E+00
  2.79284600E+00  2.79284600E+00  2.79284600E+00
MicOpt                                     I   N=           8
          -1          -1          -1          -1          -1          -1
          -1          -1
Number of contracted shells                I               26
Number of primitive shells                 I               67
Pure/Cartesian d shells                    I                1
Pure/Cartesian f shells                    I                0
Highest angular momentum                   I                2
Largest degree of contraction              I                6
Shell types                                I   N=          26
           0          -1          -1           2           0          -1
          -1           2           0          -1          -1           2
           0          -1          -1           2           0          -1
          -1           2           0           0           0           0
           0           0
Number of primitives per shell             I   N=          26
           6           3           1           1           6           3
           1           1           6           3           1           1
           6           3           1           1           6           3
           1           1           3           1           3           1
           3           1
Shell to atom map                          I   N=          26
           1           1           1           1           2           2
           2           2           3           3           3           3
           4           4           4           4           5           5
           5           5           6           6           7           7
           8           8
Primitive exponents                        R   N=          67
  5.48467166E+03  8.25234946E+02  1.88046958E+02  5.29645000E+01  1.68975704E+01
  5.79963534E+00  1.55396162E+01  3.59993359E+00  1.01376175E+00  2.70005823E-01
  8.00000000E-01  5.48467166E+03  8.25234946E+02  1.88046958E+02  5.29645000E+01
  1.68975704E+01  5.79963534E+00  1.55396162E+01  3.59993359E+00  1.01376175E+00
  2.70005823E-01  8.00000000E-01  3.04752488E+03  4.57369518E+02  1.03948685E+02
  2.92101553E+01  9.28666296E+00  3.16392696E+00  7.86827235E+00  1.88128854E+00
  5.44249258E-01  1.68714478E-01  8.00000000E-01  3.04752488E+03  4.57369518E+02
  1.03948685E+02  2.92101553E+01  9.28666296E+00  3.16392696E+00  7.86827235E+00
  1.88128854E+00  5.44249258E-01  1.68714478E-01  8.00000000E-01  3.04752488E+03
  4.57369518E+02  1.03948685E+02  2.92101553E+01  9.28666296E+00  3.16392696E+00
  7.86827235E+00  1.88128854E+00  5.44249258E-01  1.68714478E-01  8.00000000E-01
  1.87311370E+01  2.82539436E+00  6.40121692E-01  1.61277759E-01  1.87311370E+01
  2.82539436E+00  6.40121692E-01  1.61277759E-01  1.87311370E+01  2.82539436E+00
  6.40121692E-01  1.61277759E-01
Contraction coefficients                   R   N=          67
  1.83107443E-03  1.39501722E-02  6.84450781E-02  2.32714336E-01  4.70192898E-01
  3.58520853E-01 -1.10777550E-01 -1.48026263E-01  1.13076702E+00  1.00000000E+00
  1.00000000E+00  1.83107443E-03  1.39501722E-02  6.84450781E-02  2.32714336E-01
  4.70192898E-01  3.58520853E-01 -1.10777550E-01 -1.48026263E-01  1.13076702E+00
  1.00000000E+00  1.00000000E+00  1.83473713E-03  1.40373228E-02  6.88426223E-02
  2.32184443E-01  4.67941348E-01  3.62311985E-01 -1.19332420E-01 -1.60854152E-01
  1.14345644E+00  1.00000000E+00  1.00000000E+00  1.83473713E-03  1.40373228E-02
  6.88426223E-02  2.32184443E-01  4.67941348E-01  3.62311985E-01 -1.19332420E-01
 -1.60854152E-01  1.14345644E+00  1.00000000E+00  1.00000000E+00  1.83473713E-03
  1.40373228E-02  6.88426223E-02  2.32184443E-01  4.67941348E-01  3.62311985E-01
 -1.19332420E-01 -1.60854152E-01  1.14345644E+00  1.00000000E+00  1.00000000E+00
  3.34946043E-02  2.34726953E-01  8.13757326E-01  1.00000000E+00  3.34946043E-02
  2.34726953E-01  8.13757326E-01  1.00000000E+00  3.34946043E-02  2.34726953E-01
  8.13757326E-01  1.00000000E+00
P(S=P) Contraction coefficients            R   N=          67
  0.00000000E+00  0.00000000E+00  0.00000000E+00  0.00000000E+00  0.00000000E+00
  0.00000000E+00  7.08742682E-02  3.39752839E-01  7.27158577E-01  1.00000000E+00
  0.00000000E+00  0.00000000E+00  0.00000000E+00  0.00000000E+00  0.00000000E+00
  0.00000000E+00  0.00000000E+00  7.08742682E-02  3.39752839E-01  7.27158577E-01
  1.00000000E+00  0.00000000E+00  0.00000000E+00  0.00000000E+00  0.00000000E+00
  0.00000000E+00  0.00000000E+00  0.00000000E+00  6.89990666E-02  3.16423961E-01
  7.44308291E-01  1.00000000E+00  0.00000000E+00  0.00000000E+00  0.00000000E+00
  0.00000000E+00  0.00000000E+00  0.00000000E+00  0.00000000E+00  6.89990666E-02
  3.16423961E-01  7.44308291E-01  1.00000000E+00  0.00000000E+00  0.00000000E+00
  0.00000000E+00  0.00000000E+00  0.00000000E+00  0.00000000E+00  0.00000000E+00
  6.89990666E-02  3.16423961E-01  7.44308291E-01  1.00000000E+00  0.00000000E+00
  0.00000000E+00  0.00000000E+00  0.00000000E+00  0.00000000E+00  0.00000000E+00
  0.00000000E+00  0.00000000E+00  0.00000000E+00  0.00000000E+00  0.00000000E+00
  0.00000000E+00  0.00000000E+00
Coordinates of each shell                  R   N=          78
 -3.01788360E+00 -1.43472227E+00 -8.21108401E-05 -3.01788360E+00 -1.43472227E+00
 -8.21108401E-05 -3.01788360E+00 -1.43472227E+00 -8.21108401E-05 -3.01788360E+00
 -1.43472227E+00 -8.21108401E-05 -1.20852532E+00  2.46773857E+00  6.75472940E-05
 -1.20852532E+00  2.46773857E+00  6.75472940E-05 -1.20852532E+00  2.46773857E+00
  6.75472940E-05 -1.20852532E+00  2.46773857E+00  6.75472940E-05  1.42567679E+00
 -1.19258917E+00  6.87791958E-06  1.42567679E+00 -1.19258917E+00  6.87791958E-06
  1.42567679E+00 -1.19258917E+00  6.87791958E-06  1.42567679E+00 -1.19258917E+00
  6.87791958E-06 -1.15442670E+00  7.41984638E-02 -5.33850504E-07 -1.15442670E+00
  7.41984638E-02 -5.33850504E-07 -1.15442670E+00  7.41984638E-02 -5.33850504E-07
 -1.15442670E+00  7.41984638E-02 -5.33850504E-07  3.61824145E+00  7.46106532E-02
  1.02750780E-05  3.61824145E+00  7.46106532E-02  1.02750780E-05  3.61824145E+00
  7.46106532E-02  1.02750780E-05  3.61824145E+00  7.46106532E-02  1.02750780E-05
  1.41851173E+00 -3.25174109E+00 -8.68537322E-06  1.41851173E+00 -3.25174109E+00
 -8.68537322E-06  5.43841241E+00 -8.75613794E-01  2.58001713E-06  5.43841241E+00
 -8.75613794E-01  2.58001713E-06  3.61739806E+00  2.12590482E+00  2.28988422E-05
  3.61739806E+00  2.12590482E+00  2.28988422E-05
Constraint Structure                       R   N=          24
 -3.01788360E+00 -1.43472227E+00 -8.21108401E-05 -1.20852532E+00  2.46773857E+00
  6.75472940E-05  1.42567679E+00 -1.19258917E+00  6.87791958E-06 -1.15442670E+00
  7.41984638E-02 -5.33850504E-07  3.61824145E+00  7.46106532E-02  1.02750780E-05
  1.41851173E+00 -3.25174109E+00 -8.68537322E-06  5.43841241E+00 -8.75613794E-01
  2.58001713E-06  3.61739806E+00  2.12590482E+00  2.28988422E-05
Num ILSW                                   I              100
ILSW                                       I   N=         100
           0           1           0           0           2           0
           0           0           0           0           0          -1
           0           0           0           0           0           0
           0           0           0           0           1           0
           1           0           0           0           0           0
           0           0      100000           0          -1           0
           0           0           0           0           0           0
           0           0           0           1           1           0
           0           0           1           0           0           0
           0           0           4          40           0           0
           0           0           0           0           0           0
           0           0           0           0           0           0
           0           0           0           0           0           0
           0           0           0           0           0           0
           0           0           0           0           0           0
           0           0           0           0           0           0
           0           0           0           0
Num RLSW                                   I               40
RLSW                                       R   N=          40
  1.00000000E+00  1.00000000E+00  1.00000000E+00  1.00000000E+00  1.00000000E+00
  0.00000000E+00  0.00000000E+00  1.00000000E+00  0.00000000E+00  0.00000000E+00
  0.00000000E+00  0.00000000E+00  1.00000000E+00  0.00000000E+00  0.00000000E+00
  0.00000000E+00  0.00000000E+00  1.00000000E+00  0.00000000E+00  0.00000000E+00
  0.00000000E+00  0.00000000E+00  1.00000000E+00  0.00000000E+00  0.00000000E+00
  0.00000000E+00  0.00000000E+00  1.00000000E+00  0.00000000E+00  0.00000000E+00
  0.00000000E+00  0.00000000E+00  0.00000000E+00  0.00000000E+00  0.00000000E+00
  0.00000000E+00  0.00000000E+00  0.00000000E+00  1.00000000E+00  1.00000000E+00
MxBond                                     I                3
NBond                                      I   N=           8
           1           1           3           3           3           1
           1           1
IBond                                      I   N=          24
           4           0           0           4           0           0
           4           5           6           1           2           3
           3           7           8           3           0           0
           5           0           0           5           0           0
RBond                                      R   N=          24
  2.00000000E+00  0.00000000E+00  0.00000000E+00  2.00000000E+00  0.00000000E+00
  0.00000000E+00  1.00000000E+00  2.00000000E+00  1.00000000E+00  2.00000000E+00
  2.00000000E+00  1.00000000E+00  2.00000000E+00  1.00000000E+00  1.00000000E+00
  1.00000000E+00  0.00000000E+00  0.00000000E+00  1.00000000E+00  0.00000000E+00
  0.00000000E+00  1.00000000E+00  0.00000000E+00  0.00000000E+00
Virial Ratio                               R      2.002901138587272E+00
SCF Energy                                 R     -2.651757004745480E+02
MP2 Energy                                 R     -2.659090121317762E+02
Total Energy                               R     -2.659090121317762E+02
Post-SCF wavefunction norm                 R      1.570324124758220E+00
RMS Force                                  R      8.273685006415591E-06
RMS Density                                R      1.375297195514619E-09
External E-field                           R   N=          35
  0.00000000E+00  0.00000000E+00  0.00000000E+00  0.00000000E+00  0.00000000E+00
  0.00000000E+00  0.00000000E+00  0.00000000E+00  0.00000000E+00  0.00000000E+00
  0.00000000E+00  0.00000000E+00  0.00000000E+00  0.00000000E+00  0.00000000E+00
  0.00000000E+00  0.00000000E+00  0.00000000E+00  0.00000000E+00  0.00000000E+00
  0.00000000E+00  0.00000000E+00  0.00000000E+00  0.00000000E+00  0.00000000E+00
  0.00000000E+00  0.00000000E+00  0.00000000E+00  0.00000000E+00  0.00000000E+00
  0.00000000E+00  0.00000000E+00  0.00000000E+00  0.00000000E+00  0.00000000E+00
IOpCl                                      I                0
IROHF                                      I                0
Alpha Orbital Energies                     R   N=          81
 -2.04648606E+01 -2.04636955E+01 -1.13108061E+01 -1.12220400E+01 -1.12137762E+01
 -1.32920359E+00 -1.22830046E+00 -1.02245969E+00 -8.10412188E-01 -6.79459734E-01
 -6.19894617E-01 -5.94400625E-01 -5.48773283E-01 -5.27367257E-01 -5.06482297E-01
 -3.76353194E-01 -3.73198624E-01 -3.62059894E-01 -3.56196387E-01  1.52778845E-01
  2.88169354E-01  3.11906514E-01  3.36361305E-01  3.59652158E-01  4.98797892E-01
  5.15411810E-01  5.40622341E-01  5.82021095E-01  7.71989572E-01  7.79076435E-01
  8.60271628E-01  8.67894714E-01  8.87056830E-01  9.23906514E-01  9.35433188E-01
  9.57294453E-01  1.03996489E+00  1.13444915E+00  1.14437717E+00  1.16541675E+00
  1.18739955E+00  1.21178786E+00  1.29709794E+00  1.30466789E+00  1.35565165E+00
  1.40004435E+00  1.44053429E+00  1.46033532E+00  1.61809463E+00  1.64086357E+00
  1.73413086E+00  1.76208489E+00  1.81045860E+00  1.96945540E+00  2.03811109E+00
  2.10236532E+00  2.17713484E+00  2.17944095E+00  2.18746168E+00  2.21118519E+00
  2.29811704E+00  2.31817771E+00  2.40946222E+00  2.41731592E+00  2.43855501E+00
  2.54548734E+00  2.67583223E+00  2.76176010E+00  2.86988667E+00  2.96942270E+00
  3.04232454E+00  3.09357520E+00  3.27347981E+00  3.31025087E+00  3.47725124E+00
  3.54739678E+00  4.30093254E+00  4.52163796E+00  4.65312708E+00  4.78238581E+00
  4.90804024E+00
Alpha MO coefficients                      R   N=        6561
  9.94593812E-01  2.09945238E-02  9.76085398E-04  8.04439415E-04  4.36329908E-08
  4.17304255E-03 -1.34787885E-04 -8.32694668E-05 -5.20648899E-09 -3.81452825E-03
 -3.84972702E-03 -4.03629845E-03  5.31893547E-05  6.72991153E-09  7.24179911E-09
 -1.38556362E-02 -3.42695681E-04  3.11163519E-05  2.30362387E-05  1.41988422E-09
  2.39991956E-04  2.89590156E-05 -1.41102811E-04 -3.83724641E-09  1.00301064E-05
  6.13931568E-05 -1.36873589E-05 -1.09635430E-04 -2.70527869E-09  3.10686121E-10
 -2.93419314E-06  1.82467181E-05  2.53678598E-05 -1.57548776E-06  4.57844902E-10
  7.20812407E-05  2.09122654E-04  4.43235525E-05  1.79938869E-09 -8.89254395E-05
  8.56310304E-06 -2.04478635E-05 -1.14937258E-05 -1.73002838E-09  6.14087878E-10
 -6.10623056E-06  4.94377336E-04 -1.06568416E-04 -1.14031954E-04 -5.29047979E-09
 -3.18506794E-04  3.19448323E-04 -2.25589762E-05  5.93296098E-09 -3.31882390E-04
 -2.89136455E-04 -5.46903234E-05 -3.10599883E-04 -1.55286560E-08 -1.41964458E-08
  4.25095467E-06  2.32574648E-05 -1.57332132E-05 -6.33567035E-06  4.16811734E-10
 -2.17405015E-04  1.25126435E-04  3.32429081E-05 -1.01881880E-09  3.29649606E-06
  1.32394043E-05  1.03394998E-05  1.35769312E-05  1.20368988E-10 -1.36166835E-10
  1.39517181E-05 -4.11087561E-05  3.94718934E-06 -3.19822974E-05  1.42018968E-05
 -1.08510608E-05  1.38349826E-02  2.40663300E-04  2.93448566E-05 -1.60248021E-05
  1.07259235E-11  3.39090594E-04  1.29064329E-04  6.89356923E-05  4.94137264E-09
  3.19745952E-05 -1.68534596E-04 -1.29568717E-04  1.54583011E-05  4.31284771E-09
 -1.01117474E-09  9.94588497E-01  2.09893546E-02  3.19544348E-05 -1.27855121E-03
 -3.64900867E-08  4.26104790E-03 -1.95304939E-05  1.44927945E-04  3.19036809E-09
 -3.90113463E-03 -3.79248329E-03 -4.04213262E-03 -1.03536677E-05  3.01553834E-09
  8.30265197E-09 -6.27156688E-07  1.01473527E-05  2.19241534E-05 -2.54281322E-05
 -6.66548772E-10  1.06045077E-04  2.36286868E-04  3.81737266E-05  1.01956308E-09
  1.69489560E-05 -5.03892740E-05 -1.62982033E-05  5.67564812E-05  1.55961865E-09
 -6.59743202E-10 -6.96894437E-06  5.14013882E-04  1.42058151E-05  1.47228278E-04
  4.80296913E-09 -3.38062627E-04  2.07614234E-04 -2.99743699E-04 -4.57062366E-09
 -6.37767665E-05 -5.98791277E-04 -5.81964331E-05 -3.87632927E-05 -1.35371753E-09
 -1.87797168E-08  2.07289556E-06  1.46900450E-05 -2.08762583E-06  1.06500820E-05
  2.52628477E-10 -1.49768672E-04  1.89904603E-04  9.94231321E-05 -9.32829838E-10
 -1.78933381E-05 -9.51409788E-06  1.02130903E-05 -1.92315666E-05  3.47557239E-10
  2.30604431E-11  1.53414820E-05 -2.23543993E-05 -3.47287089E-06 -5.98933098E-05
  3.63150412E-05 -1.42753338E-04 -1.99298253E-04  5.11783020E-04  9.79895698E-05
  1.85052360E-04  7.86739541E-09 -1.82914027E-03 -7.59406857E-04 -1.51746753E-03
 -6.19576584E-08 -7.98200173E-05 -6.71494871E-05  4.03711306E-04 -2.85563152E-04
 -1.98976691E-08 -2.21536187E-08 -1.87271465E-04  5.70674926E-04 -7.67123593E-05
 -1.94610982E-04 -7.69912029E-09 -2.34535911E-03  6.55382400E-04  1.65577587E-03
  6.14696294E-08  2.23741599E-04 -2.65843811E-04  4.32661868E-04 -5.08187332E-05
 -5.47470193E-09 -2.39258058E-08  2.90936297E-03  1.79623265E-04  6.60221917E-05
 -6.08204268E-05  5.91428703E-10  3.51550082E-03 -2.63943096E-03  4.67187994E-04
 -7.66418922E-09 -5.97312079E-04 -2.73097272E-04 -2.00493136E-04  1.33179256E-04
 -1.83316234E-09  2.15195083E-10  9.95933810E-01  2.57385339E-02 -2.14472271E-04
  8.27637794E-05 -2.62446808E-09 -6.31556834E-03 -3.73961984E-03  2.16002270E-03
 -7.40915559E-09 -1.11930924E-03 -4.81566225E-04 -2.19358095E-03  4.15425176E-04
  3.57609590E-08  6.66016666E-08 -5.51786317E-05 -2.38671569E-04  8.39554861E-05
 -7.93170953E-05  7.05924878E-10  1.08268629E-03 -8.51058661E-04 -2.50721720E-04
 -1.23081743E-09  5.77490602E-05  5.79626944E-05 -1.33435910E-04  7.87845239E-05
  4.59448352E-10 -8.42551319E-11 -1.69781617E-04 -2.49140140E-06 -1.14629062E-06
  3.65129908E-04 -1.12954037E-04  9.97182916E-05 -3.74573899E-05 -1.73621217E-04
 -1.18673321E-05 -2.66022731E-07 -1.48833419E-09  9.81090136E-04  2.82778896E-04
  9.46285615E-05  1.38330591E-08 -5.49471950E-05 -1.20535431E-04 -1.18389374E-04
  8.48920123E-06  2.67012788E-09  1.08001321E-13  1.34393058E-05  4.69652213E-05
 -1.07765763E-05  3.37442824E-06 -6.53296957E-10 -4.42940412E-04 -1.03551291E-04
  3.93873657E-05  2.95990298E-09  3.01215900E-05  5.91571787E-05  6.38632648E-06
  6.73382268E-06  6.57485722E-10  1.42165129E-09  9.71780422E-02  2.38097417E-03
 -1.67575262E-04 -1.07286944E-04 -9.27635443E-10  2.79449945E-03  1.39132572E-03
  5.31363197E-04 -2.49737865E-10 -4.20920533E-04 -4.60755816E-04 -3.02843521E-04
  3.45660583E-05  1.23643431E-09 -1.10089290E-09 -3.11155708E-04 -1.24571943E-04
 -2.20311546E-05 -5.51187929E-06  9.61788339E-10  1.03120536E-04  5.33244670E-04
  5.25640845E-04  1.88037168E-08  3.51612157E-07 -7.27825273E-05 -4.91930059E-05
 -5.97414142E-06 -9.13245966E-10 -2.20752953E-09  9.90809341E-01  2.72590634E-02
  3.90852941E-05 -1.93925628E-05 -1.48256387E-09 -1.10073848E-02  4.76788218E-04
  2.52084525E-04  4.95997257E-10 -1.72284447E-03 -1.92632038E-03 -2.51507514E-03
  1.77165589E-04 -6.02622376E-10  3.47134596E-09 -8.77313870E-05  5.12406780E-05
 -1.74024649E-04  2.06491210E-03 -1.26561467E-04  2.07164105E-03  2.78216104E-06
 -8.60896256E-05 -1.15837646E-05  2.39204473E-06  1.49506355E-09  7.74778290E-05
 -4.64933952E-05  6.75032567E-05 -1.56099329E-09  7.26442741E-05  2.62160761E-05
 -6.26343432E-05 -5.98020114E-06  1.77387210E-09  4.50144720E-09  2.77719246E-05
  4.25724596E-05 -1.52104395E-05 -1.22021345E-05 -3.19900226E-09 -8.13162692E-04
 -1.40116233E-04  1.82754335E-04  1.05775311E-08  1.21646733E-04  1.41233543E-04
 -1.17113570E-05  9.94914645E-06  3.93747051E-09  4.63097776E-09  9.90915094E-01
  2.74474851E-02  1.64266718E-04  1.18730862E-04 -6.44066715E-09 -1.35252630E-02
 -2.82187868E-04 -1.65887509E-03  8.21452331E-09 -1.47091271E-03 -1.79819057E-03
 -2.33342464E-03  2.29221299E-04  1.59117023E-09  3.77508183E-09 -3.24200160E-03
 -2.73478154E-07 -2.60728787E-05  3.72884714E-05  1.46711806E-10  3.93604689E-03
  1.70366069E-03 -9.35905718E-05  1.52420769E-08 -4.99268957E-04 -3.82768001E-04
 -1.61839682E-04  1.98922543E-04 -1.97566296E-09 -9.83630595E-10 -9.78194950E-02
 -3.00435758E-03  2.06739228E-04  1.12793361E-04 -3.66132050E-10  5.89897361E-03
 -1.98569933E-03 -4.77357746E-04 -1.95542223E-09 -1.45010252E-04 -1.37536641E-04
  1.75517854E-04 -1.02726186E-04  4.24398284E-10 -7.24343057E-10 -1.64738284E-04
  1.71832045E-03 -1.99831735E-05 -8.77967670E-05 -9.98141032E-05 -5.42504387E-04
 -1.31865330E-01  2.88095617E-01  6.95946216E-02  6.19778274E-02  3.19605291E-06
  2.73825325E-01  2.61429991E-02  2.93882221E-02  1.38618625E-06  6.23925760E-03
  5.73415250E-03 -8.35901751E-04  9.80875949E-03  4.52556713E-07  4.17825713E-07
 -1.31394431E-01  2.86510893E-01 -2.64362706E-03 -9.30006392E-02 -2.75526080E-06
  2.75379851E-01 -5.60879250E-03 -3.92761518E-02 -1.27192452E-06 -2.66025038E-03
  1.41260015E-02 -9.63823092E-04  1.33149393E-03 -6.88255240E-09  5.35803607E-07
 -2.38648678E-02  4.56567389E-02 -2.83669450E-02  1.57790291E-02 -1.03817267E-07
  1.40046904E-02  5.52819071E-03  3.28191102E-03  1.71128879E-08  7.79516128E-03
  1.44073103E-03 -1.82382219E-03 -4.46993537E-03  1.61437053E-08 -2.72740531E-08
 -1.31952424E-01  2.54029565E-01 -7.37702164E-02  3.38407458E-02 -5.53636340E-07
  7.53988290E-02  2.35034336E-02 -1.37443072E-02  8.28259847E-08 -2.89396408E-03
  2.07144811E-02 -2.08602565E-02  1.59158316E-02  8.67745435E-07  1.71318115E-06
 -6.85418878E-03  1.44130184E-02 -9.55289079E-03 -8.48225754E-04  3.59490379E-09
 -3.61248894E-04  5.18933781E-03 -1.20418284E-03 -3.77398396E-08  1.23961313E-03
 -2.14518309E-04 -3.05264716E-05 -4.76984478E-05 -4.40620302E-09  2.49729753E-09
  8.96289405E-03  1.66685809E-03  1.35574104E-03 -2.91489449E-03  4.46465033E-03
  2.85334959E-03 -1.51736780E-01  3.25867634E-01  6.39893392E-02  3.50198700E-02
  2.31000603E-06  3.55071467E-01  3.13988042E-02  1.24111329E-02  1.03100955E-06
  5.90713478E-03 -1.60715031E-03 -3.26433515E-03  5.43123861E-03  3.80223468E-07
  1.68461634E-07  1.51886182E-01 -3.26134925E-01 -1.43377864E-02  7.18462980E-02
  1.79527467E-06 -3.54249461E-01 -9.59014073E-03  3.15032467E-02  7.32105270E-07
  3.06459071E-03 -7.40188869E-03  3.30113957E-03  3.28914667E-03  9.25169900E-08
 -2.96379075E-07  7.27875779E-04 -1.21902827E-03 -8.18903543E-03 -1.35074866E-02
 -4.15391418E-07  1.25185066E-03 -1.58105243E-02 -1.24026314E-02 -4.98236203E-07
  1.56428355E-03 -1.17422298E-03  2.66637500E-05  1.18777965E-03  9.38293269E-08
 -3.83596771E-08  4.06536971E-04 -2.51182065E-04 -1.03374725E-01 -2.23757824E-01
 -8.54745165E-06 -7.02444201E-03  7.31114875E-03  2.44611068E-02  7.91769951E-07
  2.11979669E-02 -2.13034419E-02  2.40916583E-04  2.08715817E-02  1.09508682E-06
 -2.92891192E-07  4.84408222E-03 -7.59736691E-03  4.40697407E-03 -8.28638929E-04
 -7.91580284E-08  5.61489296E-03  3.33260555E-03 -5.07305155E-03  5.17164035E-08
 -9.72150045E-04 -1.83670780E-04  8.07766593E-04  8.51715709E-05  5.75003020E-09
 -1.21513215E-08  3.29748070E-03 -6.13685844E-04 -1.52422884E-03 -3.84825004E-03
 -3.41689651E-03 -2.86302013E-03  2.30627534E-02 -5.11535807E-02  1.36079808E-02
 -1.44522507E-02 -2.58601316E-07 -5.63304264E-02  6.27089201E-03 -5.01572332E-03
 -2.30458923E-08  1.24669704E-03 -2.04233481E-03  7.39720866E-05 -5.50549451E-04
  2.46890126E-09 -8.76129752E-08  3.18817565E-02 -6.80683908E-02  2.45721637E-02
  2.17485439E-05  2.82577755E-07 -9.20979040E-02  9.87364356E-03  2.51224518E-03
  1.70793041E-07  1.06378179E-03 -1.44302057E-04  7.10747257E-04 -2.11100911E-03
 -6.30768560E-08 -5.45171294E-08 -1.55870244E-01  2.96997216E-01  8.07082023E-02
  5.29079808E-02 -1.83311452E-07  2.30341774E-01  6.79717415E-03 -5.15380985E-03
 -1.89471045E-07  1.12083489E-02  6.43925693E-03 -1.14159042E-02  7.32778535E-03
  3.28138353E-08  5.15720938E-08 -2.09521372E-02  4.52877869E-02  9.99439308E-02
 -4.95692098E-02  1.04415007E-07  3.06872460E-02  1.83687627E-02  2.94774489E-03
  2.57004898E-07  1.13962466E-02 -5.30865327E-03 -9.78005161E-04 -8.94767365E-03
 -6.34345075E-08 -3.01206471E-07 -1.51394884E-01  2.86966872E-01 -9.01559240E-02
 -5.07943391E-02 -1.62357124E-07  2.29405366E-01 -2.89836200E-03 -3.47953190E-03
 -5.20649565E-08  1.36186859E-02  7.40156016E-03 -1.20565963E-02  6.06483625E-03
  2.66945160E-09  1.14491008E-07  8.04123000E-02  9.97852627E-03  7.88344767E-02
  1.23180214E-02  7.92042741E-02  1.15762224E-02 -5.02643328E-02  1.10320388E-01
 -9.17336580E-02  6.07547854E-03 -1.79114251E-06  1.60144923E-01 -4.95723537E-02
 -9.68010943E-04 -1.10251146E-06 -7.71723895E-03  2.02390140E-03  2.59626686E-04
 -2.91355285E-03 -2.80571711E-07 -8.84084046E-09 -3.61055809E-02  7.97034285E-02
 -4.27396089E-02  5.46087088E-02  4.28163685E-07  1.13139098E-01 -1.94750159E-02
  3.31103186E-02  3.88446687E-07  1.21105121E-03 -4.86715848E-03  3.62201470E-04
  4.12003654E-03  1.28614966E-07 -6.98423888E-08  9.19988031E-02 -1.81794475E-01
  1.94337334E-01  4.17677604E-02  7.26104606E-07 -1.86995337E-01  4.64141810E-02
  1.94992509E-02  8.93741506E-08 -5.25558419E-03 -1.11176640E-02  7.35796217E-03
  1.31826923E-02  2.55862244E-08 -6.08999584E-08  7.69549367E-02 -1.69197923E-01
 -1.63866002E-01  8.44075528E-02 -1.07723062E-06 -1.18718512E-01 -4.88542469E-02
  2.45736125E-02 -3.70185364E-07 -7.97870152E-03  1.55793130E-03  5.06731277E-03
  1.29991165E-02  5.81997390E-08  1.31193864E-07 -1.22058236E-01  2.34468911E-01
  1.01244196E-01  3.93673304E-02  2.70427474E-07  2.47361955E-01  3.77683229E-02
  1.18936149E-02  1.77425132E-07  7.26133897E-03  1.52412108E-02 -1.09222629E-02
 -8.22729376E-03 -1.00817620E-07  1.74013290E-07 -9.54042090E-02 -3.42070119E-02
  1.34484779E-01  5.69035095E-02  1.18710621E-01  5.30574675E-02  4.64959700E-02
 -1.00007765E-01  1.26584288E-01  9.01682039E-02  4.58310187E-06 -1.76209022E-01
  7.44063735E-02  6.28143453E-02  2.92305821E-06  7.93332397E-03  3.95229616E-03
 -7.81935934E-04  9.38582229E-03  4.30060400E-07  3.13966625E-07  6.22225405E-02
 -1.38304010E-01  5.61388648E-02 -1.85040080E-01 -5.18102212E-06 -2.08734394E-01
  2.92621766E-02 -1.20813936E-01 -3.60729300E-06 -3.19128841E-03  1.55126284E-02
 -2.12758630E-03 -3.15311163E-03 -1.35345829E-07  6.08743334E-07  6.08963866E-02
 -1.15953700E-01 -1.63250164E-01  1.99064672E-01  7.43770940E-07 -1.16949190E-01
 -1.78653068E-02  1.01002319E-01  6.64317488E-07  8.92605306E-03 -1.55087212E-02
  4.57030320E-03 -7.86440785E-03  3.11968289E-08 -2.88132272E-07 -1.00665941E-01
  2.25481144E-01  5.56355013E-02 -5.85573937E-03 -1.45966286E-07  1.57462210E-01
  4.72105929E-02 -4.31978085E-02 -5.62518744E-07  1.75694933E-03 -3.34509379E-03
 -7.88791859E-03  2.55338285E-03  2.54773366E-07  2.03106287E-07 -3.03798983E-02
  6.11957196E-02  7.19547420E-02  2.07032009E-01  8.34560254E-07  5.19926881E-02
  5.27040618E-02  8.57292361E-02  2.75875980E-08 -1.46967758E-03  1.15802814E-02
 -2.73999263E-03 -9.33150285E-03 -8.55728058E-09  1.10592121E-07 -1.64454176E-01
 -9.70163228E-02  1.54819919E-02  5.15937613E-04  1.40773063E-01  7.28441593E-02
  5.84732242E-02 -1.26959855E-01  1.60467761E-01  2.16532375E-01  1.11225792E-05
 -2.23295653E-01  1.02323394E-01  1.45005923E-01  7.38690498E-06  7.25007775E-03
  1.08783704E-02 -2.41235417E-03  1.53661037E-02  7.93456601E-07  8.43634821E-07
  2.62541310E-02 -5.56156540E-02 -1.48160647E-01 -1.42524611E-01 -5.05264234E-06
 -1.06001312E-01 -1.03780225E-01 -9.28732438E-02 -3.41189265E-06 -3.40740165E-03
  1.24477971E-02 -8.03305440E-04  9.96209467E-03  2.48168628E-07  4.76016659E-07
  1.48957222E-02 -3.05820610E-02  8.32754322E-03 -1.89505211E-01 -9.78756327E-07