
    -----------------------------------------------------------------------
          Psi4: An Open-Source Ab Initio Electronic Structure Package
                               Psi4 1.3.2 release

                         Git: Rev {HEAD} ecbda83 


    R. M. Parrish, L. A. Burns, D. G. A. Smith, A. C. Simmonett,
    A. E. DePrince III, E. G. Hohenstein, U. Bozkaya, A. Yu. Sokolov,
    R. Di Remigio, R. M. Richard, J. F. Gonthier, A. M. James,
    H. R. McAlexander, A. Kumar, M. Saitow, X. Wang, B. P. Pritchard,
    P. Verma, H. F. Schaefer III, K. Patkowski, R. A. King, E. F. Valeev,
    F. A. Evangelista, J. M. Turney, T. D. Crawford, and C. D. Sherrill,
    J. Chem. Theory Comput. 13(7) pp 3185--3197 (2017).
    (doi: 10.1021/acs.jctc.7b00174)


                         Additional Contributions by
    P. Kraus, H. Kruse, M. H. Lechner, M. C. Schieber, R. A. Shaw,
    A. Alenaizan, R. Galvelis, Z. L. Glick, S. Lehtola, and J. P. Misiewicz

    -----------------------------------------------------------------------


    Psi4 started on: Sunday, 08 November 2020 09:52PM

    Process ID: 111993
    Host:       node59.bme.utexas.edu
    PSIDATADIR: /home/xy3866/psi4conda/share/psi4
    Memory:     500.0 MiB
    Threads:    8
    
  ==> Input File <==

--------------------------------------------------------------------------
#psi4
#
memory 32 gb

molecule  {
0 1
  N        1.9514160     0.5241040     0.0000050
  C        1.2282460    -0.6072470    -0.0000030
  C       -0.1789070    -0.5171830    -0.0000110
  C       -0.7103380     0.7755800     0.0000000
  N       -0.0279430     1.9332850     0.0000050
  C        1.2911430     1.7045360     0.0000120
  N       -1.1651470    -1.4838950    -0.0000170
  C       -2.2855240    -0.7743080     0.0000440
  N       -2.0747130     0.5813540    -0.0000230
  N        1.8664710    -1.8000490    -0.0000060
  H        1.9266827     2.5875896    -0.2499980
  H       -3.2831410    -1.1955370     0.0000680
  H       -2.7752520     1.3134440    -0.0000840
  H        2.8756040    -1.8180060     0.0000090
  H        1.3377970    -2.6593590     0.0000020
units angstrom
no_reorient  #important for SAPT in psi4, default
symmetry c1  #important for SAPT in psi4, default
}

set PROPERTIES_ORIGIN ["COM"]
properties('MP2/aug-cc-pvtz', properties = ['dipole'])
--------------------------------------------------------------------------

  Memory set to  29.802 GiB by Python driver.
    SCF Algorithm Type (re)set to DF.

*** tstart() called on node59.bme.utexas.edu
*** at Sun Nov  8 21:52:42 2020

   => Loading Basis Set <=

    Name: AUG-CC-PVTZ
    Role: ORBITAL
    Keyword: BASIS
    atoms 1, 5, 7, 9-10 entry N          line   281 file /home/xy3866/psi4conda/share/psi4/basis/aug-cc-pvtz.gbs 
    atoms 2-4, 6, 8     entry C          line   235 file /home/xy3866/psi4conda/share/psi4/basis/aug-cc-pvtz.gbs 
    atoms 11-15         entry H          line    36 file /home/xy3866/psi4conda/share/psi4/basis/aug-cc-pvtz.gbs 


         ---------------------------------------------------------
                                   SCF
               by Justin Turney, Rob Parrish, Andy Simmonett
                          and Daniel G. A. Smith
                              RHF Reference
                        8 Threads,  30517 MiB Core
         ---------------------------------------------------------

  ==> Geometry <==

    Molecular point group: c1
    Full point group: C1

    Geometry (in Angstrom), charge = 0, multiplicity = 1:

       Center              X                  Y                   Z               Mass       
    ------------   -----------------  -----------------  -----------------  -----------------
         N            1.952003637656     0.511092697256     0.001870612780    14.003074004430
         C            1.228833637656    -0.620258302744     0.001862612780    12.000000000000
         C           -0.178319362344    -0.530194302744     0.001854612780    12.000000000000
         C           -0.709750362344     0.762568697256     0.001865612780    12.000000000000
         N           -0.027355362344     1.920273697256     0.001870612780    14.003074004430
         C            1.291730637656     1.691524697256     0.001877612780    12.000000000000
         N           -1.164559362344    -1.496906302744     0.001848612780    14.003074004430
         C           -2.284936362344    -0.787319302744     0.001909612780    12.000000000000
         N           -2.074125362344     0.568342697256     0.001842612780    14.003074004430
         N            1.867058637656    -1.813060302744     0.001859612780    14.003074004430
         H            1.927270337656     2.574578297256    -0.248132387220     1.007825032230
         H           -3.282553362344    -1.208548302744     0.001933612780     1.007825032230
         H           -2.774664362344     1.300432697256     0.001781612780     1.007825032230
         H            2.876191637656    -1.831017302744     0.001874612780     1.007825032230
         H            1.338384637656    -2.672370302744     0.001867612780     1.007825032230

  Running in c1 symmetry.

  Rotational constants: A =      0.07865  B =      0.05246  C =      0.03148 [cm^-1]
  Rotational constants: A =   2357.76189  B =   1572.86048  C =    943.68247 [MHz]
  Nuclear repulsion =  501.698818583109187

  Charge       = 0
  Multiplicity = 1
  Electrons    = 70
  Nalpha       = 35
  Nbeta        = 35

  ==> Algorithm <==

  SCF Algorithm Type is DF.
  DIIS enabled.
  MOM disabled.
  Fractional occupation disabled.
  Guess Type is SAD.
  Energy threshold   = 1.00e-10
  Density threshold  = 1.00e-10
  Integral threshold = 0.00e+00

  ==> Primary Basis <==

  Basis Set: AUG-CC-PVTZ
    Blend: AUG-CC-PVTZ
    Number of shells: 185
    Number of basis function: 575
    Number of Cartesian functions: 675
    Spherical Harmonics?: true
    Max angular momentum: 3

   => Loading Basis Set <=

    Name: (AUG-CC-PVTZ AUX)
    Role: JKFIT
    Keyword: DF_BASIS_SCF
    atoms 1, 5, 7, 9-10 entry N          line   224 file /home/xy3866/psi4conda/share/psi4/basis/aug-cc-pvtz-jkfit.gbs 
    atoms 2-4, 6, 8     entry C          line   162 file /home/xy3866/psi4conda/share/psi4/basis/aug-cc-pvtz-jkfit.gbs 
    atoms 11-15         entry H          line    70 file /home/xy3866/psi4conda/share/psi4/basis/aug-cc-pvtz-jkfit.gbs 

  ==> Pre-Iterations <==

   -------------------------------------------------------
    Irrep   Nso     Nmo     Nalpha   Nbeta   Ndocc  Nsocc
   -------------------------------------------------------
     A        575     575       0       0       0       0
   -------------------------------------------------------
    Total     575     575      35      35      35       0
   -------------------------------------------------------

  ==> Integral Setup <==

  DFHelper Memory: AOs need 3.105 GiB; user supplied 22.352 GiB. Using in-core AOs.

  ==> MemDFJK: Density-Fitted J/K Matrices <==

    J tasked:                   Yes
    K tasked:                   Yes
    wK tasked:                   No
    OpenMP threads:               8
    Memory [MiB]:             22888
    Algorithm:                 Disk
    Schwarz Cutoff:           1E-12
    Mask sparsity (%):       3.8981
    Fitting Condition:        1E-10

   => Auxiliary Basis Set <=

  Basis Set: (AUG-CC-PVTZ AUX)
    Blend: AUG-CC-PVTZ-JKFIT
    Number of shells: 370
    Number of basis function: 1270
    Number of Cartesian functions: 1585
    Spherical Harmonics?: true
    Max angular momentum: 4

  Minimum eigenvalue in the overlap matrix is 1.6858659536E-06.
  Using Symmetric Orthogonalization.

  SCF Guess: Superposition of Atomic Densities via on-the-fly atomic UHF.

  ==> Iterations <==

                           Total Energy        Delta E     RMS |[F,P]|

   @DF-RHF iter SAD:  -464.45178252991872   -4.64452e+02   0.00000e+00 
   @DF-RHF iter   1:  -464.43961989085551    1.21626e-02   1.16515e-03 DIIS
   @DF-RHF iter   2:  -464.62949753456149   -1.89878e-01   5.75141e-04 DIIS
   @DF-RHF iter   3:  -464.67340165287635   -4.39041e-02   1.31967e-04 DIIS
   @DF-RHF iter   4:  -464.67667740816324   -3.27576e-03   6.21495e-05 DIIS
   @DF-RHF iter   5:  -464.67733679187836   -6.59384e-04   1.20533e-05 DIIS
   @DF-RHF iter   6:  -464.67738938075291   -5.25889e-05   5.77631e-06 DIIS
   @DF-RHF iter   7:  -464.67740306225761   -1.36815e-05   2.34891e-06 DIIS
   @DF-RHF iter   8:  -464.67740619487404   -3.13262e-06   8.76990e-07 DIIS
   @DF-RHF iter   9:  -464.67740666190116   -4.67027e-07   4.66072e-07 DIIS
   @DF-RHF iter  10:  -464.67740677934017   -1.17439e-07   1.71836e-07 DIIS
   @DF-RHF iter  11:  -464.67740680416381   -2.48236e-08   7.19423e-08 DIIS
   @DF-RHF iter  12:  -464.67740680782458   -3.66077e-09   2.83711e-08 DIIS
   @DF-RHF iter  13:  -464.67740680834868   -5.24096e-10   9.41660e-09 DIIS
   @DF-RHF iter  14:  -464.67740680839023   -4.15525e-11   3.93845e-09 DIIS
   @DF-RHF iter  15:  -464.67740680839535   -5.11591e-12   1.29729e-09 DIIS
   @DF-RHF iter  16:  -464.67740680839466    6.82121e-13   6.40165e-10 DIIS
   @DF-RHF iter  17:  -464.67740680839495   -2.84217e-13   2.33390e-10 DIIS
   @DF-RHF iter  18:  -464.67740680839552   -5.68434e-13   9.07647e-11 DIIS
  Energy and wave function converged.


  ==> Post-Iterations <==

    Orbital Energies [Eh]
    ---------------------

    Doubly Occupied:                                                      

       1A    -15.634818     2A    -15.585729     3A    -15.571954  
       4A    -15.559819     5A    -15.551987     6A    -11.339050  
       7A    -11.326974     8A    -11.318470     9A    -11.315181  
      10A    -11.253185    11A     -1.366505    12A     -1.297454  
      13A     -1.245416    14A     -1.185794    15A     -1.151341  
      16A     -1.031812    17A     -0.894391    18A     -0.873868  
      19A     -0.846585    20A     -0.777988    21A     -0.737758  
      22A     -0.698227    23A     -0.675703    24A     -0.638543  
      25A     -0.631532    26A     -0.613137    27A     -0.586948  
      28A     -0.557234    29A     -0.501755    30A     -0.490842  
      31A     -0.451889    32A     -0.424343    33A     -0.410925  
      34A     -0.373129    35A     -0.307598  

    Virtual:                                                              

      36A      0.021480    37A      0.030994    38A      0.036882  
      39A      0.046791    40A      0.055218    41A      0.066500  
      42A      0.080651    43A      0.083850    44A      0.089078  
      45A      0.095809    46A      0.101893    47A      0.107177  
      48A      0.112654    49A      0.115135    50A      0.118746  
      51A      0.126354    52A      0.126951    53A      0.132854  
      54A      0.136820    55A      0.141766    56A      0.144306  
      57A      0.148642    58A      0.150710    59A      0.162904  
      60A      0.167581    61A      0.182835    62A      0.183465  
      63A      0.192476    64A      0.196228    65A      0.206058  
      66A      0.206852    67A      0.209731    68A      0.213342  
      69A      0.222576    70A      0.224995    71A      0.229222  
      72A      0.230239    73A      0.232455    74A      0.241185  
      75A      0.247259    76A      0.260648    77A      0.270715  
      78A      0.278560    79A      0.288332    80A      0.295329  
      81A      0.301251    82A      0.306100    83A      0.314325  
      84A      0.316126    85A      0.328046    86A      0.332041  
      87A      0.336114    88A      0.338365    89A      0.341534  
      90A      0.347151    91A      0.364901    92A      0.368065  
      93A      0.372184    94A      0.383123    95A      0.386208  
      96A      0.389060    97A      0.397427    98A      0.401120  
      99A      0.419264   100A      0.421400   101A      0.429827  
     102A      0.437650   103A      0.439938   104A      0.441737  
     105A      0.444193   106A      0.447527   107A      0.453608  
     108A      0.461818   109A      0.462381   110A      0.469054  
     111A      0.477103   112A      0.479703   113A      0.487839  
     114A      0.489656   115A      0.501326   116A      0.503361  
     117A      0.508333   118A      0.513159   119A      0.518366  
     120A      0.527716   121A      0.529690   122A      0.539446  
     123A      0.541385   124A      0.545768   125A      0.567008  
     126A      0.573567   127A      0.579326   128A      0.586477  
     129A      0.597147   130A      0.602464   131A      0.615625  
     132A      0.629048   133A      0.636335   134A      0.641051  
     135A      0.646065   136A      0.653059   137A      0.661986  
     138A      0.666144   139A      0.667507   140A      0.671097  
     141A      0.680270   142A      0.684639   143A      0.693584  
     144A      0.703379   145A      0.715153   146A      0.720342  
     147A      0.728742   148A      0.731416   149A      0.745662  
     150A      0.754881   151A      0.759849   152A      0.767791  
     153A      0.780176   154A      0.784098   155A      0.790420  
     156A      0.798523   157A      0.807332   158A      0.810555  
     159A      0.817517   160A      0.821018   161A      0.825964  
     162A      0.829266   163A      0.837733   164A      0.841918  
     165A      0.860063   166A      0.869050   167A      0.878902  
     168A      0.888685   169A      0.900247   170A      0.904182  
     171A      0.907016   172A      0.923018   173A      0.935615  
     174A      0.938898   175A      0.943583   176A      0.957223  
     177A      0.961812   178A      0.962675   179A      0.970403  
     180A      0.976467   181A      0.987477   182A      0.992761  
     183A      0.996216   184A      1.016325   185A      1.021123  
     186A      1.022341   187A      1.028467   188A      1.035992  
     189A      1.043472   190A      1.052470   191A      1.064805  
     192A      1.067219   193A      1.076311   194A      1.084418  
     195A      1.091390   196A      1.098690   197A      1.102094  
     198A      1.106713   199A      1.114292   200A      1.119821  
     201A      1.128110   202A      1.130362   203A      1.138304  
     204A      1.139245   205A      1.149942   206A      1.162489  
     207A      1.174718   208A      1.189807   209A      1.196559  
     210A      1.199653   211A      1.207750   212A      1.220598  
     213A      1.228651   214A      1.231206   215A      1.237676  
     216A      1.254526   217A      1.261793   218A      1.268898  
     219A      1.275639   220A      1.281272   221A      1.294164  
     222A      1.298045   223A      1.304675   224A      1.309693  
     225A      1.322175   226A      1.336653   227A      1.344415  
     228A      1.356692   229A      1.367949   230A      1.374976  
     231A      1.382606   232A      1.392937   233A      1.400241  
     234A      1.401631   235A      1.418906   236A      1.433610  
     237A      1.437195   238A      1.440835   239A      1.448527  
     240A      1.460431   241A      1.478356   242A      1.479461  
     243A      1.493179   244A      1.498844   245A      1.514830  
     246A      1.528472   247A      1.531948   248A      1.551960  
     249A      1.557531   250A      1.564729   251A      1.568998  
     252A      1.585490   253A      1.588146   254A      1.606602  
     255A      1.606801   256A      1.625812   257A      1.628609  
     258A      1.643752   259A      1.660575   260A      1.672683  
     261A      1.681148   262A      1.689007   263A      1.692601  
     264A      1.715255   265A      1.724093   266A      1.729167  
     267A      1.740254   268A      1.759581   269A      1.767398  
     270A      1.775730   271A      1.787079   272A      1.803285  
     273A      1.813542   274A      1.824450   275A      1.848007  
     276A      1.856164   277A      1.858490   278A      1.869743  
     279A      1.898319   280A      1.903497   281A      1.927548  
     282A      1.937976   283A      1.944234   284A      1.952898  
     285A      1.965009   286A      1.981645   287A      1.998631  
     288A      2.023061   289A      2.034228   290A      2.041869  
     291A      2.061171   292A      2.074293   293A      2.076238  
     294A      2.089394   295A      2.101100   296A      2.114161  
     297A      2.120803   298A      2.137720   299A      2.143475  
     300A      2.148920   301A      2.165953   302A      2.179012  
     303A      2.184516   304A      2.205679   305A      2.211349  
     306A      2.229280   307A      2.230736   308A      2.239068  
     309A      2.252861   310A      2.271899   311A      2.279585  
     312A      2.296445   313A      2.305518   314A      2.319186  
     315A      2.329532   316A      2.344349   317A      2.352243  
     318A      2.362371   319A      2.378364   320A      2.387575  
     321A      2.395684   322A      2.403763   323A      2.422585  
     324A      2.428362   325A      2.436701   326A      2.449864  
     327A      2.456311   328A      2.477469   329A      2.493879  
     330A      2.519385   331A      2.525750   332A      2.553095  
     333A      2.562576   334A      2.573624   335A      2.580670  
     336A      2.597336   337A      2.603984   338A      2.617241  
     339A      2.621566   340A      2.647458   341A      2.667360  
     342A      2.680367   343A      2.697479   344A      2.702968  
     345A      2.719985   346A      2.722529   347A      2.774764  
     348A      2.795254   349A      2.797161   350A      2.834198  
     351A      2.849044   352A      2.851718   353A      2.854336  
     354A      2.877857   355A      2.927173   356A      2.964585  
     357A      2.991131   358A      3.017539   359A      3.059124  
     360A      3.085564   361A      3.092135   362A      3.122844  
     363A      3.142611   364A      3.158711   365A      3.196304  
     366A      3.216804   367A      3.233471   368A      3.261732  
     369A      3.308374   370A      3.350819   371A      3.352899  
     372A      3.399455   373A      3.405548   374A      3.429880  
     375A      3.442299   376A      3.464264   377A      3.470551  
     378A      3.504271   379A      3.513737   380A      3.517870  
     381A      3.529840   382A      3.554642   383A      3.563075  
     384A      3.589659   385A      3.616783   386A      3.619613  
     387A      3.637025   388A      3.651903   389A      3.674179  
     390A      3.684710   391A      3.695422   392A      3.718000  
     393A      3.723870   394A      3.741517   395A      3.769754  
     396A      3.773194   397A      3.791575   398A      3.814362  
     399A      3.839355   400A      3.856375   401A      3.862499  
     402A      3.878430   403A      3.890876   404A      3.903617  
     405A      3.923027   406A      3.929091   407A      3.946335  
     408A      3.949472   409A      3.963780   410A      3.973238  
     411A      3.982884   412A      4.010247   413A      4.026444  
     414A      4.036951   415A      4.050678   416A      4.067636  
     417A      4.088664   418A      4.105526   419A      4.115198  
     420A      4.136206   421A      4.154023   422A      4.160777  
     423A      4.176987   424A      4.179521   425A      4.183443  
     426A      4.208811   427A      4.223747   428A      4.226605  
     429A      4.238726   430A      4.246220   431A      4.253186  
     432A      4.263037   433A      4.278046   434A      4.288255  
     435A      4.308514   436A      4.312739   437A      4.322339  
     438A      4.334852   439A      4.367219   440A      4.384142  
     441A      4.401874   442A      4.404897   443A      4.417707  
     444A      4.436598   445A      4.448546   446A      4.485803  
     447A      4.499887   448A      4.508534   449A      4.521179  
     450A      4.542267   451A      4.551334   452A      4.582126  
     453A      4.608492   454A      4.616807   455A      4.620103  
     456A      4.639826   457A      4.659642   458A      4.701342  
     459A      4.703800   460A      4.764246   461A      4.782283  
     462A      4.791637   463A      4.806381   464A      4.813590  
     465A      4.845959   466A      4.870143   467A      4.882736  
     468A      4.906334   469A      4.912777   470A      4.941806  
     471A      4.951225   472A      5.004394   473A      5.011949  
     474A      5.033039   475A      5.068110   476A      5.085341  
     477A      5.094569   478A      5.100137   479A      5.122728  
     480A      5.155276   481A      5.179783   482A      5.205573  
     483A      5.224087   484A      5.248673   485A      5.253826  
     486A      5.257730   487A      5.288475   488A      5.309005  
     489A      5.333608   490A      5.361641   491A      5.391521  
     492A      5.411325   493A      5.416614   494A      5.450034  
     495A      5.454953   496A      5.501650   497A      5.515998  
     498A      5.520312   499A      5.533172   500A      5.568723  
     501A      5.573128   502A      5.581126   503A      5.600872  
     504A      5.606301   505A      5.623355   506A      5.645304  
     507A      5.656537   508A      5.675455   509A      5.686621  
     510A      5.707520   511A      5.711831   512A      5.721322  
     513A      5.735647   514A      5.761654   515A      5.786985  
     516A      5.801104   517A      5.819968   518A      5.832800  
     519A      5.866103   520A      5.889118   521A      5.903938  
     522A      5.926121   523A      5.937439   524A      5.954337  
     525A      5.963461   526A      5.992876   527A      6.025760  
     528A      6.049609   529A      6.099714   530A      6.131359  
     531A      6.131939   532A      6.162053   533A      6.178511  
     534A      6.211029   535A      6.218619   536A      6.257291  
     537A      6.270865   538A      6.305167   539A      6.372364  
     540A      6.437011   541A      6.481685   542A      6.514876  
     543A      6.533213   544A      6.561219   545A      6.590582  
     546A      6.643053   547A      6.670019   548A      6.713638  
     549A      6.754872   550A      6.782082   551A      6.806423  
     552A      6.873183   553A      6.982696   554A      7.024072  
     555A      7.028413   556A      7.046985   557A      7.093085  
     558A      7.215606   559A      7.284570   560A      7.351760  
     561A      7.436171   562A      7.543610   563A      7.634449  
     564A      7.835347   565A      7.861617   566A     16.076833  
     567A     16.155824   568A     16.261032   569A     17.656580  
     570A     17.913878   571A     18.416964   572A     19.067090  
     573A     19.162084   574A     19.761228   575A     20.788482  

    Final Occupation by Irrep:
              A 
    DOCC [    35 ]

  @DF-RHF Final Energy:  -464.67740680839552

   => Energetics <=

    Nuclear Repulsion Energy =            501.6988185831091869
    One-Electron Energy =               -1626.2966827981647384
    Two-Electron Energy =                 659.9204574066600344
    Total Energy =                       -464.6774068083955171

Computation Completed

*** tstop() called on node59.bme.utexas.edu at Sun Nov  8 21:53:30 2020
Module time:
	user time   =     225.18 seconds =       3.75 minutes
	system time =      27.38 seconds =       0.46 minutes
	total time  =         48 seconds =       0.80 minutes
Total time:
	user time   =     225.18 seconds =       3.75 minutes
	system time =      27.38 seconds =       0.46 minutes
	total time  =         48 seconds =       0.80 minutes
   => Loading Basis Set <=

    Name: (AUG-CC-PVTZ AUX)
    Role: RIFIT
    Keyword: DF_BASIS_MP2
    atoms 1, 5, 7, 9-10 entry N          line   206 file /home/xy3866/psi4conda/share/psi4/basis/aug-cc-pvtz-ri.gbs 
    atoms 2-4, 6, 8     entry C          line   148 file /home/xy3866/psi4conda/share/psi4/basis/aug-cc-pvtz-ri.gbs 
    atoms 11-15         entry H          line    30 file /home/xy3866/psi4conda/share/psi4/basis/aug-cc-pvtz-ri.gbs 


*** tstart() called on node59.bme.utexas.edu
*** at Sun Nov  8 21:53:30 2020


  //>>>>>>>>>>>>>>>>>>>>>>>>>>>>>>>>>>>//
  //               DFMP2               //
  //<<<<<<<<<<<<<<<<<<<<<<<<<<<<<<<<<<<//

	 --------------------------------------------------------
	                          DF-MP2                         
	      2nd-Order Density-Fitted Moller-Plesset Theory     
	              RMP2 Wavefunction,   8 Threads             
	                                                         
	        Rob Parrish, Justin Turney, Andy Simmonett,      
	           Ed Hohenstein, and C. David Sherrill          
	 --------------------------------------------------------

   => Auxiliary Basis Set <=

  Basis Set: (AUG-CC-PVTZ AUX)
    Blend: AUG-CC-PVTZ-RI
    Number of shells: 350
    Number of basis function: 1290
    Number of Cartesian functions: 1635
    Spherical Harmonics?: true
    Max angular momentum: 4

	 --------------------------------------------------------
	                 NBF =   575, NAUX =  1290
	 --------------------------------------------------------
	   CLASS    FOCC     OCC    AOCC    AVIR     VIR    FVIR
	   PAIRS       0      35      35     540     540       0
	 --------------------------------------------------------

  DFHelper Memory: AOs need 3.105 GiB; user supplied 22.352 GiB. Using in-core AOs.


         ------------------------------------------------------------
                                     CPHF                           
                                  Rob Parrish                       
         ------------------------------------------------------------

  ==> Geometry <==

    Molecular point group: c1
    Full point group: C1

    Geometry (in Angstrom), charge = 0, multiplicity = 1:

       Center              X                  Y                   Z               Mass       
    ------------   -----------------  -----------------  -----------------  -----------------
         N            1.952003637656     0.511092697256     0.001870612780    14.003074004430
         C            1.228833637656    -0.620258302744     0.001862612780    12.000000000000
         C           -0.178319362344    -0.530194302744     0.001854612780    12.000000000000
         C           -0.709750362344     0.762568697256     0.001865612780    12.000000000000
         N           -0.027355362344     1.920273697256     0.001870612780    14.003074004430
         C            1.291730637656     1.691524697256     0.001877612780    12.000000000000
         N           -1.164559362344    -1.496906302744     0.001848612780    14.003074004430
         C           -2.284936362344    -0.787319302744     0.001909612780    12.000000000000
         N           -2.074125362344     0.568342697256     0.001842612780    14.003074004430
         N            1.867058637656    -1.813060302744     0.001859612780    14.003074004430
         H            1.927270337656     2.574578297256    -0.248132387220     1.007825032230
         H           -3.282553362344    -1.208548302744     0.001933612780     1.007825032230
         H           -2.774664362344     1.300432697256     0.001781612780     1.007825032230
         H            2.876191637656    -1.831017302744     0.001874612780     1.007825032230
         H            1.338384637656    -2.672370302744     0.001867612780     1.007825032230

  Nuclear repulsion =  501.698818583109187
  Reference energy  = -464.677406808395517

  ==> Basis Set <==

  Basis Set: AUG-CC-PVTZ
    Blend: AUG-CC-PVTZ
    Number of shells: 185
    Number of basis function: 575
    Number of Cartesian functions: 675
    Spherical Harmonics?: true
    Max angular momentum: 3

  ==> CGRSolver (by Rob Parrish) <==

   Number of roots    =         1
   Preconditioning    =    JACOBI
   Convergence cutoff =     1E-06
   Maximum iterations =       100

  ==> CPHFRHamiltonian (by Rob Parrish) <== 

  ==> MemDFJK: Density-Fitted J/K Matrices <==

    J tasked:                   Yes
    K tasked:                   Yes
    wK tasked:                   No
    OpenMP threads:               8
    Memory [MiB]:             22888
    Algorithm:                 Disk
    Schwarz Cutoff:           1E-12
    Mask sparsity (%):       3.8981
    Fitting Condition:        1E-10

   => Auxiliary Basis Set <=

  Basis Set: (AUG-CC-PVTZ AUX)
    Blend: AUG-CC-PVTZ-JKFIT
    Number of shells: 370
    Number of basis function: 1270
    Number of Cartesian functions: 1585
    Spherical Harmonics?: true
    Max angular momentum: 4

  ==> CPHF Iterations <==

  => Iterations <=

             Iter  Converged  Remaining    Residual
  CGR           1          0          1   1.208E-01
  CGR           2          0          1   4.816E-02
  CGR           3          0          1   2.541E-02
  CGR           4          0          1   8.586E-03
  CGR           5          0          1   4.054E-03
  CGR           6          0          1   1.804E-03
  CGR           7          0          1   5.797E-04
  CGR           8          0          1   2.485E-04
  CGR           9          0          1   8.329E-05
  CGR          10          0          1   2.707E-05
  CGR          11          0          1   1.039E-05
  CGR          12          0          1   4.109E-06
  CGR          13          0          1   1.448E-06
  CGR          14          1          0   5.565E-07

    CGRSolver converged.

	-----------------------------------------------------------
	 ==================> DF-MP2 Energies <==================== 
	-----------------------------------------------------------
	 Reference Energy          =    -464.6774068083955171 [Eh]
	 Singles Energy            =      -0.0000000000000000 [Eh]
	 Same-Spin Energy          =      -0.5066218411839796 [Eh]
	 Opposite-Spin Energy      =      -1.4768168746021595 [Eh]
	 Correlation Energy        =      -1.9834387157861391 [Eh]
	 Total Energy              =    -466.6608455241816387 [Eh]
	-----------------------------------------------------------
	 ================> DF-SCS-MP2 Energies <================== 
	-----------------------------------------------------------
	 SCS Same-Spin Scale       =       0.3333333333333333 [-]
	 SCS Opposite-Spin Scale   =       1.2000000000000000 [-]
	 SCS Same-Spin Energy      =      -0.1688739470613265 [Eh]
	 SCS Opposite-Spin Energy  =      -1.7721802495225913 [Eh]
	 SCS Correlation Energy    =      -1.9410541965839179 [Eh]
	 SCS Total Energy          =    -466.6184610049794514 [Eh]
	-----------------------------------------------------------



Properties will be evaluated at   0.000000,   0.000000,  -0.000000 [a0]

Properties computed using the MP2 density matrix

  Nuclear Dipole Moment: [e a0]
     X:     0.0777      Y:    -1.7212      Z:    -0.2257

  Electronic Dipole Moment: [e a0]
     X:    -0.9791      Y:     1.2394      Z:     0.1796

  Dipole Moment: [e a0]
     X:    -0.9014      Y:    -0.4818      Z:    -0.0461     Total:     1.0231

  Dipole Moment: [D]
     X:    -2.2912      Y:    -1.2246      Z:    -0.1171     Total:     2.6005


*** tstop() called on node59.bme.utexas.edu at Sun Nov  8 21:55:19 2020
Module time:
	user time   =     655.15 seconds =      10.92 minutes
	system time =      31.83 seconds =       0.53 minutes
	total time  =        109 seconds =       1.82 minutes
Total time:
	user time   =     881.63 seconds =      14.69 minutes
	system time =      59.30 seconds =       0.99 minutes
	total time  =        157 seconds =       2.62 minutes

    Psi4 stopped on: Sunday, 08 November 2020 09:55PM
    Psi4 wall time for execution: 0:02:36.91

*** Psi4 exiting successfully. Buy a developer a beer!
