
    -----------------------------------------------------------------------
          Psi4: An Open-Source Ab Initio Electronic Structure Package
                               Psi4 1.4a3.dev225 

                         Git: Rev {master} 7105e37 


    D. G. A. Smith, L. A. Burns, A. C. Simmonett, R. M. Parrish,
    M. C. Schieber, R. Galvelis, P. Kraus, H. Kruse, R. Di Remigio,
    A. Alenaizan, A. M. James, S. Lehtola, J. P. Misiewicz, M. Scheurer,
    R. A. Shaw, J. B. Schriber, Y. Xie, Z. L. Glick, D. A. Sirianni,
    J. S. O'Brien, J. M. Waldrop, A. Kumar, E. G. Hohenstein,
    B. P. Pritchard, B. R. Brooks, H. F. Schaefer III, A. Yu. Sokolov,
    K. Patkowski, A. E. DePrince III, U. Bozkaya, R. A. King,
    F. A. Evangelista, J. M. Turney, T. D. Crawford, C. D. Sherrill,
    J. Chem. Phys. 152(18) 184108 (2020). https://doi.org/10.1063/5.0006002

                            Additional Code Authors
    E. T. Seidl, C. L. Janssen, E. F. Valeev, M. L. Leininger,
    J. F. Gonthier, R. M. Richard, H. R. McAlexander, M. Saitow, X. Wang,
    P. Verma, and M. H. Lechner

             Previous Authors, Complete List of Code Contributors,
                       and Citations for Specific Modules
    https://github.com/psi4/psi4/blob/master/codemeta.json
    https://github.com/psi4/psi4/graphs/contributors
    http://psicode.org/psi4manual/master/introduction.html#citing-psifour

    -----------------------------------------------------------------------


    Psi4 started on: Saturday, 20 March 2021 01:00PM

    Process ID: 54995
    Host:       c445-024.stampede2.tacc.utexas.edu
    PSIDATADIR: /home1/07844/xy3866/miniconda3/envs/p4env/share/psi4
    Memory:     500.0 MiB
    Threads:    32
    
  ==> Input File <==

--------------------------------------------------------------------------
#psi4
#
memory 32 gb

molecule  {
0 1
  O       -1.4602810    -1.8042760    -0.0008590
  N       -1.1067000     0.4494610     0.0014260
  N        0.7338450    -1.0777760     0.0056990
  N        2.8872480    -0.2944040    -0.0665390
  C       -0.2576190     1.5082170    -0.0002850
  C        1.0419454     1.3296985    -0.0046313
  C       -0.6316600    -0.8954310    -0.0014820
  C       -2.5563510     0.6193970     0.0049040
  C        1.5404980    -0.0347530    -0.0000590
  H       -0.7147670     2.4940890    -0.0022110
  H        1.7746080     2.1637920    -0.0246520
  H       -2.7835150     1.6863950     0.0041520
  H       -2.9802500     0.1433220     0.8903410
  H       -2.9840040     0.1411790    -0.8774920
  H        3.5206970     0.4000120     0.3068300
  H        3.1306380    -1.2574880     0.1361150
units angstrom
no_reorient  #important for SAPT in psi4, default
symmetry c1  #important for SAPT in psi4, default
}

set PROPERTIES_ORIGIN ["COM"]
properties('MP2/aug-cc-pvtz', properties = ['dipole'])
--------------------------------------------------------------------------

  Memory set to  29.802 GiB by Python driver.
    SCF Algorithm Type (re)set to DF.

*** tstart() called on c445-024.stampede2.tacc.utexas.edu
*** at Sat Mar 20 13:00:11 2021

   => Loading Basis Set <=

    Name: AUG-CC-PVTZ
    Role: ORBITAL
    Keyword: BASIS
    atoms 1     entry O          line   331 file /home1/07844/xy3866/miniconda3/envs/p4env/share/psi4/basis/aug-cc-pvtz.gbs 
    atoms 2-4   entry N          line   285 file /home1/07844/xy3866/miniconda3/envs/p4env/share/psi4/basis/aug-cc-pvtz.gbs 
    atoms 5-9   entry C          line   239 file /home1/07844/xy3866/miniconda3/envs/p4env/share/psi4/basis/aug-cc-pvtz.gbs 
    atoms 10-16 entry H          line    40 file /home1/07844/xy3866/miniconda3/envs/p4env/share/psi4/basis/aug-cc-pvtz.gbs 


         ---------------------------------------------------------
                                   SCF
               by Justin Turney, Rob Parrish, Andy Simmonett
                          and Daniel G. A. Smith
                              RHF Reference
                       32 Threads,  30517 MiB Core
         ---------------------------------------------------------

  ==> Geometry <==

    Molecular point group: c1
    Full point group: C1

    Geometry (in Angstrom), charge = 0, multiplicity = 1:

       Center              X                  Y                   Z               Mass       
    ------------   -----------------  -----------------  -----------------  -----------------
         O           -1.463873049214    -1.759192132627     0.002562475333    15.994914619570
         N           -1.110292049214     0.494544867373     0.004847475333    14.003074004430
         N            0.730252950786    -1.032692132627     0.009120475333    14.003074004430
         N            2.883655950786    -0.249320132627    -0.063117524667    14.003074004430
         C           -0.261211049214     1.553300867373     0.003136475333    12.000000000000
         C            1.038353350786     1.374782367373    -0.001209824667    12.000000000000
         C           -0.635252049214    -0.850347132627     0.001939475333    12.000000000000
         C           -2.559943049214     0.664480867373     0.008325475333    12.000000000000
         C            1.536905950786     0.010330867373     0.003362475333    12.000000000000
         H           -0.718359049214     2.539172867373     0.001210475333     1.007825032230
         H            1.771015950786     2.208875867373    -0.021230524667     1.007825032230
         H           -2.787107049214     1.731478867373     0.007573475333     1.007825032230
         H           -2.983842049214     0.188405867373     0.893762475333     1.007825032230
         H           -2.987596049214     0.186262867373    -0.874070524667     1.007825032230
         H            3.517104950786     0.445095867373     0.310251475333     1.007825032230
         H            3.127045950786    -1.212404132627     0.139536475333     1.007825032230

  Running in c1 symmetry.

  Rotational constants: A =      0.11081  B =      0.04752  C =      0.03349 [cm^-1]
  Rotational constants: A =   3321.89177  B =   1424.72810  C =   1004.00030 [MHz]
  Nuclear repulsion =  442.049979201136011

  Charge       = 0
  Multiplicity = 1
  Electrons    = 66
  Nalpha       = 33
  Nbeta        = 33

  ==> Algorithm <==

  SCF Algorithm Type is DF.
  DIIS enabled.
  MOM disabled.
  Fractional occupation disabled.
  Guess Type is SAD.
  Energy threshold   = 1.00e-10
  Density threshold  = 1.00e-10
  Integral threshold = 1.00e-12

  ==> Primary Basis <==

  Basis Set: AUG-CC-PVTZ
    Blend: AUG-CC-PVTZ
    Number of shells: 189
    Number of basis functions: 575
    Number of Cartesian functions: 670
    Spherical Harmonics?: true
    Max angular momentum: 3

   => Loading Basis Set <=

    Name: (AUG-CC-PVTZ AUX)
    Role: JKFIT
    Keyword: DF_BASIS_SCF
    atoms 1     entry O          line   286 file /home1/07844/xy3866/miniconda3/envs/p4env/share/psi4/basis/aug-cc-pvtz-jkfit.gbs 
    atoms 2-4   entry N          line   224 file /home1/07844/xy3866/miniconda3/envs/p4env/share/psi4/basis/aug-cc-pvtz-jkfit.gbs 
    atoms 5-9   entry C          line   162 file /home1/07844/xy3866/miniconda3/envs/p4env/share/psi4/basis/aug-cc-pvtz-jkfit.gbs 
    atoms 10-16 entry H          line    70 file /home1/07844/xy3866/miniconda3/envs/p4env/share/psi4/basis/aug-cc-pvtz-jkfit.gbs 

  ==> Integral Setup <==

  DFHelper Memory: AOs need 3.018 GiB; user supplied 22.352 GiB. Using in-core AOs.

  ==> MemDFJK: Density-Fitted J/K Matrices <==

    J tasked:                   Yes
    K tasked:                   Yes
    wK tasked:                   No
    OpenMP threads:              32
    Memory [MiB]:             22888
    Algorithm:                 Core
    Schwarz Cutoff:           1E-12
    Mask sparsity (%):       7.6655
    Fitting Condition:        1E-10

   => Auxiliary Basis Set <=

  Basis Set: (AUG-CC-PVTZ AUX)
    Blend: AUG-CC-PVTZ-JKFIT
    Number of shells: 368
    Number of basis functions: 1258
    Number of Cartesian functions: 1564
    Spherical Harmonics?: true
    Max angular momentum: 4

  Minimum eigenvalue in the overlap matrix is 2.0382960542E-06.
  Reciprocal condition number of the overlap matrix is 1.1605666775E-07.
    Using symmetric orthogonalization.

  ==> Pre-Iterations <==

  SCF Guess: Superposition of Atomic Densities via on-the-fly atomic UHF (no occupation information).

   -------------------------
    Irrep   Nso     Nmo    
   -------------------------
     A        575     575 
   -------------------------
    Total     575     575
   -------------------------

  ==> Iterations <==

                           Total Energy        Delta E     RMS |[F,P]|

   @DF-RHF iter SAD:  -431.20590215847227   -4.31206e+02   0.00000e+00 
   @DF-RHF iter   1:  -431.52439581306800   -3.18494e-01   1.29793e-03 DIIS
   @DF-RHF iter   2:  -431.73835337182908   -2.13958e-01   7.12782e-04 DIIS
   @DF-RHF iter   3:  -431.79604252479248   -5.76892e-02   1.51072e-04 DIIS
   @DF-RHF iter   4:  -431.80020659095533   -4.16407e-03   6.50301e-05 DIIS
   @DF-RHF iter   5:  -431.80104516623271   -8.38575e-04   1.34653e-05 DIIS
   @DF-RHF iter   6:  -431.80112706870324   -8.19025e-05   7.16846e-06 DIIS
   @DF-RHF iter   7:  -431.80114950915379   -2.24405e-05   2.57530e-06 DIIS
   @DF-RHF iter   8:  -431.80115344365493   -3.93450e-06   1.03037e-06 DIIS
   @DF-RHF iter   9:  -431.80115392692142   -4.83266e-07   3.79269e-07 DIIS
   @DF-RHF iter  10:  -431.80115400622049   -7.92991e-08   1.32383e-07 DIIS
   @DF-RHF iter  11:  -431.80115401575802   -9.53753e-09   4.88263e-08 DIIS
   @DF-RHF iter  12:  -431.80115401677983   -1.02182e-09   1.40085e-08 DIIS
   @DF-RHF iter  13:  -431.80115401689108   -1.11243e-10   5.34622e-09 DIIS
   @DF-RHF iter  14:  -431.80115401690585   -1.47793e-11   2.48255e-09 DIIS
   @DF-RHF iter  15:  -431.80115401690972   -3.86535e-12   1.08786e-09 DIIS
   @DF-RHF iter  16:  -431.80115401691097   -1.25056e-12   3.69483e-10 DIIS
   @DF-RHF iter  17:  -431.80115401691046    5.11591e-13   1.79248e-10 DIIS
   @DF-RHF iter  18:  -431.80115401691012    3.41061e-13   4.89195e-11 DIIS
  Energy and wave function converged.


  ==> Post-Iterations <==

    Orbital Energies [Eh]
    ---------------------

    Doubly Occupied:                                                      

       1A    -20.502520     2A    -15.620099     3A    -15.595886  
       4A    -15.543777     5A    -11.368532     6A    -11.353402  
       7A    -11.317450     8A    -11.270945     9A    -11.243389  
      10A     -1.382221    11A     -1.295887    12A     -1.267361  
      13A     -1.173125    14A     -1.079875    15A     -0.961770  
      16A     -0.893934    17A     -0.857519    18A     -0.761788  
      19A     -0.725172    20A     -0.685825    21A     -0.673541  
      22A     -0.654032    23A     -0.617684    24A     -0.607212  
      25A     -0.584295    26A     -0.575811    27A     -0.565690  
      28A     -0.516921    29A     -0.483724    30A     -0.441788  
      31A     -0.417002    32A     -0.385702    33A     -0.341528  

    Virtual:                                                              

      34A      0.017357    35A      0.025510    36A      0.036265  
      37A      0.048221    38A      0.049985    39A      0.054142  
      40A      0.066599    41A      0.079244    42A      0.083140  
      43A      0.087718    44A      0.096436    45A      0.102447  
      46A      0.104830    47A      0.105064    48A      0.115205  
      49A      0.120835    50A      0.127065    51A      0.132236  
      52A      0.134068    53A      0.138880    54A      0.141078  
      55A      0.146766    56A      0.155566    57A      0.161835  
      58A      0.169089    59A      0.172404    60A      0.173889  
      61A      0.182510    62A      0.197152    63A      0.198829  
      64A      0.211091    65A      0.217652    66A      0.225226  
      67A      0.229735    68A      0.235355    69A      0.241562  
      70A      0.247256    71A      0.257401    72A      0.258946  
      73A      0.267435    74A      0.272770    75A      0.280002  
      76A      0.283057    77A      0.293648    78A      0.295568  
      79A      0.298460    80A      0.307809    81A      0.311281  
      82A      0.315783    83A      0.321928    84A      0.327974  
      85A      0.334275    86A      0.343618    87A      0.346622  
      88A      0.353927    89A      0.363431    90A      0.367132  
      91A      0.369463    92A      0.375633    93A      0.381145  
      94A      0.388424    95A      0.396070    96A      0.400942  
      97A      0.405753    98A      0.409108    99A      0.415081  
     100A      0.418946   101A      0.428225   102A      0.433230  
     103A      0.440967   104A      0.445282   105A      0.451193  
     106A      0.459744   107A      0.462572   108A      0.464311  
     109A      0.471046   110A      0.473654   111A      0.478257  
     112A      0.484961   113A      0.489906   114A      0.497256  
     115A      0.500737   116A      0.507557   117A      0.517904  
     118A      0.523946   119A      0.533763   120A      0.535468  
     121A      0.540157   122A      0.544795   123A      0.553746  
     124A      0.557811   125A      0.564870   126A      0.571623  
     127A      0.582683   128A      0.586488   129A      0.601523  
     130A      0.612054   131A      0.615471   132A      0.621401  
     133A      0.638634   134A      0.642654   135A      0.645114  
     136A      0.649074   137A      0.664625   138A      0.666419  
     139A      0.671442   140A      0.686058   141A      0.693045  
     142A      0.704209   143A      0.714463   144A      0.721888  
     145A      0.725393   146A      0.741275   147A      0.744825  
     148A      0.751879   149A      0.768100   150A      0.774792  
     151A      0.778860   152A      0.782345   153A      0.789987  
     154A      0.801188   155A      0.810218   156A      0.817679  
     157A      0.822522   158A      0.832892   159A      0.840703  
     160A      0.841147   161A      0.845253   162A      0.857368  
     163A      0.868725   164A      0.875144   165A      0.881106  
     166A      0.894413   167A      0.905443   168A      0.912010  
     169A      0.916526   170A      0.917564   171A      0.921857  
     172A      0.931730   173A      0.938918   174A      0.940617  
     175A      0.948419   176A      0.956033   177A      0.967049  
     178A      0.973598   179A      0.982577   180A      0.989554  
     181A      0.994488   182A      1.001866   183A      1.008232  
     184A      1.014706   185A      1.026290   186A      1.029661  
     187A      1.038220   188A      1.050901   189A      1.056150  
     190A      1.062271   191A      1.068523   192A      1.080829  
     193A      1.085149   194A      1.090937   195A      1.096935  
     196A      1.104845   197A      1.110627   198A      1.118762  
     199A      1.130008   200A      1.135714   201A      1.140275  
     202A      1.151715   203A      1.154144   204A      1.160134  
     205A      1.167833   206A      1.173258   207A      1.183934  
     208A      1.186821   209A      1.187755   210A      1.190670  
     211A      1.201247   212A      1.207243   213A      1.216508  
     214A      1.223241   215A      1.241283   216A      1.250807  
     217A      1.259837   218A      1.273674   219A      1.285142  
     220A      1.295050   221A      1.305950   222A      1.312124  
     223A      1.323556   224A      1.333260   225A      1.339078  
     226A      1.347342   227A      1.358219   228A      1.367061  
     229A      1.380064   230A      1.382884   231A      1.389410  
     232A      1.393267   233A      1.405636   234A      1.421810  
     235A      1.429298   236A      1.438531   237A      1.450065  
     238A      1.456863   239A      1.472481   240A      1.474502  
     241A      1.483092   242A      1.498128   243A      1.502000  
     244A      1.514691   245A      1.520972   246A      1.527412  
     247A      1.538479   248A      1.557537   249A      1.570341  
     250A      1.579659   251A      1.587052   252A      1.589528  
     253A      1.598767   254A      1.620883   255A      1.633569  
     256A      1.647690   257A      1.657266   258A      1.660839  
     259A      1.668527   260A      1.679603   261A      1.686992  
     262A      1.694856   263A      1.696623   264A      1.704698  
     265A      1.726415   266A      1.739128   267A      1.748290  
     268A      1.752398   269A      1.762632   270A      1.774006  
     271A      1.780746   272A      1.790275   273A      1.807998  
     274A      1.819774   275A      1.834696   276A      1.849941  
     277A      1.861295   278A      1.865402   279A      1.877529  
     280A      1.896561   281A      1.904244   282A      1.917881  
     283A      1.937078   284A      1.943935   285A      1.967272  
     286A      1.977827   287A      1.984165   288A      2.000960  
     289A      2.011802   290A      2.026548   291A      2.031657  
     292A      2.046056   293A      2.062281   294A      2.070807  
     295A      2.089797   296A      2.104758   297A      2.106146  
     298A      2.119560   299A      2.139497   300A      2.156533  
     301A      2.163703   302A      2.168068   303A      2.184046  
     304A      2.206743   305A      2.212050   306A      2.217848  
     307A      2.227319   308A      2.229926   309A      2.245237  
     310A      2.256687   311A      2.277078   312A      2.289051  
     313A      2.306730   314A      2.333300   315A      2.349325  
     316A      2.359954   317A      2.361921   318A      2.376233  
     319A      2.384579   320A      2.397787   321A      2.406099  
     322A      2.409026   323A      2.429183   324A      2.453447  
     325A      2.468136   326A      2.480877   327A      2.487244  
     328A      2.505086   329A      2.525890   330A      2.536058  
     331A      2.557932   332A      2.564587   333A      2.584835  
     334A      2.594386   335A      2.604891   336A      2.619921  
     337A      2.636375   338A      2.657736   339A      2.666317  
     340A      2.686819   341A      2.704690   342A      2.736767  
     343A      2.747090   344A      2.750877   345A      2.773205  
     346A      2.786422   347A      2.803706   348A      2.848750  
     349A      2.858191   350A      2.880523   351A      2.897516  
     352A      2.926290   353A      2.951861   354A      2.992976  
     355A      2.995299   356A      3.021056   357A      3.038158  
     358A      3.043671   359A      3.062959   360A      3.076979  
     361A      3.146145   362A      3.195165   363A      3.211501  
     364A      3.215233   365A      3.268215   366A      3.301203  
     367A      3.308104   368A      3.337291   369A      3.363519  
     370A      3.392817   371A      3.409689   372A      3.429008  
     373A      3.435092   374A      3.456269   375A      3.470218  
     376A      3.479510   377A      3.506506   378A      3.514383  
     379A      3.528323   380A      3.550217   381A      3.562775  
     382A      3.582802   383A      3.600850   384A      3.610129  
     385A      3.630320   386A      3.664318   387A      3.674116  
     388A      3.696567   389A      3.717802   390A      3.725517  
     391A      3.733308   392A      3.739925   393A      3.745113  
     394A      3.753446   395A      3.766287   396A      3.773178  
     397A      3.792608   398A      3.800572   399A      3.814794  
     400A      3.823959   401A      3.840488   402A      3.866525  
     403A      3.900346   404A      3.909807   405A      3.915126  
     406A      3.924499   407A      3.954479   408A      3.960911  
     409A      3.961555   410A      3.980244   411A      4.004577  
     412A      4.010360   413A      4.036067   414A      4.041324  
     415A      4.044439   416A      4.078081   417A      4.082676  
     418A      4.097811   419A      4.101275   420A      4.129868  
     421A      4.141753   422A      4.160073   423A      4.167656  
     424A      4.181323   425A      4.198347   426A      4.203677  
     427A      4.218926   428A      4.236341   429A      4.248721  
     430A      4.265443   431A      4.271877   432A      4.277380  
     433A      4.286542   434A      4.309058   435A      4.329515  
     436A      4.330700   437A      4.341774   438A      4.381160  
     439A      4.386981   440A      4.400711   441A      4.421072  
     442A      4.429924   443A      4.469768   444A      4.479576  
     445A      4.507227   446A      4.511106   447A      4.522053  
     448A      4.572845   449A      4.592418   450A      4.599948  
     451A      4.625892   452A      4.635368   453A      4.665730  
     454A      4.673346   455A      4.685775   456A      4.696556  
     457A      4.711517   458A      4.717358   459A      4.742212  
     460A      4.781560   461A      4.784144   462A      4.805003  
     463A      4.820370   464A      4.838194   465A      4.844596  
     466A      4.876477   467A      4.887181   468A      4.901214  
     469A      4.938072   470A      4.964054   471A      4.981789  
     472A      5.001464   473A      5.023464   474A      5.038166  
     475A      5.052894   476A      5.071927   477A      5.072771  
     478A      5.099716   479A      5.115709   480A      5.126221  
     481A      5.147947   482A      5.158704   483A      5.203866  
     484A      5.227697   485A      5.245496   486A      5.255420  
     487A      5.270988   488A      5.288524   489A      5.298584  
     490A      5.329182   491A      5.355772   492A      5.374050  
     493A      5.393155   494A      5.409247   495A      5.438896  
     496A      5.452103   497A      5.467200   498A      5.484067  
     499A      5.525428   500A      5.537835   501A      5.579559  
     502A      5.605080   503A      5.619683   504A      5.654200  
     505A      5.678321   506A      5.679683   507A      5.699585  
     508A      5.733328   509A      5.759800   510A      5.764144  
     511A      5.789837   512A      5.817489   513A      5.822194  
     514A      5.844205   515A      5.867358   516A      5.886680  
     517A      5.934499   518A      5.951776   519A      5.953578  
     520A      5.992685   521A      6.005558   522A      6.041931  
     523A      6.088090   524A      6.111682   525A      6.122657  
     526A      6.147595   527A      6.162868   528A      6.177280  
     529A      6.196907   530A      6.229106   531A      6.274021  
     532A      6.325351   533A      6.349962   534A      6.438437  
     535A      6.463802   536A      6.536032   537A      6.611373  
     538A      6.667432   539A      6.699042   540A      6.716415  
     541A      6.744605   542A      6.764114   543A      6.800686  
     544A      6.812251   545A      6.822914   546A      6.846733  
     547A      6.903011   548A      6.920548   549A      6.943360  
     550A      7.020697   551A      7.041352   552A      7.077628  
     553A      7.105430   554A      7.193242   555A      7.222101  
     556A      7.280485   557A      7.358790   558A      7.423868  
     559A      7.432377   560A      7.477936   561A      7.706242  
     562A      7.733473   563A      7.869690   564A      7.900018  
     565A      7.983753   566A      8.078713   567A     15.615877  
     568A     15.869416   569A     16.709868   570A     17.841777  
     571A     18.369183   572A     18.769740   573A     19.711996  
     574A     20.264689   575A     20.743027  

    Final Occupation by Irrep:
              A 
    DOCC [    33 ]

  @DF-RHF Final Energy:  -431.80115401691012

   => Energetics <=

    Nuclear Repulsion Energy =            442.0499792011360114
    One-Electron Energy =               -1464.1714509684593395
    Two-Electron Energy =                 590.3203177504132100
    Total Energy =                       -431.8011540169101181

Computation Completed

*** tstop() called on c445-024.stampede2.tacc.utexas.edu at Sat Mar 20 13:00:38 2021
Module time:
	user time   =     481.68 seconds =       8.03 minutes
	system time =      37.00 seconds =       0.62 minutes
	total time  =         27 seconds =       0.45 minutes
Total time:
	user time   =     481.68 seconds =       8.03 minutes
	system time =      37.00 seconds =       0.62 minutes
	total time  =         27 seconds =       0.45 minutes
   => Loading Basis Set <=

    Name: (AUG-CC-PVTZ AUX)
    Role: RIFIT
    Keyword: DF_BASIS_MP2
    atoms 1     entry O          line   264 file /home1/07844/xy3866/miniconda3/envs/p4env/share/psi4/basis/aug-cc-pvtz-ri.gbs 
    atoms 2-4   entry N          line   206 file /home1/07844/xy3866/miniconda3/envs/p4env/share/psi4/basis/aug-cc-pvtz-ri.gbs 
    atoms 5-9   entry C          line   148 file /home1/07844/xy3866/miniconda3/envs/p4env/share/psi4/basis/aug-cc-pvtz-ri.gbs 
    atoms 10-16 entry H          line    30 file /home1/07844/xy3866/miniconda3/envs/p4env/share/psi4/basis/aug-cc-pvtz-ri.gbs 


*** tstart() called on c445-024.stampede2.tacc.utexas.edu
*** at Sat Mar 20 13:00:39 2021


  //>>>>>>>>>>>>>>>>>>>>>>>>>>>>>>>>>>>//
  //               DFMP2               //
  //<<<<<<<<<<<<<<<<<<<<<<<<<<<<<<<<<<<//

	 --------------------------------------------------------
	                          DF-MP2                         
	      2nd-Order Density-Fitted Moller-Plesset Theory     
	              RMP2 Wavefunction,  32 Threads             
	                                                         
	        Rob Parrish, Justin Turney, Andy Simmonett,      
	           Ed Hohenstein, and C. David Sherrill          
	 --------------------------------------------------------

   => Auxiliary Basis Set <=

  Basis Set: (AUG-CC-PVTZ AUX)
    Blend: AUG-CC-PVTZ-RI
    Number of shells: 350
    Number of basis functions: 1276
    Number of Cartesian functions: 1609
    Spherical Harmonics?: true
    Max angular momentum: 4

	 --------------------------------------------------------
	                 NBF =   575, NAUX =  1276
	 --------------------------------------------------------
	   CLASS    FOCC     OCC    AOCC    AVIR     VIR    FVIR
	   PAIRS       0      33      33     542     542       0
	 --------------------------------------------------------

  DFHelper Memory: AOs need 3.109 GiB; user supplied 22.352 GiB. Using in-core AOs.


         ------------------------------------------------------------
                                     CPHF                           
                                  Rob Parrish                       
         ------------------------------------------------------------

  ==> Geometry <==

    Molecular point group: c1
    Full point group: C1

    Geometry (in Angstrom), charge = 0, multiplicity = 1:

       Center              X                  Y                   Z               Mass       
    ------------   -----------------  -----------------  -----------------  -----------------
         O           -1.463873049214    -1.759192132627     0.002562475333    15.994914619570
         N           -1.110292049214     0.494544867373     0.004847475333    14.003074004430
         N            0.730252950786    -1.032692132627     0.009120475333    14.003074004430
         N            2.883655950786    -0.249320132627    -0.063117524667    14.003074004430
         C           -0.261211049214     1.553300867373     0.003136475333    12.000000000000
         C            1.038353350786     1.374782367373    -0.001209824667    12.000000000000
         C           -0.635252049214    -0.850347132627     0.001939475333    12.000000000000
         C           -2.559943049214     0.664480867373     0.008325475333    12.000000000000
         C            1.536905950786     0.010330867373     0.003362475333    12.000000000000
         H           -0.718359049214     2.539172867373     0.001210475333     1.007825032230
         H            1.771015950786     2.208875867373    -0.021230524667     1.007825032230
         H           -2.787107049214     1.731478867373     0.007573475333     1.007825032230
         H           -2.983842049214     0.188405867373     0.893762475333     1.007825032230
         H           -2.987596049214     0.186262867373    -0.874070524667     1.007825032230
         H            3.517104950786     0.445095867373     0.310251475333     1.007825032230
         H            3.127045950786    -1.212404132627     0.139536475333     1.007825032230

  Nuclear repulsion =  442.049979201136011
  Reference energy  = -431.801154016910118

  ==> Basis Set <==

  Basis Set: AUG-CC-PVTZ
    Blend: AUG-CC-PVTZ
    Number of shells: 189
    Number of basis functions: 575
    Number of Cartesian functions: 670
    Spherical Harmonics?: true
    Max angular momentum: 3

  ==> CGRSolver (by Rob Parrish) <==

   Number of roots    =         1
   Preconditioning    =    JACOBI
   Convergence cutoff =     1E-06
   Maximum iterations =       100

  ==> CPHFRHamiltonian (by Rob Parrish) <== 

  ==> MemDFJK: Density-Fitted J/K Matrices <==

    J tasked:                   Yes
    K tasked:                   Yes
    wK tasked:                   No
    OpenMP threads:              32
    Memory [MiB]:             22888
    Algorithm:                 Core
    Schwarz Cutoff:           1E-12
    Mask sparsity (%):       4.7486
    Fitting Condition:        1E-10

   => Auxiliary Basis Set <=

  Basis Set: (AUG-CC-PVTZ AUX)
    Blend: AUG-CC-PVTZ-JKFIT
    Number of shells: 368
    Number of basis functions: 1258
    Number of Cartesian functions: 1564
    Spherical Harmonics?: true
    Max angular momentum: 4

  ==> CPHF Iterations <==

  => Iterations <=

             Iter  Converged  Remaining    Residual
  CGR           1          0          1   1.445E-01
  CGR           2          0          1   4.803E-02
  CGR           3          0          1   2.197E-02
  CGR           4          0          1   6.448E-03
  CGR           5          0          1   2.847E-03
  CGR           6          0          1   1.092E-03
  CGR           7          0          1   3.378E-04
  CGR           8          0          1   1.237E-04
  CGR           9          0          1   4.312E-05
  CGR          10          0          1   1.703E-05
  CGR          11          0          1   6.413E-06
  CGR          12          0          1   2.315E-06
  CGR          13          1          0   6.310E-07

    CGRSolver converged.

	-----------------------------------------------------------
	 ==================> DF-MP2 Energies <==================== 
	-----------------------------------------------------------
	 Reference Energy          =    -431.8011540169101181 [Eh]
	 Singles Energy            =      -0.0000000000000000 [Eh]
	 Same-Spin Energy          =      -0.4497912351226702 [Eh]
	 Opposite-Spin Energy      =      -1.3711470853574061 [Eh]
	 Correlation Energy        =      -1.8209383204800762 [Eh]
	 Total Energy              =    -433.6220923373901996 [Eh]
	-----------------------------------------------------------
	 ================> DF-SCS-MP2 Energies <================== 
	-----------------------------------------------------------
	 SCS Same-Spin Scale       =       0.3333333333333333 [-]
	 SCS Opposite-Spin Scale   =       1.2000000000000000 [-]
	 SCS Same-Spin Energy      =      -0.1499304117075567 [Eh]
	 SCS Opposite-Spin Energy  =      -1.6453765024288873 [Eh]
	 SCS Correlation Energy    =      -1.7953069141364439 [Eh]
	 SCS Total Energy          =    -433.5964609310465789 [Eh]
	-----------------------------------------------------------



Properties will be evaluated at   0.000000,   0.000000,  -0.000000 [a0]

Properties computed using the MP2 density matrix

  Nuclear Dipole Moment: [e a0]
     X:    -1.0097      Y:     5.7001      Z:     0.4286

  Electronic Dipole Moment: [e a0]
     X:     1.7935      Y:    -3.5168      Z:    -0.1256

  Dipole Moment: [e a0]
     X:     0.7838      Y:     2.1833      Z:     0.3030     Total:     2.3394

  Dipole Moment: [D]
     X:     1.9923      Y:     5.5493      Z:     0.7701     Total:     5.9462


*** tstop() called on c445-024.stampede2.tacc.utexas.edu at Sat Mar 20 13:03:17 2021
Module time:
	user time   =    1271.15 seconds =      21.19 minutes
	system time =      49.04 seconds =       0.82 minutes
	total time  =        158 seconds =       2.63 minutes
Total time:
	user time   =    1753.63 seconds =      29.23 minutes
	system time =      86.06 seconds =       1.43 minutes
	total time  =        186 seconds =       3.10 minutes

    Psi4 stopped on: Saturday, 20 March 2021 01:03PM
    Psi4 wall time for execution: 0:03:06.82

*** Psi4 exiting successfully. Buy a developer a beer!
