
    -----------------------------------------------------------------------
          Psi4: An Open-Source Ab Initio Electronic Structure Package
                               Psi4 1.4a3.dev225 

                         Git: Rev {master} 7105e37 


    D. G. A. Smith, L. A. Burns, A. C. Simmonett, R. M. Parrish,
    M. C. Schieber, R. Galvelis, P. Kraus, H. Kruse, R. Di Remigio,
    A. Alenaizan, A. M. James, S. Lehtola, J. P. Misiewicz, M. Scheurer,
    R. A. Shaw, J. B. Schriber, Y. Xie, Z. L. Glick, D. A. Sirianni,
    J. S. O'Brien, J. M. Waldrop, A. Kumar, E. G. Hohenstein,
    B. P. Pritchard, B. R. Brooks, H. F. Schaefer III, A. Yu. Sokolov,
    K. Patkowski, A. E. DePrince III, U. Bozkaya, R. A. King,
    F. A. Evangelista, J. M. Turney, T. D. Crawford, C. D. Sherrill,
    J. Chem. Phys. 152(18) 184108 (2020). https://doi.org/10.1063/5.0006002

                            Additional Code Authors
    E. T. Seidl, C. L. Janssen, E. F. Valeev, M. L. Leininger,
    J. F. Gonthier, R. M. Richard, H. R. McAlexander, M. Saitow, X. Wang,
    P. Verma, and M. H. Lechner

             Previous Authors, Complete List of Code Contributors,
                       and Citations for Specific Modules
    https://github.com/psi4/psi4/blob/master/codemeta.json
    https://github.com/psi4/psi4/graphs/contributors
    http://psicode.org/psi4manual/master/introduction.html#citing-psifour

    -----------------------------------------------------------------------


    Psi4 started on: Saturday, 20 March 2021 01:26PM

    Process ID: 60979
    Host:       c445-024.stampede2.tacc.utexas.edu
    PSIDATADIR: /home1/07844/xy3866/miniconda3/envs/p4env/share/psi4
    Memory:     500.0 MiB
    Threads:    32
    
  ==> Input File <==

--------------------------------------------------------------------------
#psi4
#
memory 32 gb

molecule  {
0 1
  O       -1.4602810    -1.8042760    -0.0008590
  N       -1.1067000     0.4494610     0.0014260
  N        0.7338450    -1.0777760     0.0056990
  N        2.8872480    -0.2944040    -0.0665390
  C       -0.2576190     1.5082170    -0.0002850
  C        1.0914800     1.3228940    -0.0047970
  C       -0.6316600    -0.8954310    -0.0014820
  C       -2.5563510     0.6193970     0.0049040
  C        1.5247979     0.0127178    -0.0002247
  H       -0.7147670     2.4940890    -0.0022110
  H        1.7746080     2.1637920    -0.0246520
  H       -2.7835150     1.6863950     0.0041520
  H       -2.9802500     0.1433220     0.8903410
  H       -2.9840040     0.1411790    -0.8774920
  H        3.5206970     0.4000120     0.3068300
  H        3.1306380    -1.2574880     0.1361150
units angstrom
no_reorient  #important for SAPT in psi4, default
symmetry c1  #important for SAPT in psi4, default
}

set PROPERTIES_ORIGIN ["COM"]
properties('MP2/aug-cc-pvtz', properties = ['dipole'])
--------------------------------------------------------------------------

  Memory set to  29.802 GiB by Python driver.
    SCF Algorithm Type (re)set to DF.

*** tstart() called on c445-024.stampede2.tacc.utexas.edu
*** at Sat Mar 20 13:26:37 2021

   => Loading Basis Set <=

    Name: AUG-CC-PVTZ
    Role: ORBITAL
    Keyword: BASIS
    atoms 1     entry O          line   331 file /home1/07844/xy3866/miniconda3/envs/p4env/share/psi4/basis/aug-cc-pvtz.gbs 
    atoms 2-4   entry N          line   285 file /home1/07844/xy3866/miniconda3/envs/p4env/share/psi4/basis/aug-cc-pvtz.gbs 
    atoms 5-9   entry C          line   239 file /home1/07844/xy3866/miniconda3/envs/p4env/share/psi4/basis/aug-cc-pvtz.gbs 
    atoms 10-16 entry H          line    40 file /home1/07844/xy3866/miniconda3/envs/p4env/share/psi4/basis/aug-cc-pvtz.gbs 


         ---------------------------------------------------------
                                   SCF
               by Justin Turney, Rob Parrish, Andy Simmonett
                          and Daniel G. A. Smith
                              RHF Reference
                       32 Threads,  30517 MiB Core
         ---------------------------------------------------------

  ==> Geometry <==

    Molecular point group: c1
    Full point group: C1

    Geometry (in Angstrom), charge = 0, multiplicity = 1:

       Center              X                  Y                   Z               Mass       
    ------------   -----------------  -----------------  -----------------  -----------------
         O           -1.467119631116    -1.763094258375     0.002594274746    15.994914619570
         N           -1.113538631116     0.490642741625     0.004879274746    14.003074004430
         N            0.727006368884    -1.036594258375     0.009152274746    14.003074004430
         N            2.880409368884    -0.253222258375    -0.063085725254    14.003074004430
         C           -0.264457631116     1.549398741625     0.003168274746    12.000000000000
         C            1.084641368884     1.364075741625    -0.001343725254    12.000000000000
         C           -0.638498631116    -0.854249258375     0.001971274746    12.000000000000
         C           -2.563189631116     0.660578741625     0.008357274746    12.000000000000
         C            1.517959268884     0.053899541625     0.003228574746    12.000000000000
         H           -0.721605631116     2.535270741625     0.001242274746     1.007825032230
         H            1.767769368884     2.204973741625    -0.021198725254     1.007825032230
         H           -2.790353631116     1.727576741625     0.007605274746     1.007825032230
         H           -2.987088631116     0.184503741625     0.893794274746     1.007825032230
         H           -2.990842631116     0.182360741625    -0.874038725254     1.007825032230
         H            3.513858368884     0.441193741625     0.310283274746     1.007825032230
         H            3.123799368884    -1.216306258375     0.139568274746     1.007825032230

  Running in c1 symmetry.

  Rotational constants: A =      0.11101  B =      0.04742  C =      0.03346 [cm^-1]
  Rotational constants: A =   3328.04496  B =   1421.59984  C =   1003.00519 [MHz]
  Nuclear repulsion =  441.646176508059909

  Charge       = 0
  Multiplicity = 1
  Electrons    = 66
  Nalpha       = 33
  Nbeta        = 33

  ==> Algorithm <==

  SCF Algorithm Type is DF.
  DIIS enabled.
  MOM disabled.
  Fractional occupation disabled.
  Guess Type is SAD.
  Energy threshold   = 1.00e-10
  Density threshold  = 1.00e-10
  Integral threshold = 1.00e-12

  ==> Primary Basis <==

  Basis Set: AUG-CC-PVTZ
    Blend: AUG-CC-PVTZ
    Number of shells: 189
    Number of basis functions: 575
    Number of Cartesian functions: 670
    Spherical Harmonics?: true
    Max angular momentum: 3

   => Loading Basis Set <=

    Name: (AUG-CC-PVTZ AUX)
    Role: JKFIT
    Keyword: DF_BASIS_SCF
    atoms 1     entry O          line   286 file /home1/07844/xy3866/miniconda3/envs/p4env/share/psi4/basis/aug-cc-pvtz-jkfit.gbs 
    atoms 2-4   entry N          line   224 file /home1/07844/xy3866/miniconda3/envs/p4env/share/psi4/basis/aug-cc-pvtz-jkfit.gbs 
    atoms 5-9   entry C          line   162 file /home1/07844/xy3866/miniconda3/envs/p4env/share/psi4/basis/aug-cc-pvtz-jkfit.gbs 
    atoms 10-16 entry H          line    70 file /home1/07844/xy3866/miniconda3/envs/p4env/share/psi4/basis/aug-cc-pvtz-jkfit.gbs 

  ==> Integral Setup <==

  DFHelper Memory: AOs need 3.018 GiB; user supplied 22.352 GiB. Using in-core AOs.

  ==> MemDFJK: Density-Fitted J/K Matrices <==

    J tasked:                   Yes
    K tasked:                   Yes
    wK tasked:                   No
    OpenMP threads:              32
    Memory [MiB]:             22888
    Algorithm:                 Core
    Schwarz Cutoff:           1E-12
    Mask sparsity (%):       7.6788
    Fitting Condition:        1E-10

   => Auxiliary Basis Set <=

  Basis Set: (AUG-CC-PVTZ AUX)
    Blend: AUG-CC-PVTZ-JKFIT
    Number of shells: 368
    Number of basis functions: 1258
    Number of Cartesian functions: 1564
    Spherical Harmonics?: true
    Max angular momentum: 4

  Minimum eigenvalue in the overlap matrix is 2.1791561587E-06.
  Reciprocal condition number of the overlap matrix is 1.2410968077E-07.
    Using symmetric orthogonalization.

  ==> Pre-Iterations <==

  SCF Guess: Superposition of Atomic Densities via on-the-fly atomic UHF (no occupation information).

   -------------------------
    Irrep   Nso     Nmo    
   -------------------------
     A        575     575 
   -------------------------
    Total     575     575
   -------------------------

  ==> Iterations <==

                           Total Energy        Delta E     RMS |[F,P]|

   @DF-RHF iter SAD:  -431.15959569162646   -4.31160e+02   0.00000e+00 
   @DF-RHF iter   1:  -431.52202097095079   -3.62425e-01   1.29688e-03 DIIS
   @DF-RHF iter   2:  -431.73142185837463   -2.09401e-01   7.30729e-04 DIIS
   @DF-RHF iter   3:  -431.79263798872262   -6.12161e-02   1.53740e-04 DIIS
   @DF-RHF iter   4:  -431.79695236368286   -4.31437e-03   6.36029e-05 DIIS
   @DF-RHF iter   5:  -431.79776425828015   -8.11895e-04   1.35220e-05 DIIS
   @DF-RHF iter   6:  -431.79784359621021   -7.93379e-05   7.37939e-06 DIIS
   @DF-RHF iter   7:  -431.79786684099184   -2.32448e-05   2.57658e-06 DIIS
   @DF-RHF iter   8:  -431.79787107679357   -4.23580e-06   1.08097e-06 DIIS
   @DF-RHF iter   9:  -431.79787160397342   -5.27180e-07   4.00570e-07 DIIS
   @DF-RHF iter  10:  -431.79787169545403   -9.14806e-08   1.43451e-07 DIIS
   @DF-RHF iter  11:  -431.79787170730901   -1.18550e-08   5.41111e-08 DIIS
   @DF-RHF iter  12:  -431.79787170872038   -1.41137e-09   1.69570e-08 DIIS
   @DF-RHF iter  13:  -431.79787170889841   -1.78034e-10   7.51950e-09 DIIS
   @DF-RHF iter  14:  -431.79787170892411   -2.56932e-11   3.24574e-09 DIIS
   @DF-RHF iter  15:  -431.79787170893184   -7.73070e-12   1.37174e-09 DIIS
   @DF-RHF iter  16:  -431.79787170893428   -2.44427e-12   5.11772e-10 DIIS
   @DF-RHF iter  17:  -431.79787170893462   -3.41061e-13   2.30989e-10 DIIS
   @DF-RHF iter  18:  -431.79787170893331    1.30740e-12   6.44182e-11 DIIS
  Energy and wave function converged.


  ==> Post-Iterations <==

    Orbital Energies [Eh]
    ---------------------

    Doubly Occupied:                                                      

       1A    -20.500363     2A    -15.631486     3A    -15.587806  
       4A    -15.543115     5A    -11.366476     6A    -11.348483  
       7A    -11.335158     8A    -11.275889     9A    -11.242489  
      10A     -1.382470    11A     -1.294073    12A     -1.261519  
      13A     -1.162074    14A     -1.081963    15A     -0.969177  
      16A     -0.905631    17A     -0.850431    18A     -0.758605  
      19A     -0.726763    20A     -0.681176    21A     -0.668957  
      22A     -0.656898    23A     -0.628418    24A     -0.603854  
      25A     -0.588987    26A     -0.574896    27A     -0.566661  
      28A     -0.513805    29A     -0.480978    30A     -0.443224  
      31A     -0.418593    32A     -0.382274    33A     -0.339999  

    Virtual:                                                              

      34A      0.016887    35A      0.025263    36A      0.036199  
      37A      0.047437    38A      0.048534    39A      0.054202  
      40A      0.066914    41A      0.073840    42A      0.082536  
      43A      0.085507    44A      0.096418    45A      0.101748  
      46A      0.103689    47A      0.105373    48A      0.113633  
      49A      0.119625    50A      0.126627    51A      0.132192  
      52A      0.133032    53A      0.138728    54A      0.141497  
      55A      0.147176    56A      0.155224    57A      0.160457  
      58A      0.169096    59A      0.171916    60A      0.174970  
      61A      0.183979    62A      0.197039    63A      0.198916  
      64A      0.213053    65A      0.217818    66A      0.224290  
      67A      0.229937    68A      0.233601    69A      0.240820  
      70A      0.245780    71A      0.256411    72A      0.259449  
      73A      0.267896    74A      0.272918    75A      0.278940  
      76A      0.283554    77A      0.293389    78A      0.295547  
      79A      0.296956    80A      0.307677    81A      0.311851  
      82A      0.316255    83A      0.322761    84A      0.327574  
      85A      0.333703    86A      0.341850    87A      0.346789  
      88A      0.353184    89A      0.362051    90A      0.365257  
      91A      0.368243    92A      0.375341    93A      0.379965  
      94A      0.387472    95A      0.396907    96A      0.403734  
      97A      0.406142    98A      0.408087    99A      0.415561  
     100A      0.418030   101A      0.428872   102A      0.433919  
     103A      0.439872   104A      0.442562   105A      0.450065  
     106A      0.456288   107A      0.462811   108A      0.464288  
     109A      0.469921   110A      0.472595   111A      0.477522  
     112A      0.484474   113A      0.488553   114A      0.495220  
     115A      0.498053   116A      0.508485   117A      0.517037  
     118A      0.525022   119A      0.531682   120A      0.534907  
     121A      0.538664   122A      0.544905   123A      0.553364  
     124A      0.554451   125A      0.561366   126A      0.573969  
     127A      0.583409   128A      0.587455   129A      0.602737  
     130A      0.608043   131A      0.613338   132A      0.618446  
     133A      0.638499   134A      0.641876   135A      0.644709  
     136A      0.651850   137A      0.664568   138A      0.665725  
     139A      0.672094   140A      0.686511   141A      0.695214  
     142A      0.704336   143A      0.718681   144A      0.722331  
     145A      0.724430   146A      0.735830   147A      0.743836  
     148A      0.750204   149A      0.764343   150A      0.773294  
     151A      0.778136   152A      0.780473   153A      0.788363  
     154A      0.798479   155A      0.809055   156A      0.817021  
     157A      0.821464   158A      0.833227   159A      0.840589  
     160A      0.842475   161A      0.844054   162A      0.858390  
     163A      0.875012   164A      0.875230   165A      0.886552  
     166A      0.895367   167A      0.902448   168A      0.907546  
     169A      0.913367   170A      0.915812   171A      0.926413  
     172A      0.929522   173A      0.936153   174A      0.937683  
     175A      0.946434   176A      0.954544   177A      0.964982  
     178A      0.972194   179A      0.983098   180A      0.987693  
     181A      0.991182   182A      0.997726   183A      1.006820  
     184A      1.012700   185A      1.026285   186A      1.028236  
     187A      1.036610   188A      1.047671   189A      1.055839  
     190A      1.061757   191A      1.069866   192A      1.080766  
     193A      1.088397   194A      1.091455   195A      1.094240  
     196A      1.101435   197A      1.108694   198A      1.118666  
     199A      1.131795   200A      1.133627   201A      1.141830  
     202A      1.150680   203A      1.155523   204A      1.159418  
     205A      1.165167   206A      1.171673   207A      1.180630  
     208A      1.184264   209A      1.188147   210A      1.188968  
     211A      1.200188   212A      1.209283   213A      1.214762  
     214A      1.221228   215A      1.242269   216A      1.253261  
     217A      1.261857   218A      1.274877   219A      1.286210  
     220A      1.292893   221A      1.302459   222A      1.311364  
     223A      1.323799   224A      1.332246   225A      1.339340  
     226A      1.346707   227A      1.360816   228A      1.365028  
     229A      1.379424   230A      1.383481   231A      1.388397  
     232A      1.392397   233A      1.402076   234A      1.420976  
     235A      1.429630   236A      1.442970   237A      1.447370  
     238A      1.455876   239A      1.470278   240A      1.476500  
     241A      1.483777   242A      1.498753   243A      1.506268  
     244A      1.519084   245A      1.522745   246A      1.528716  
     247A      1.539121   248A      1.555359   249A      1.568416  
     250A      1.577617   251A      1.581201   252A      1.590301  
     253A      1.597683   254A      1.621461   255A      1.630715  
     256A      1.647017   257A      1.653352   258A      1.660893  
     259A      1.669956   260A      1.679660   261A      1.685024  
     262A      1.693732   263A      1.696136   264A      1.703613  
     265A      1.724283   266A      1.734869   267A      1.744107  
     268A      1.752675   269A      1.762273   270A      1.775151  
     271A      1.777481   272A      1.793858   273A      1.804014  
     274A      1.818533   275A      1.833447   276A      1.848159  
     277A      1.859824   278A      1.867954   279A      1.875051  
     280A      1.888658   281A      1.904368   282A      1.918579  
     283A      1.933104   284A      1.940397   285A      1.962656  
     286A      1.977981   287A      1.984691   288A      1.989012  
     289A      2.005162   290A      2.022857   291A      2.032287  
     292A      2.052687   293A      2.062859   294A      2.070529  
     295A      2.086855   296A      2.105738   297A      2.106696  
     298A      2.114481   299A      2.138261   300A      2.149683  
     301A      2.156996   302A      2.166429   303A      2.178223  
     304A      2.203505   305A      2.208314   306A      2.212872  
     307A      2.221081   308A      2.233478   309A      2.245776  
     310A      2.256183   311A      2.277065   312A      2.281033  
     313A      2.302519   314A      2.340444   315A      2.350565  
     316A      2.363558   317A      2.365883   318A      2.374406  
     319A      2.381916   320A      2.394749   321A      2.407601  
     322A      2.410954   323A      2.427923   324A      2.445749  
     325A      2.467659   326A      2.483048   327A      2.487071  
     328A      2.516115   329A      2.523589   330A      2.531715  
     331A      2.553855   332A      2.569303   333A      2.581836  
     334A      2.597310   335A      2.599914   336A      2.617733  
     337A      2.632539   338A      2.651551   339A      2.664707  
     340A      2.686300   341A      2.702676   342A      2.731478  
     343A      2.747216   344A      2.749685   345A      2.779148  
     346A      2.786713   347A      2.804735   348A      2.845016  
     349A      2.860483   350A      2.877403   351A      2.884548  
     352A      2.927201   353A      2.939807   354A      2.995437  
     355A      2.997507   356A      3.021354   357A      3.040495  
     358A      3.048232   359A      3.063712   360A      3.069736  
     361A      3.140569   362A      3.185658   363A      3.197614  
     364A      3.214024   365A      3.267003   366A      3.289793  
     367A      3.299564   368A      3.333899   369A      3.358873  
     370A      3.390090   371A      3.408020   372A      3.424387  
     373A      3.429608   374A      3.451512   375A      3.465285  
     376A      3.470774   377A      3.501572   378A      3.506622  
     379A      3.523860   380A      3.533887   381A      3.558065  
     382A      3.573521   383A      3.600122   384A      3.614074  
     385A      3.631591   386A      3.661988   387A      3.674409  
     388A      3.686691   389A      3.714182   390A      3.720786  
     391A      3.730796   392A      3.738161   393A      3.741043  
     394A      3.749935   395A      3.758824   396A      3.768743  
     397A      3.790461   398A      3.803477   399A      3.809229  
     400A      3.824578   401A      3.836179   402A      3.865429  
     403A      3.896840   404A      3.907164   405A      3.918725  
     406A      3.925517   407A      3.948772   408A      3.951885  
     409A      3.961076   410A      3.982697   411A      3.992840  
     412A      4.016124   413A      4.024681   414A      4.038784  
     415A      4.042146   416A      4.062603   417A      4.076731  
     418A      4.083554   419A      4.099230   420A      4.129122  
     421A      4.137712   422A      4.148863   423A      4.164705  
     424A      4.175125   425A      4.191352   426A      4.206105  
     427A      4.217254   428A      4.234228   429A      4.249938  
     430A      4.265971   431A      4.270819   432A      4.278870  
     433A      4.290517   434A      4.314224   435A      4.331405  
     436A      4.335753   437A      4.346437   438A      4.381280  
     439A      4.392769   440A      4.408522   441A      4.424591  
     442A      4.429526   443A      4.461264   444A      4.478523  
     445A      4.515452   446A      4.522776   447A      4.529555  
     448A      4.562630   449A      4.590881   450A      4.595105  
     451A      4.621062   452A      4.635907   453A      4.656931  
     454A      4.669801   455A      4.684249   456A      4.690838  
     457A      4.698770   458A      4.724297   459A      4.741496  
     460A      4.779787   461A      4.795584   462A      4.802854  
     463A      4.824028   464A      4.833394   465A      4.852271  
     466A      4.887255   467A      4.894741   468A      4.919516  
     469A      4.945343   470A      4.956273   471A      4.970192  
     472A      4.983686   473A      5.005443   474A      5.043554  
     475A      5.054443   476A      5.084103   477A      5.088251  
     478A      5.099065   479A      5.105555   480A      5.131547  
     481A      5.142046   482A      5.157764   483A      5.198357  
     484A      5.228439   485A      5.242284   486A      5.248513  
     487A      5.263651   488A      5.289072   489A      5.298325  
     490A      5.331981   491A      5.355409   492A      5.370756  
     493A      5.398077   494A      5.413781   495A      5.425884  
     496A      5.443490   497A      5.468634   498A      5.485557  
     499A      5.517692   500A      5.533198   501A      5.574126  
     502A      5.590132   503A      5.619324   504A      5.656696  
     505A      5.663937   506A      5.687211   507A      5.688758  
     508A      5.730997   509A      5.758932   510A      5.762275  
     511A      5.806095   512A      5.808797   513A      5.814539  
     514A      5.837021   515A      5.856736   516A      5.888095  
     517A      5.924997   518A      5.939348   519A      5.952947  
     520A      5.984895   521A      6.004709   522A      6.044645  
     523A      6.088053   524A      6.111254   525A      6.121975  
     526A      6.138911   527A      6.159085   528A      6.170623  
     529A      6.189809   530A      6.240768   531A      6.264070  
     532A      6.316779   533A      6.359655   534A      6.433739  
     535A      6.457577   536A      6.564939   537A      6.629867  
     538A      6.661796   539A      6.694623   540A      6.701366  
     541A      6.753577   542A      6.784002   543A      6.789572  
     544A      6.814222   545A      6.822818   546A      6.833415  
     547A      6.889137   548A      6.905190   549A      6.941228  
     550A      6.988324   551A      7.042099   552A      7.089214  
     553A      7.108817   554A      7.179827   555A      7.223394  
     556A      7.272078   557A      7.319494   558A      7.411574  
     559A      7.432837   560A      7.478899   561A      7.707497  
     562A      7.741146   563A      7.861006   564A      7.878399  
     565A      7.984529   566A      8.078412   567A     15.641375  
     568A     15.797141   569A     16.423839   570A     17.785234  
     571A     18.278784   572A     18.728633   573A     19.298257  
     574A     20.201404   575A     20.684343  

    Final Occupation by Irrep:
              A 
    DOCC [    33 ]

  @DF-RHF Final Energy:  -431.79787170893331

   => Energetics <=

    Nuclear Repulsion Energy =            441.6461765080599093
    One-Electron Energy =               -1463.3427172235412854
    Two-Electron Energy =                 589.8986690065480616
    Total Energy =                       -431.7978717089333713

Computation Completed

*** tstop() called on c445-024.stampede2.tacc.utexas.edu at Sat Mar 20 13:27:05 2021
Module time:
	user time   =     488.38 seconds =       8.14 minutes
	system time =      37.17 seconds =       0.62 minutes
	total time  =         28 seconds =       0.47 minutes
Total time:
	user time   =     488.38 seconds =       8.14 minutes
	system time =      37.17 seconds =       0.62 minutes
	total time  =         28 seconds =       0.47 minutes
   => Loading Basis Set <=

    Name: (AUG-CC-PVTZ AUX)
    Role: RIFIT
    Keyword: DF_BASIS_MP2
    atoms 1     entry O          line   264 file /home1/07844/xy3866/miniconda3/envs/p4env/share/psi4/basis/aug-cc-pvtz-ri.gbs 
    atoms 2-4   entry N          line   206 file /home1/07844/xy3866/miniconda3/envs/p4env/share/psi4/basis/aug-cc-pvtz-ri.gbs 
    atoms 5-9   entry C          line   148 file /home1/07844/xy3866/miniconda3/envs/p4env/share/psi4/basis/aug-cc-pvtz-ri.gbs 
    atoms 10-16 entry H          line    30 file /home1/07844/xy3866/miniconda3/envs/p4env/share/psi4/basis/aug-cc-pvtz-ri.gbs 


*** tstart() called on c445-024.stampede2.tacc.utexas.edu
*** at Sat Mar 20 13:27:06 2021


  //>>>>>>>>>>>>>>>>>>>>>>>>>>>>>>>>>>>//
  //               DFMP2               //
  //<<<<<<<<<<<<<<<<<<<<<<<<<<<<<<<<<<<//

	 --------------------------------------------------------
	                          DF-MP2                         
	      2nd-Order Density-Fitted Moller-Plesset Theory     
	              RMP2 Wavefunction,  32 Threads             
	                                                         
	        Rob Parrish, Justin Turney, Andy Simmonett,      
	           Ed Hohenstein, and C. David Sherrill          
	 --------------------------------------------------------

   => Auxiliary Basis Set <=

  Basis Set: (AUG-CC-PVTZ AUX)
    Blend: AUG-CC-PVTZ-RI
    Number of shells: 350
    Number of basis functions: 1276
    Number of Cartesian functions: 1609
    Spherical Harmonics?: true
    Max angular momentum: 4

	 --------------------------------------------------------
	                 NBF =   575, NAUX =  1276
	 --------------------------------------------------------
	   CLASS    FOCC     OCC    AOCC    AVIR     VIR    FVIR
	   PAIRS       0      33      33     542     542       0
	 --------------------------------------------------------

  DFHelper Memory: AOs need 3.108 GiB; user supplied 22.352 GiB. Using in-core AOs.


         ------------------------------------------------------------
                                     CPHF                           
                                  Rob Parrish                       
         ------------------------------------------------------------

  ==> Geometry <==

    Molecular point group: c1
    Full point group: C1

    Geometry (in Angstrom), charge = 0, multiplicity = 1:

       Center              X                  Y                   Z               Mass       
    ------------   -----------------  -----------------  -----------------  -----------------
         O           -1.467119631116    -1.763094258375     0.002594274746    15.994914619570
         N           -1.113538631116     0.490642741625     0.004879274746    14.003074004430
         N            0.727006368884    -1.036594258375     0.009152274746    14.003074004430
         N            2.880409368884    -0.253222258375    -0.063085725254    14.003074004430
         C           -0.264457631116     1.549398741625     0.003168274746    12.000000000000
         C            1.084641368884     1.364075741625    -0.001343725254    12.000000000000
         C           -0.638498631116    -0.854249258375     0.001971274746    12.000000000000
         C           -2.563189631116     0.660578741625     0.008357274746    12.000000000000
         C            1.517959268884     0.053899541625     0.003228574746    12.000000000000
         H           -0.721605631116     2.535270741625     0.001242274746     1.007825032230
         H            1.767769368884     2.204973741625    -0.021198725254     1.007825032230
         H           -2.790353631116     1.727576741625     0.007605274746     1.007825032230
         H           -2.987088631116     0.184503741625     0.893794274746     1.007825032230
         H           -2.990842631116     0.182360741625    -0.874038725254     1.007825032230
         H            3.513858368884     0.441193741625     0.310283274746     1.007825032230
         H            3.123799368884    -1.216306258375     0.139568274746     1.007825032230

  Nuclear repulsion =  441.646176508059909
  Reference energy  = -431.797871708933314

  ==> Basis Set <==

  Basis Set: AUG-CC-PVTZ
    Blend: AUG-CC-PVTZ
    Number of shells: 189
    Number of basis functions: 575
    Number of Cartesian functions: 670
    Spherical Harmonics?: true
    Max angular momentum: 3

  ==> CGRSolver (by Rob Parrish) <==

   Number of roots    =         1
   Preconditioning    =    JACOBI
   Convergence cutoff =     1E-06
   Maximum iterations =       100

  ==> CPHFRHamiltonian (by Rob Parrish) <== 

  ==> MemDFJK: Density-Fitted J/K Matrices <==

    J tasked:                   Yes
    K tasked:                   Yes
    wK tasked:                   No
    OpenMP threads:              32
    Memory [MiB]:             22888
    Algorithm:                 Core
    Schwarz Cutoff:           1E-12
    Mask sparsity (%):       4.7631
    Fitting Condition:        1E-10

   => Auxiliary Basis Set <=

  Basis Set: (AUG-CC-PVTZ AUX)
    Blend: AUG-CC-PVTZ-JKFIT
    Number of shells: 368
    Number of basis functions: 1258
    Number of Cartesian functions: 1564
    Spherical Harmonics?: true
    Max angular momentum: 4

  ==> CPHF Iterations <==

  => Iterations <=

             Iter  Converged  Remaining    Residual
  CGR           1          0          1   1.500E-01
  CGR           2          0          1   5.157E-02
  CGR           3          0          1   2.450E-02
  CGR           4          0          1   7.278E-03
  CGR           5          0          1   3.312E-03
  CGR           6          0          1   1.278E-03
  CGR           7          0          1   4.071E-04
  CGR           8          0          1   1.568E-04
  CGR           9          0          1   5.625E-05
  CGR          10          0          1   2.376E-05
  CGR          11          0          1   8.949E-06
  CGR          12          0          1   3.190E-06
  CGR          13          1          0   8.087E-07

    CGRSolver converged.

	-----------------------------------------------------------
	 ==================> DF-MP2 Energies <==================== 
	-----------------------------------------------------------
	 Reference Energy          =    -431.7978717089333145 [Eh]
	 Singles Energy            =      -0.0000000000000000 [Eh]
	 Same-Spin Energy          =      -0.4513297319274589 [Eh]
	 Opposite-Spin Energy      =      -1.3731447405649577 [Eh]
	 Correlation Energy        =      -1.8244744724924167 [Eh]
	 Total Energy              =    -433.6223461814257121 [Eh]
	-----------------------------------------------------------
	 ================> DF-SCS-MP2 Energies <================== 
	-----------------------------------------------------------
	 SCS Same-Spin Scale       =       0.3333333333333333 [-]
	 SCS Opposite-Spin Scale   =       1.2000000000000000 [-]
	 SCS Same-Spin Energy      =      -0.1504432439758196 [Eh]
	 SCS Opposite-Spin Energy  =      -1.6477736886779493 [Eh]
	 SCS Correlation Energy    =      -1.7982169326537689 [Eh]
	 SCS Total Energy          =    -433.5960886415870732 [Eh]
	-----------------------------------------------------------



Properties will be evaluated at  -0.000000,  -0.000000,  -0.000000 [a0]

Properties computed using the MP2 density matrix

  Nuclear Dipole Moment: [e a0]
     X:    -1.0309      Y:     5.6745      Z:     0.4288

  Electronic Dipole Moment: [e a0]
     X:     1.6416      Y:    -3.3765      Z:    -0.1253

  Dipole Moment: [e a0]
     X:     0.6106      Y:     2.2980      Z:     0.3035     Total:     2.3970

  Dipole Moment: [D]
     X:     1.5520      Y:     5.8409      Z:     0.7715     Total:     6.0926


*** tstop() called on c445-024.stampede2.tacc.utexas.edu at Sat Mar 20 13:29:44 2021
Module time:
	user time   =    1272.97 seconds =      21.22 minutes
	system time =      49.02 seconds =       0.82 minutes
	total time  =        158 seconds =       2.63 minutes
Total time:
	user time   =    1762.18 seconds =      29.37 minutes
	system time =      86.21 seconds =       1.44 minutes
	total time  =        187 seconds =       3.12 minutes

    Psi4 stopped on: Saturday, 20 March 2021 01:29PM
    Psi4 wall time for execution: 0:03:08.04

*** Psi4 exiting successfully. Buy a developer a beer!
