
    -----------------------------------------------------------------------
          Psi4: An Open-Source Ab Initio Electronic Structure Package
                               Psi4 1.3.2 release

                         Git: Rev {HEAD} ecbda83 


    R. M. Parrish, L. A. Burns, D. G. A. Smith, A. C. Simmonett,
    A. E. DePrince III, E. G. Hohenstein, U. Bozkaya, A. Yu. Sokolov,
    R. Di Remigio, R. M. Richard, J. F. Gonthier, A. M. James,
    H. R. McAlexander, A. Kumar, M. Saitow, X. Wang, B. P. Pritchard,
    P. Verma, H. F. Schaefer III, K. Patkowski, R. A. King, E. F. Valeev,
    F. A. Evangelista, J. M. Turney, T. D. Crawford, and C. D. Sherrill,
    J. Chem. Theory Comput. 13(7) pp 3185--3197 (2017).
    (doi: 10.1021/acs.jctc.7b00174)


                         Additional Contributions by
    P. Kraus, H. Kruse, M. H. Lechner, M. C. Schieber, R. A. Shaw,
    A. Alenaizan, R. Galvelis, Z. L. Glick, S. Lehtola, and J. P. Misiewicz

    -----------------------------------------------------------------------


    Psi4 started on: Tuesday, 03 November 2020 12:32AM

    Process ID: 75248
    Host:       node142.bme.utexas.edu
    PSIDATADIR: /home/xy3866/psi4conda/share/psi4
    Memory:     500.0 MiB
    Threads:    8
    
  ==> Input File <==

--------------------------------------------------------------------------
#psi4
#
memory 32 gb

molecule  {
0 1
  O       -1.4243350     1.8531120    -0.0084660
  N       -1.1409096    -0.4176559     0.0067062
  N        0.7399171     1.0952826     0.0097852
  N        2.8919430     0.2615640    -0.0759850
  C       -0.2733660    -1.4960510    -0.0007800
  C        1.0765330    -1.3300920    -0.0040440
  C       -0.6338910     0.9109410     0.0155220
  C       -2.5617390    -0.6507120     0.0005160
  C        1.5376510     0.0247200    -0.0002060
  H       -0.7522370    -2.4720050    -0.0099570
  H        1.7553550    -2.1750520    -0.0313920
  H       -2.8635010    -1.2105310     0.8892080
  H       -2.8583950    -1.1972750    -0.8980640
  H       -3.0263160     0.3321150     0.0069490
  H        3.5027140    -0.4263080     0.3467730
  H        3.1453740     1.2255370     0.1175850
units angstrom
no_reorient  #important for SAPT in psi4, default
symmetry c1  #important for SAPT in psi4, default
}

set PROPERTIES_ORIGIN ["COM"]
properties('MP2/aug-cc-pvtz', properties = ['dipole'])
--------------------------------------------------------------------------

  Memory set to  29.802 GiB by Python driver.
    SCF Algorithm Type (re)set to DF.

*** tstart() called on node142.bme.utexas.edu
*** at Tue Nov  3 00:32:26 2020

   => Loading Basis Set <=

    Name: AUG-CC-PVTZ
    Role: ORBITAL
    Keyword: BASIS
    atoms 1     entry O          line   327 file /home/xy3866/psi4conda/share/psi4/basis/aug-cc-pvtz.gbs 
    atoms 2-4   entry N          line   281 file /home/xy3866/psi4conda/share/psi4/basis/aug-cc-pvtz.gbs 
    atoms 5-9   entry C          line   235 file /home/xy3866/psi4conda/share/psi4/basis/aug-cc-pvtz.gbs 
    atoms 10-16 entry H          line    36 file /home/xy3866/psi4conda/share/psi4/basis/aug-cc-pvtz.gbs 


         ---------------------------------------------------------
                                   SCF
               by Justin Turney, Rob Parrish, Andy Simmonett
                          and Daniel G. A. Smith
                              RHF Reference
                        8 Threads,  30517 MiB Core
         ---------------------------------------------------------

  ==> Geometry <==

    Molecular point group: c1
    Full point group: C1

    Geometry (in Angstrom), charge = 0, multiplicity = 1:

       Center              X                  Y                   Z               Mass       
    ------------   -----------------  -----------------  -----------------  -----------------
         O           -1.430216335124     1.802514035603    -0.005171447953    15.994914619570
         N           -1.146790935124    -0.468253864397     0.010000752047    14.003074004430
         N            0.734035764876     1.044684635603     0.013079752047    14.003074004430
         N            2.886061664876     0.210966035603    -0.072690447953    14.003074004430
         C           -0.279247335124    -1.546648964397     0.002514552047    12.000000000000
         C            1.070651664876    -1.380689964397    -0.000749447953    12.000000000000
         C           -0.639772335124     0.860343035603     0.018816552047    12.000000000000
         C           -2.567620335124    -0.701309964397     0.003810552047    12.000000000000
         C            1.531769664876    -0.025877964397     0.003088552047    12.000000000000
         H           -0.758118335124    -2.522602964397    -0.006662447953     1.007825032230
         H            1.749473664876    -2.225649964397    -0.028097447953     1.007825032230
         H           -2.869382335124    -1.261128964397     0.892502552047     1.007825032230
         H           -2.864276335124    -1.247872964397    -0.894769447953     1.007825032230
         H           -3.032197335124     0.281517035603     0.010243552047     1.007825032230
         H            3.496832664876    -0.476905964397     0.350067552047     1.007825032230
         H            3.139492664876     1.174939035603     0.120879552047     1.007825032230

  Running in c1 symmetry.

  Rotational constants: A =      0.10859  B =      0.04736  C =      0.03321 [cm^-1]
  Rotational constants: A =   3255.49683  B =   1419.78950  C =    995.73807 [MHz]
  Nuclear repulsion =  440.224283927305464

  Charge       = 0
  Multiplicity = 1
  Electrons    = 66
  Nalpha       = 33
  Nbeta        = 33

  ==> Algorithm <==

  SCF Algorithm Type is DF.
  DIIS enabled.
  MOM disabled.
  Fractional occupation disabled.
  Guess Type is SAD.
  Energy threshold   = 1.00e-10
  Density threshold  = 1.00e-10
  Integral threshold = 0.00e+00

  ==> Primary Basis <==

  Basis Set: AUG-CC-PVTZ
    Blend: AUG-CC-PVTZ
    Number of shells: 189
    Number of basis function: 575
    Number of Cartesian functions: 670
    Spherical Harmonics?: true
    Max angular momentum: 3

   => Loading Basis Set <=

    Name: (AUG-CC-PVTZ AUX)
    Role: JKFIT
    Keyword: DF_BASIS_SCF
    atoms 1     entry O          line   286 file /home/xy3866/psi4conda/share/psi4/basis/aug-cc-pvtz-jkfit.gbs 
    atoms 2-4   entry N          line   224 file /home/xy3866/psi4conda/share/psi4/basis/aug-cc-pvtz-jkfit.gbs 
    atoms 5-9   entry C          line   162 file /home/xy3866/psi4conda/share/psi4/basis/aug-cc-pvtz-jkfit.gbs 
    atoms 10-16 entry H          line    70 file /home/xy3866/psi4conda/share/psi4/basis/aug-cc-pvtz-jkfit.gbs 

  ==> Pre-Iterations <==

   -------------------------------------------------------
    Irrep   Nso     Nmo     Nalpha   Nbeta   Ndocc  Nsocc
   -------------------------------------------------------
     A        575     575       0       0       0       0
   -------------------------------------------------------
    Total     575     575      33      33      33       0
   -------------------------------------------------------

  ==> Integral Setup <==

  DFHelper Memory: AOs need 3.048 GiB; user supplied 22.352 GiB. Using in-core AOs.

  ==> MemDFJK: Density-Fitted J/K Matrices <==

    J tasked:                   Yes
    K tasked:                   Yes
    wK tasked:                   No
    OpenMP threads:               8
    Memory [MiB]:             22888
    Algorithm:                 Disk
    Schwarz Cutoff:           1E-12
    Mask sparsity (%):       4.7897
    Fitting Condition:        1E-10

   => Auxiliary Basis Set <=

  Basis Set: (AUG-CC-PVTZ AUX)
    Blend: AUG-CC-PVTZ-JKFIT
    Number of shells: 368
    Number of basis function: 1258
    Number of Cartesian functions: 1564
    Spherical Harmonics?: true
    Max angular momentum: 4

  Minimum eigenvalue in the overlap matrix is 2.2368958422E-06.
  Using Symmetric Orthogonalization.

  SCF Guess: Superposition of Atomic Densities via on-the-fly atomic UHF.

  ==> Iterations <==

                           Total Energy        Delta E     RMS |[F,P]|

   @DF-RHF iter SAD:  -431.11326691521930   -4.31113e+02   0.00000e+00 
   @DF-RHF iter   1:  -431.52444390445896   -4.11177e-01   1.29186e-03 DIIS
   @DF-RHF iter   2:  -431.73272915196941   -2.08285e-01   7.26418e-04 DIIS
   @DF-RHF iter   3:  -431.79288243364573   -6.01533e-02   1.54252e-04 DIIS
   @DF-RHF iter   4:  -431.79729220194383   -4.40977e-03   6.40451e-05 DIIS
   @DF-RHF iter   5:  -431.79814321055966   -8.51009e-04   1.40467e-05 DIIS
   @DF-RHF iter   6:  -431.79823395083872   -9.07403e-05   7.67450e-06 DIIS
   @DF-RHF iter   7:  -431.79826001970309   -2.60689e-05   2.67473e-06 DIIS
   @DF-RHF iter   8:  -431.79826443244724   -4.41274e-06   1.11655e-06 DIIS
   @DF-RHF iter   9:  -431.79826498159792   -5.49151e-07   4.06081e-07 DIIS
   @DF-RHF iter  10:  -431.79826507544936   -9.38514e-08   1.45380e-07 DIIS
   @DF-RHF iter  11:  -431.79826508698386   -1.15345e-08   5.37481e-08 DIIS
   @DF-RHF iter  12:  -431.79826508839369   -1.40983e-09   1.68462e-08 DIIS
   @DF-RHF iter  13:  -431.79826508857070   -1.77010e-10   6.75728e-09 DIIS
   @DF-RHF iter  14:  -431.79826508859639   -2.56932e-11   3.10856e-09 DIIS
   @DF-RHF iter  15:  -431.79826508860674   -1.03455e-11   1.34145e-09 DIIS
   @DF-RHF iter  16:  -431.79826508860788   -1.13687e-12   4.47233e-10 DIIS
   @DF-RHF iter  17:  -431.79826508860532    2.55795e-12   2.19628e-10 DIIS
   @DF-RHF iter  18:  -431.79826508860572   -3.97904e-13   5.70751e-11 DIIS
  Energy and wave function converged.


  ==> Post-Iterations <==

    Orbital Energies [Eh]
    ---------------------

    Doubly Occupied:                                                      

       1A    -20.499489     2A    -15.624736     3A    -15.594660  
       4A    -15.546786     5A    -11.369380     6A    -11.353874  
       7A    -11.330439     8A    -11.267800     9A    -11.249912  
      10A     -1.380305    11A     -1.291843    12A     -1.266349  
      13A     -1.168971    14A     -1.075291    15A     -0.964728  
      16A     -0.898788    17A     -0.850287    18A     -0.758695  
      19A     -0.722653    20A     -0.688080    21A     -0.674999  
      22A     -0.655250    23A     -0.621647    24A     -0.604590  
      25A     -0.591837    26A     -0.578110    27A     -0.554929  
      28A     -0.521207    29A     -0.472487    30A     -0.440282  
      31A     -0.420905    32A     -0.386489    33A     -0.340322  

    Virtual:                                                              

      34A      0.016755    35A      0.025506    36A      0.036333  
      37A      0.041397    38A      0.048254    39A      0.057075  
      40A      0.071172    41A      0.076812    42A      0.078370  
      43A      0.085122    44A      0.097049    45A      0.100477  
      46A      0.101834    47A      0.104470    48A      0.115369  
      49A      0.116315    50A      0.128068    51A      0.132174  
      52A      0.133787    53A      0.136198    54A      0.141527  
      55A      0.148128    56A      0.151995    57A      0.163531  
      58A      0.168212    59A      0.169739    60A      0.178389  
      61A      0.182654    62A      0.198150    63A      0.203077  
      64A      0.210590    65A      0.221527    66A      0.224671  
      67A      0.229670    68A      0.234668    69A      0.236813  
      70A      0.248073    71A      0.251061    72A      0.260639  
      73A      0.263859    74A      0.271521    75A      0.273832  
      76A      0.283579    77A      0.287078    78A      0.293959  
      79A      0.300604    80A      0.303454    81A      0.306511  
      82A      0.312806    83A      0.320973    84A      0.334629  
      85A      0.336603    86A      0.340252    87A      0.349633  
      88A      0.352534    89A      0.360794    90A      0.364051  
      91A      0.368762    92A      0.373160    93A      0.388332  
      94A      0.391598    95A      0.397466    96A      0.402462  
      97A      0.405645    98A      0.414170    99A      0.420591  
     100A      0.426365   101A      0.429444   102A      0.432057  
     103A      0.433910   104A      0.442538   105A      0.444269  
     106A      0.449415   107A      0.461456   108A      0.465158  
     109A      0.468554   110A      0.470125   111A      0.476400  
     112A      0.486831   113A      0.496116   114A      0.496585  
     115A      0.499701   116A      0.503563   117A      0.514421  
     118A      0.516783   119A      0.525026   120A      0.532138  
     121A      0.537493   122A      0.539635   123A      0.547948  
     124A      0.558540   125A      0.563779   126A      0.571235  
     127A      0.579486   128A      0.587238   129A      0.599204  
     130A      0.602654   131A      0.608293   132A      0.620159  
     133A      0.626180   134A      0.637451   135A      0.648224  
     136A      0.650226   137A      0.663294   138A      0.666187  
     139A      0.683301   140A      0.696775   141A      0.703110  
     142A      0.706571   143A      0.713503   144A      0.723070  
     145A      0.728811   146A      0.736769   147A      0.743165  
     148A      0.753220   149A      0.755320   150A      0.764045  
     151A      0.774258   152A      0.786777   153A      0.787903  
     154A      0.791801   155A      0.799461   156A      0.815116  
     157A      0.824172   158A      0.835482   159A      0.840450  
     160A      0.850121   161A      0.854978   162A      0.871530  
     163A      0.879011   164A      0.884896   165A      0.893671  
     166A      0.896662   167A      0.898790   168A      0.903440  
     169A      0.910197   170A      0.911908   171A      0.923167  
     172A      0.930681   173A      0.938052   174A      0.942575  
     175A      0.946240   176A      0.956905   177A      0.967016  
     178A      0.971667   179A      0.982279   180A      0.988014  
     181A      0.996205   182A      1.003440   183A      1.009631  
     184A      1.014506   185A      1.028931   186A      1.033727  
     187A      1.034852   188A      1.044843   189A      1.047413  
     190A      1.053724   191A      1.059603   192A      1.074241  
     193A      1.080576   194A      1.091277   195A      1.092555  
     196A      1.097663   197A      1.103981   198A      1.119111  
     199A      1.126728   200A      1.132650   201A      1.136429  
     202A      1.146842   203A      1.151835   204A      1.163223  
     205A      1.167376   206A      1.174954   207A      1.177737  
     208A      1.181294   209A      1.191298   210A      1.194783  
     211A      1.204588   212A      1.214070   213A      1.227875  
     214A      1.228517   215A      1.237540   216A      1.240822  
     217A      1.254312   218A      1.266242   219A      1.281917  
     220A      1.288594   221A      1.304421   222A      1.311127  
     223A      1.313754   224A      1.317126   225A      1.324997  
     226A      1.334631   227A      1.351516   228A      1.364433  
     229A      1.375813   230A      1.390155   231A      1.401768  
     232A      1.409468   233A      1.416903   234A      1.419115  
     235A      1.438333   236A      1.444839   237A      1.446783  
     238A      1.460457   239A      1.467063   240A      1.474596  
     241A      1.481779   242A      1.494080   243A      1.504352  
     244A      1.512523   245A      1.517059   246A      1.533682  
     247A      1.542018   248A      1.551787   249A      1.556646  
     250A      1.577639   251A      1.584549   252A      1.588947  
     253A      1.595620   254A      1.606625   255A      1.630801  
     256A      1.634238   257A      1.641855   258A      1.650020  
     259A      1.658052   260A      1.670473   261A      1.689581  
     262A      1.694292   263A      1.700806   264A      1.714571  
     265A      1.720672   266A      1.743970   267A      1.748952  
     268A      1.757896   269A      1.766634   270A      1.774120  
     271A      1.787904   272A      1.802102   273A      1.813883  
     274A      1.821252   275A      1.837493   276A      1.854647  
     277A      1.861168   278A      1.871624   279A      1.883275  
     280A      1.890725   281A      1.894432   282A      1.918648  
     283A      1.931049   284A      1.942607   285A      1.944931  
     286A      1.963146   287A      1.969286   288A      1.992698  
     289A      2.004850   290A      2.020486   291A      2.039378  
     292A      2.046262   293A      2.049080   294A      2.072806  
     295A      2.078380   296A      2.093728   297A      2.099397  
     298A      2.105810   299A      2.125773   300A      2.148770  
     301A      2.175938   302A      2.185476   303A      2.187423  
     304A      2.197600   305A      2.210100   306A      2.211058  
     307A      2.228624   308A      2.229483   309A      2.239584  
     310A      2.244948   311A      2.264176   312A      2.280697  
     313A      2.302462   314A      2.315233   315A      2.343213  
     316A      2.351262   317A      2.364843   318A      2.370872  
     319A      2.386903   320A      2.392469   321A      2.396345  
     322A      2.434171   323A      2.437683   324A      2.453751  
     325A      2.469956   326A      2.483734   327A      2.503617  
     328A      2.516608   329A      2.524391   330A      2.530500  
     331A      2.555853   332A      2.561964   333A      2.583606  
     334A      2.599674   335A      2.611601   336A      2.619302  
     337A      2.626793   338A      2.647012   339A      2.678752  
     340A      2.696251   341A      2.706226   342A      2.728830  
     343A      2.740402   344A      2.758403   345A      2.770698  
     346A      2.774033   347A      2.799459   348A      2.830143  
     349A      2.850467   350A      2.872584   351A      2.897298  
     352A      2.927261   353A      2.962725   354A      2.985853  
     355A      2.999435   356A      3.022916   357A      3.047405  
     358A      3.060072   359A      3.067303   360A      3.084720  
     361A      3.160248   362A      3.183917   363A      3.209327  
     364A      3.219502   365A      3.224464   366A      3.263754  
     367A      3.305704   368A      3.309947   369A      3.324990  
     370A      3.356834   371A      3.397849   372A      3.399640  
     373A      3.437041   374A      3.458429   375A      3.466624  
     376A      3.486174   377A      3.501108   378A      3.504457  
     379A      3.524945   380A      3.541230   381A      3.563500  
     382A      3.585652   383A      3.602356   384A      3.607331  
     385A      3.619169   386A      3.661929   387A      3.662535  
     388A      3.669379   389A      3.683474   390A      3.699983  
     391A      3.706149   392A      3.720602   393A      3.742534  
     394A      3.744046   395A      3.770416   396A      3.789904  
     397A      3.801976   398A      3.809663   399A      3.821183  
     400A      3.826724   401A      3.845734   402A      3.864002  
     403A      3.881046   404A      3.906868   405A      3.914574  
     406A      3.923214   407A      3.927242   408A      3.948218  
     409A      3.963163   410A      3.974591   411A      3.994626  
     412A      4.008687   413A      4.021771   414A      4.035344  
     415A      4.044563   416A      4.077716   417A      4.081254  
     418A      4.096442   419A      4.101920   420A      4.108390  
     421A      4.136075   422A      4.139551   423A      4.151584  
     424A      4.159004   425A      4.178163   426A      4.200577  
     427A      4.206369   428A      4.237143   429A      4.242914  
     430A      4.251009   431A      4.267520   432A      4.279358  
     433A      4.303398   434A      4.312610   435A      4.330264  
     436A      4.342018   437A      4.356819   438A      4.372316  
     439A      4.400681   440A      4.409340   441A      4.411663  
     442A      4.430461   443A      4.454548   444A      4.458874  
     445A      4.468659   446A      4.504234   447A      4.521451  
     448A      4.553164   449A      4.559988   450A      4.578142  
     451A      4.602177   452A      4.625891   453A      4.640728  
     454A      4.652751   455A      4.671557   456A      4.681417  
     457A      4.709276   458A      4.714776   459A      4.748629  
     460A      4.757932   461A      4.777745   462A      4.794259  
     463A      4.810471   464A      4.838168   465A      4.855039  
     466A      4.878221   467A      4.886305   468A      4.890627  
     469A      4.937818   470A      4.949459   471A      4.965912  
     472A      4.989941   473A      5.013515   474A      5.031210  
     475A      5.047223   476A      5.060438   477A      5.077656  
     478A      5.094143   479A      5.103284   480A      5.109311  
     481A      5.160572   482A      5.182160   483A      5.192907  
     484A      5.220642   485A      5.226698   486A      5.230591  
     487A      5.241155   488A      5.257299   489A      5.301102  
     490A      5.313898   491A      5.322959   492A      5.361922  
     493A      5.372621   494A      5.392385   495A      5.410518  
     496A      5.450723   497A      5.457963   498A      5.489089  
     499A      5.525143   500A      5.544597   501A      5.595780  
     502A      5.599712   503A      5.636419   504A      5.661263  
     505A      5.670838   506A      5.695303   507A      5.698632  
     508A      5.703278   509A      5.756306   510A      5.769917  
     511A      5.805071   512A      5.808715   513A      5.831279  
     514A      5.843794   515A      5.870938   516A      5.896391  
     517A      5.922905   518A      5.940056   519A      5.950530  
     520A      5.984433   521A      5.993091   522A      6.023302  
     523A      6.062976   524A      6.110708   525A      6.129422  
     526A      6.137261   527A      6.166959   528A      6.184343  
     529A      6.207332   530A      6.235905   531A      6.272648  
     532A      6.302427   533A      6.359038   534A      6.386177  
     535A      6.431357   536A      6.529904   537A      6.623798  
     538A      6.649521   539A      6.672203   540A      6.710702  
     541A      6.735210   542A      6.775154   543A      6.781161  
     544A      6.792894   545A      6.838534   546A      6.880225  
     547A      6.896598   548A      6.945734   549A      6.978082  
     550A      7.005277   551A      7.035099   552A      7.056030  
     553A      7.094761   554A      7.149708   555A      7.216372  
     556A      7.252719   557A      7.336060   558A      7.401375  
     559A      7.426405   560A      7.466747   561A      7.713250  
     562A      7.738361   563A      7.833513   564A      7.863338  
     565A      7.984278   566A      8.087705   567A     15.591131  
     568A     15.758147   569A     16.223223   570A     17.686326  
     571A     17.901250   572A     18.583199   573A     19.516959  
     574A     20.212673   575A     20.780947  

    Final Occupation by Irrep:
              A 
    DOCC [    33 ]

  @DF-RHF Final Energy:  -431.79826508860572

   => Energetics <=

    Nuclear Repulsion Energy =            440.2242839273054642
    One-Electron Energy =               -1460.5128613322256115
    Two-Electron Energy =                 588.4903123163144301
    Total Energy =                       -431.7982650886057172

Computation Completed

*** tstop() called on node142.bme.utexas.edu at Tue Nov  3 00:34:45 2020
Module time:
	user time   =     521.79 seconds =       8.70 minutes
	system time =      55.59 seconds =       0.93 minutes
	total time  =        139 seconds =       2.32 minutes
Total time:
	user time   =     521.79 seconds =       8.70 minutes
	system time =      55.59 seconds =       0.93 minutes
	total time  =        139 seconds =       2.32 minutes
   => Loading Basis Set <=

    Name: (AUG-CC-PVTZ AUX)
    Role: RIFIT
    Keyword: DF_BASIS_MP2
    atoms 1     entry O          line   264 file /home/xy3866/psi4conda/share/psi4/basis/aug-cc-pvtz-ri.gbs 
    atoms 2-4   entry N          line   206 file /home/xy3866/psi4conda/share/psi4/basis/aug-cc-pvtz-ri.gbs 
    atoms 5-9   entry C          line   148 file /home/xy3866/psi4conda/share/psi4/basis/aug-cc-pvtz-ri.gbs 
    atoms 10-16 entry H          line    30 file /home/xy3866/psi4conda/share/psi4/basis/aug-cc-pvtz-ri.gbs 


*** tstart() called on node142.bme.utexas.edu
*** at Tue Nov  3 00:34:46 2020


  //>>>>>>>>>>>>>>>>>>>>>>>>>>>>>>>>>>>//
  //               DFMP2               //
  //<<<<<<<<<<<<<<<<<<<<<<<<<<<<<<<<<<<//

	 --------------------------------------------------------
	                          DF-MP2                         
	      2nd-Order Density-Fitted Moller-Plesset Theory     
	              RMP2 Wavefunction,   8 Threads             
	                                                         
	        Rob Parrish, Justin Turney, Andy Simmonett,      
	           Ed Hohenstein, and C. David Sherrill          
	 --------------------------------------------------------

   => Auxiliary Basis Set <=

  Basis Set: (AUG-CC-PVTZ AUX)
    Blend: AUG-CC-PVTZ-RI
    Number of shells: 350
    Number of basis function: 1276
    Number of Cartesian functions: 1609
    Spherical Harmonics?: true
    Max angular momentum: 4

	 --------------------------------------------------------
	                 NBF =   575, NAUX =  1276
	 --------------------------------------------------------
	   CLASS    FOCC     OCC    AOCC    AVIR     VIR    FVIR
	   PAIRS       0      33      33     542     542       0
	 --------------------------------------------------------

  DFHelper Memory: AOs need 3.048 GiB; user supplied 22.352 GiB. Using in-core AOs.


         ------------------------------------------------------------
                                     CPHF                           
                                  Rob Parrish                       
         ------------------------------------------------------------

  ==> Geometry <==

    Molecular point group: c1
    Full point group: C1

    Geometry (in Angstrom), charge = 0, multiplicity = 1:

       Center              X                  Y                   Z               Mass       
    ------------   -----------------  -----------------  -----------------  -----------------
         O           -1.430216335124     1.802514035603    -0.005171447953    15.994914619570
         N           -1.146790935124    -0.468253864397     0.010000752047    14.003074004430
         N            0.734035764876     1.044684635603     0.013079752047    14.003074004430
         N            2.886061664876     0.210966035603    -0.072690447953    14.003074004430
         C           -0.279247335124    -1.546648964397     0.002514552047    12.000000000000
         C            1.070651664876    -1.380689964397    -0.000749447953    12.000000000000
         C           -0.639772335124     0.860343035603     0.018816552047    12.000000000000
         C           -2.567620335124    -0.701309964397     0.003810552047    12.000000000000
         C            1.531769664876    -0.025877964397     0.003088552047    12.000000000000
         H           -0.758118335124    -2.522602964397    -0.006662447953     1.007825032230
         H            1.749473664876    -2.225649964397    -0.028097447953     1.007825032230
         H           -2.869382335124    -1.261128964397     0.892502552047     1.007825032230
         H           -2.864276335124    -1.247872964397    -0.894769447953     1.007825032230
         H           -3.032197335124     0.281517035603     0.010243552047     1.007825032230
         H            3.496832664876    -0.476905964397     0.350067552047     1.007825032230
         H            3.139492664876     1.174939035603     0.120879552047     1.007825032230

  Nuclear repulsion =  440.224283927305521
  Reference energy  = -431.798265088605717

  ==> Basis Set <==

  Basis Set: AUG-CC-PVTZ
    Blend: AUG-CC-PVTZ
    Number of shells: 189
    Number of basis function: 575
    Number of Cartesian functions: 670
    Spherical Harmonics?: true
    Max angular momentum: 3

  ==> CGRSolver (by Rob Parrish) <==

   Number of roots    =         1
   Preconditioning    =    JACOBI
   Convergence cutoff =     1E-06
   Maximum iterations =       100

  ==> CPHFRHamiltonian (by Rob Parrish) <== 

  ==> MemDFJK: Density-Fitted J/K Matrices <==

    J tasked:                   Yes
    K tasked:                   Yes
    wK tasked:                   No
    OpenMP threads:               8
    Memory [MiB]:             22888
    Algorithm:                 Disk
    Schwarz Cutoff:           1E-12
    Mask sparsity (%):       4.7897
    Fitting Condition:        1E-10

   => Auxiliary Basis Set <=

  Basis Set: (AUG-CC-PVTZ AUX)
    Blend: AUG-CC-PVTZ-JKFIT
    Number of shells: 368
    Number of basis function: 1258
    Number of Cartesian functions: 1564
    Spherical Harmonics?: true
    Max angular momentum: 4

  ==> CPHF Iterations <==

  => Iterations <=

             Iter  Converged  Remaining    Residual
  CGR           1          0          1   1.488E-01
  CGR           2          0          1   5.026E-02
  CGR           3          0          1   2.362E-02
  CGR           4          0          1   7.053E-03
  CGR           5          0          1   3.209E-03
  CGR           6          0          1   1.279E-03
  CGR           7          0          1   4.283E-04
  CGR           8          0          1   1.694E-04
  CGR           9          0          1   5.875E-05
  CGR          10          0          1   2.387E-05
  CGR          11          0          1   8.823E-06
  CGR          12          0          1   3.026E-06
  CGR          13          1          0   9.503E-07

    CGRSolver converged.

	-----------------------------------------------------------
	 ==================> DF-MP2 Energies <==================== 
	-----------------------------------------------------------
	 Reference Energy          =    -431.7982650886057172 [Eh]
	 Singles Energy            =      -0.0000000000000000 [Eh]
	 Same-Spin Energy          =      -0.4504712934238554 [Eh]
	 Opposite-Spin Energy      =      -1.3727275000815387 [Eh]
	 Correlation Energy        =      -1.8231987935053939 [Eh]
	 Total Energy              =    -433.6214638821111294 [Eh]
	-----------------------------------------------------------
	 ================> DF-SCS-MP2 Energies <================== 
	-----------------------------------------------------------
	 SCS Same-Spin Scale       =       0.3333333333333333 [-]
	 SCS Opposite-Spin Scale   =       1.2000000000000000 [-]
	 SCS Same-Spin Energy      =      -0.1501570978079518 [Eh]
	 SCS Opposite-Spin Energy  =      -1.6472730000978464 [Eh]
	 SCS Correlation Energy    =      -1.7974300979057982 [Eh]
	 SCS Total Energy          =    -433.5956951865115343 [Eh]
	-----------------------------------------------------------



Properties will be evaluated at  -0.000000,  -0.000000,   0.000000 [a0]

Properties computed using the MP2 density matrix

  Nuclear Dipole Moment: [e a0]
     X:    -1.0811      Y:    -5.8788      Z:     0.4165

  Electronic Dipole Moment: [e a0]
     X:     1.8281      Y:     3.6270      Z:    -0.0904

  Dipole Moment: [e a0]
     X:     0.7471      Y:    -2.2518      Z:     0.3261     Total:     2.3948

  Dipole Moment: [D]
     X:     1.8989      Y:    -5.7235      Z:     0.8289     Total:     6.0870


*** tstop() called on node142.bme.utexas.edu at Tue Nov  3 00:38:54 2020
Module time:
	user time   =    1158.81 seconds =      19.31 minutes
	system time =      46.36 seconds =       0.77 minutes
	total time  =        248 seconds =       4.13 minutes
Total time:
	user time   =    1681.34 seconds =      28.02 minutes
	system time =     102.00 seconds =       1.70 minutes
	total time  =        388 seconds =       6.47 minutes

    Psi4 stopped on: Tuesday, 03 November 2020 12:38AM
    Psi4 wall time for execution: 0:06:29.07

*** Psi4 exiting successfully. Buy a developer a beer!
