75513                                                                   
Freq      RMP2-FC                                                     6-31G(d)            
Number of atoms                            I               17
Info1-9                                    I   N=           9
          29          27        1002           0           0         100
           6           2           1
Charge                                     I                0
Multiplicity                               I                1
Number of electrons                        I               64
Number of alpha electrons                  I               32
Number of beta electrons                   I               32
Number of basis functions                  I              129
Number of independent functions            I              129
Number of point charges in /Mol/           I                0
Number of translation vectors              I                0
Atomic numbers                             I   N=          17
          16           8           6           6           6           6
           6           1           1           1           1           1
           1           1           1           1           1
Nuclear charges                            R   N=          17
  1.60000000E+01  8.00000000E+00  6.00000000E+00  6.00000000E+00  6.00000000E+00
  6.00000000E+00  6.00000000E+00  1.00000000E+00  1.00000000E+00  1.00000000E+00
  1.00000000E+00  1.00000000E+00  1.00000000E+00  1.00000000E+00  1.00000000E+00
  1.00000000E+00  1.00000000E+00
Current cartesian coordinates              R   N=          51
 -1.38646023E+00 -1.50956809E+00 -2.06397738E-06  1.48207585E+00  2.58926787E+00
 -1.30703432E-06  3.85357812E+00 -1.32154352E+00 -5.55167569E-07 -3.62396792E+00
  1.09727862E+00 -3.88046360E-06  1.47572108E+00  2.76493845E-01 -1.17204925E-06
  6.23623709E+00  2.91649229E-01  3.71849806E-06 -6.31286910E+00  6.88456049E-02
  5.77498314E-06  3.78965514E+00 -2.56609242E+00  1.65576968E+00  3.78965884E+00
 -2.56608912E+00 -1.65577334E+00 -3.26342188E+00  2.26102227E+00  1.66507966E+00
 -3.26343133E+00  2.26101327E+00 -1.66509576E+00  6.29775921E+00  1.50690893E+00
  1.66563667E+00  6.29774366E+00  1.50693953E+00 -1.66560731E+00  7.91419064E+00
 -9.12692193E-01 -1.44859525E-05 -6.67663901E+00 -1.08457072E+00 -1.67388786E+00
 -6.67662935E+00 -1.08456180E+00  1.67390754E+00 -7.65432462E+00  1.64072612E+00
  5.37156537E-06
Force Field                                I                0
Int Atom Types                             I   N=          17
           0           0           0           0           0           0
           0           0           0           0           0           0
           0           0           0           0           0
MM charges                                 R   N=          17
  0.00000000E+00  0.00000000E+00  0.00000000E+00  0.00000000E+00  0.00000000E+00
  0.00000000E+00  0.00000000E+00  0.00000000E+00  0.00000000E+00  0.00000000E+00
  0.00000000E+00  0.00000000E+00  0.00000000E+00  0.00000000E+00  0.00000000E+00
  0.00000000E+00  0.00000000E+00
Integer atomic weights                     I   N=          17
          32          16          12          12          12          12
          12           1           1           1           1           1
           1           1           1           1           1
Real atomic weights                        R   N=          17
  3.19720718E+01  1.59949146E+01  1.20000000E+01  1.20000000E+01  1.20000000E+01
  1.20000000E+01  1.20000000E+01  1.00782504E+00  1.00782504E+00  1.00782504E+00
  1.00782504E+00  1.00782504E+00  1.00782504E+00  1.00782504E+00  1.00782504E+00
  1.00782504E+00  1.00782504E+00
Atom fragment info                         I   N=          17
           0           0           0           0           0           0
           0           0           0           0           0           0
           0           0           0           0           0
Atom residue num                           I   N=          17
           0           0           0           0           0           0
           0           0           0           0           0           0
           0           0           0           0           0
Nuclear spins                              I   N=          17
           0           0           0           0           0           0
           0           1           1           1           1           1
           1           1           1           1           1
Nuclear ZEff                               R   N=          17
 -1.36000000E+01 -5.60000000E+00 -3.60000000E+00 -3.60000000E+00 -3.60000000E+00
 -3.60000000E+00 -3.60000000E+00 -1.00000000E+00 -1.00000000E+00 -1.00000000E+00
 -1.00000000E+00 -1.00000000E+00 -1.00000000E+00 -1.00000000E+00 -1.00000000E+00
 -1.00000000E+00 -1.00000000E+00
Nuclear QMom                               R   N=          17
  0.00000000E+00  0.00000000E+00  0.00000000E+00  0.00000000E+00  0.00000000E+00
  0.00000000E+00  0.00000000E+00  0.00000000E+00  0.00000000E+00  0.00000000E+00
  0.00000000E+00  0.00000000E+00  0.00000000E+00  0.00000000E+00  0.00000000E+00
  0.00000000E+00  0.00000000E+00
Nuclear GFac                               R   N=          17
  0.00000000E+00  0.00000000E+00  0.00000000E+00  0.00000000E+00  0.00000000E+00
  0.00000000E+00  0.00000000E+00  2.79284600E+00  2.79284600E+00  2.79284600E+00
  2.79284600E+00  2.79284600E+00  2.79284600E+00  2.79284600E+00  2.79284600E+00
  2.79284600E+00  2.79284600E+00
MicOpt                                     I   N=          17
          -1          -1          -1          -1          -1          -1
          -1          -1          -1          -1          -1          -1
          -1          -1          -1          -1          -1
Number of contracted shells                I               49
Number of primitive shells                 I              123
Pure/Cartesian d shells                    I                1
Pure/Cartesian f shells                    I                0
Highest angular momentum                   I                2
Largest degree of contraction              I                6
Shell types                                I   N=          49
           0          -1          -1          -1           2           0
          -1          -1           2           0          -1          -1
           2           0          -1          -1           2           0
          -1          -1           2           0          -1          -1
           2           0          -1          -1           2           0
           0           0           0           0           0           0
           0           0           0           0           0           0
           0           0           0           0           0           0
           0
Number of primitives per shell             I   N=          49
           6           6           3           1           1           6
           3           1           1           6           3           1
           1           6           3           1           1           6
           3           1           1           6           3           1
           1           6           3           1           1           3
           1           3           1           3           1           3
           1           3           1           3           1           3
           1           3           1           3           1           3
           1
Shell to atom map                          I   N=          49
           1           1           1           1           1           2
           2           2           2           3           3           3
           3           4           4           4           4           5
           5           5           5           6           6           6
           6           7           7           7           7           8
           8           9           9          10          10          11
          11          12          12          13          13          14
          14          15          15          16          16          17
          17
Primitive exponents                        R   N=         123
  2.19171000E+04  3.30149000E+03  7.54146000E+02  2.12711000E+02  6.79896000E+01
  2.30515000E+01  4.23735000E+02  1.00710000E+02  3.21599000E+01  1.18079000E+01
  4.63110000E+00  1.87025000E+00  2.61584000E+00  9.22167000E-01  3.41287000E-01
  1.17167000E-01  6.50000000E-01  5.48467166E+03  8.25234946E+02  1.88046958E+02
  5.29645000E+01  1.68975704E+01  5.79963534E+00  1.55396162E+01  3.59993359E+00
  1.01376175E+00  2.70005823E-01  8.00000000E-01  3.04752488E+03  4.57369518E+02
  1.03948685E+02  2.92101553E+01  9.28666296E+00  3.16392696E+00  7.86827235E+00
  1.88128854E+00  5.44249258E-01  1.68714478E-01  8.00000000E-01  3.04752488E+03
  4.57369518E+02  1.03948685E+02  2.92101553E+01  9.28666296E+00  3.16392696E+00
  7.86827235E+00  1.88128854E+00  5.44249258E-01  1.68714478E-01  8.00000000E-01
  3.04752488E+03  4.57369518E+02  1.03948685E+02  2.92101553E+01  9.28666296E+00
  3.16392696E+00  7.86827235E+00  1.88128854E+00  5.44249258E-01  1.68714478E-01
  8.00000000E-01  3.04752488E+03  4.57369518E+02  1.03948685E+02  2.92101553E+01
  9.28666296E+00  3.16392696E+00  7.86827235E+00  1.88128854E+00  5.44249258E-01
  1.68714478E-01  8.00000000E-01  3.04752488E+03  4.57369518E+02  1.03948685E+02
  2.92101553E+01  9.28666296E+00  3.16392696E+00  7.86827235E+00  1.88128854E+00
  5.44249258E-01  1.68714478E-01  8.00000000E-01  1.87311370E+01  2.82539436E+00
  6.40121692E-01  1.61277759E-01  1.87311370E+01  2.82539436E+00  6.40121692E-01
  1.61277759E-01  1.87311370E+01  2.82539436E+00  6.40121692E-01  1.61277759E-01
  1.87311370E+01  2.82539436E+00  6.40121692E-01  1.61277759E-01  1.87311370E+01
  2.82539436E+00  6.40121692E-01  1.61277759E-01  1.87311370E+01  2.82539436E+00
  6.40121692E-01  1.61277759E-01  1.87311370E+01  2.82539436E+00  6.40121692E-01
  1.61277759E-01  1.87311370E+01  2.82539436E+00  6.40121692E-01  1.61277759E-01
  1.87311370E+01  2.82539436E+00  6.40121692E-01  1.61277759E-01  1.87311370E+01
  2.82539436E+00  6.40121692E-01  1.61277759E-01
Contraction coefficients                   R   N=         123
  1.86924085E-03  1.42303065E-02  6.96962317E-02  2.38487108E-01  4.83307220E-01
  3.38074154E-01 -2.37677050E-03 -3.16930067E-02 -1.13317024E-01  5.60900118E-02
  5.92255124E-01  4.55006095E-01 -2.50373114E-01  6.69567631E-02  1.05450627E+00
  1.00000000E+00  1.00000000E+00  1.83107443E-03  1.39501722E-02  6.84450781E-02
  2.32714336E-01  4.70192898E-01  3.58520853E-01 -1.10777550E-01 -1.48026263E-01
  1.13076702E+00  1.00000000E+00  1.00000000E+00  1.83473713E-03  1.40373228E-02
  6.88426223E-02  2.32184443E-01  4.67941348E-01  3.62311985E-01 -1.19332420E-01
 -1.60854152E-01  1.14345644E+00  1.00000000E+00  1.00000000E+00  1.83473713E-03
  1.40373228E-02  6.88426223E-02  2.32184443E-01  4.67941348E-01  3.62311985E-01
 -1.19332420E-01 -1.60854152E-01  1.14345644E+00  1.00000000E+00  1.00000000E+00
  1.83473713E-03  1.40373228E-02  6.88426223E-02  2.32184443E-01  4.67941348E-01
  3.62311985E-01 -1.19332420E-01 -1.60854152E-01  1.14345644E+00  1.00000000E+00
  1.00000000E+00  1.83473713E-03  1.40373228E-02  6.88426223E-02  2.32184443E-01
  4.67941348E-01  3.62311985E-01 -1.19332420E-01 -1.60854152E-01  1.14345644E+00
  1.00000000E+00  1.00000000E+00  1.83473713E-03  1.40373228E-02  6.88426223E-02
  2.32184443E-01  4.67941348E-01  3.62311985E-01 -1.19332420E-01 -1.60854152E-01
  1.14345644E+00  1.00000000E+00  1.00000000E+00  3.34946043E-02  2.34726953E-01
  8.13757326E-01  1.00000000E+00  3.34946043E-02  2.34726953E-01  8.13757326E-01
  1.00000000E+00  3.34946043E-02  2.34726953E-01  8.13757326E-01  1.00000000E+00
  3.34946043E-02  2.34726953E-01  8.13757326E-01  1.00000000E+00  3.34946043E-02
  2.34726953E-01  8.13757326E-01  1.00000000E+00  3.34946043E-02  2.34726953E-01
  8.13757326E-01  1.00000000E+00  3.34946043E-02  2.34726953E-01  8.13757326E-01
  1.00000000E+00  3.34946043E-02  2.34726953E-01  8.13757326E-01  1.00000000E+00
  3.34946043E-02  2.34726953E-01  8.13757326E-01  1.00000000E+00  3.34946043E-02
  2.34726953E-01  8.13757326E-01  1.00000000E+00
P(S=P) Contraction coefficients            R   N=         123
  0.00000000E+00  0.00000000E+00  0.00000000E+00  0.00000000E+00  0.00000000E+00
  0.00000000E+00  4.06100998E-03  3.06812999E-02  1.30451999E-01  3.27204999E-01
  4.52850998E-01  2.56041999E-01 -1.45104895E-02  3.10262776E-01  7.54482456E-01
  1.00000000E+00  0.00000000E+00  0.00000000E+00  0.00000000E+00  0.00000000E+00
  0.00000000E+00  0.00000000E+00  0.00000000E+00  7.08742682E-02  3.39752839E-01
  7.27158577E-01  1.00000000E+00  0.00000000E+00  0.00000000E+00  0.00000000E+00
  0.00000000E+00  0.00000000E+00  0.00000000E+00  0.00000000E+00  6.89990666E-02
  3.16423961E-01  7.44308291E-01  1.00000000E+00  0.00000000E+00  0.00000000E+00
  0.00000000E+00  0.00000000E+00  0.00000000E+00  0.00000000E+00  0.00000000E+00
  6.89990666E-02  3.16423961E-01  7.44308291E-01  1.00000000E+00  0.00000000E+00
  0.00000000E+00  0.00000000E+00  0.00000000E+00  0.00000000E+00  0.00000000E+00
  0.00000000E+00  6.89990666E-02  3.16423961E-01  7.44308291E-01  1.00000000E+00
  0.00000000E+00  0.00000000E+00  0.00000000E+00  0.00000000E+00  0.00000000E+00
  0.00000000E+00  0.00000000E+00  6.89990666E-02  3.16423961E-01  7.44308291E-01
  1.00000000E+00  0.00000000E+00  0.00000000E+00  0.00000000E+00  0.00000000E+00
  0.00000000E+00  0.00000000E+00  0.00000000E+00  6.89990666E-02  3.16423961E-01
  7.44308291E-01  1.00000000E+00  0.00000000E+00  0.00000000E+00  0.00000000E+00
  0.00000000E+00  0.00000000E+00  0.00000000E+00  0.00000000E+00  0.00000000E+00
  0.00000000E+00  0.00000000E+00  0.00000000E+00  0.00000000E+00  0.00000000E+00
  0.00000000E+00  0.00000000E+00  0.00000000E+00  0.00000000E+00  0.00000000E+00
  0.00000000E+00  0.00000000E+00  0.00000000E+00  0.00000000E+00  0.00000000E+00
  0.00000000E+00  0.00000000E+00  0.00000000E+00  0.00000000E+00  0.00000000E+00
  0.00000000E+00  0.00000000E+00  0.00000000E+00  0.00000000E+00  0.00000000E+00
  0.00000000E+00  0.00000000E+00  0.00000000E+00  0.00000000E+00  0.00000000E+00
  0.00000000E+00  0.00000000E+00  0.00000000E+00
Coordinates of each shell                  R   N=         147
 -1.38646023E+00 -1.50956809E+00 -2.06397738E-06 -1.38646023E+00 -1.50956809E+00
 -2.06397738E-06 -1.38646023E+00 -1.50956809E+00 -2.06397738E-06 -1.38646023E+00
 -1.50956809E+00 -2.06397738E-06 -1.38646023E+00 -1.50956809E+00 -2.06397738E-06
  1.48207585E+00  2.58926787E+00 -1.30703432E-06  1.48207585E+00  2.58926787E+00
 -1.30703432E-06  1.48207585E+00  2.58926787E+00 -1.30703432E-06  1.48207585E+00
  2.58926787E+00 -1.30703432E-06  3.85357812E+00 -1.32154352E+00 -5.55167569E-07
  3.85357812E+00 -1.32154352E+00 -5.55167569E-07  3.85357812E+00 -1.32154352E+00
 -5.55167569E-07  3.85357812E+00 -1.32154352E+00 -5.55167569E-07 -3.62396792E+00
  1.09727862E+00 -3.88046360E-06 -3.62396792E+00  1.09727862E+00 -3.88046360E-06
 -3.62396792E+00  1.09727862E+00 -3.88046360E-06 -3.62396792E+00  1.09727862E+00
 -3.88046360E-06  1.47572108E+00  2.76493845E-01 -1.17204925E-06  1.47572108E+00
  2.76493845E-01 -1.17204925E-06  1.47572108E+00  2.76493845E-01 -1.17204925E-06
  1.47572108E+00  2.76493845E-01 -1.17204925E-06  6.23623709E+00  2.91649229E-01
  3.71849806E-06  6.23623709E+00  2.91649229E-01  3.71849806E-06  6.23623709E+00
  2.91649229E-01  3.71849806E-06  6.23623709E+00  2.91649229E-01  3.71849806E-06
 -6.31286910E+00  6.88456049E-02  5.77498314E-06 -6.31286910E+00  6.88456049E-02
  5.77498314E-06 -6.31286910E+00  6.88456049E-02  5.77498314E-06 -6.31286910E+00
  6.88456049E-02  5.77498314E-06  3.78965514E+00 -2.56609242E+00  1.65576968E+00
  3.78965514E+00 -2.56609242E+00  1.65576968E+00  3.78965884E+00 -2.56608912E+00
 -1.65577334E+00  3.78965884E+00 -2.56608912E+00 -1.65577334E+00 -3.26342188E+00
  2.26102227E+00  1.66507966E+00 -3.26342188E+00  2.26102227E+00  1.66507966E+00
 -3.26343133E+00  2.26101327E+00 -1.66509576E+00 -3.26343133E+00  2.26101327E+00
 -1.66509576E+00  6.29775921E+00  1.50690893E+00  1.66563667E+00  6.29775921E+00
  1.50690893E+00  1.66563667E+00  6.29774366E+00  1.50693953E+00 -1.66560731E+00
  6.29774366E+00  1.50693953E+00 -1.66560731E+00  7.91419064E+00 -9.12692193E-01
 -1.44859525E-05  7.91419064E+00 -9.12692193E-01 -1.44859525E-05 -6.67663901E+00
 -1.08457072E+00 -1.67388786E+00 -6.67663901E+00 -1.08457072E+00 -1.67388786E+00
 -6.67662935E+00 -1.08456180E+00  1.67390754E+00 -6.67662935E+00 -1.08456180E+00
  1.67390754E+00 -7.65432462E+00  1.64072612E+00  5.37156537E-06 -7.65432462E+00
  1.64072612E+00  5.37156537E-06
Constraint Structure                       R   N=          51
 -1.38646023E+00 -1.50956809E+00 -2.06397738E-06  1.48207585E+00  2.58926787E+00
 -1.30703432E-06  3.85357812E+00 -1.32154352E+00 -5.55167569E-07 -3.62396792E+00
  1.09727862E+00 -3.88046360E-06  1.47572108E+00  2.76493845E-01 -1.17204925E-06
  6.23623709E+00  2.91649229E-01  3.71849806E-06 -6.31286910E+00  6.88456049E-02
  5.77498314E-06  3.78965514E+00 -2.56609242E+00  1.65576968E+00  3.78965884E+00
 -2.56608912E+00 -1.65577334E+00 -3.26342188E+00  2.26102227E+00  1.66507966E+00
 -3.26343133E+00  2.26101327E+00 -1.66509576E+00  6.29775921E+00  1.50690893E+00
  1.66563667E+00  6.29774366E+00  1.50693953E+00 -1.66560731E+00  7.91419064E+00
 -9.12692193E-01 -1.44859525E-05 -6.67663901E+00 -1.08457072E+00 -1.67388786E+00
 -6.67662935E+00 -1.08456180E+00  1.67390754E+00 -7.65432462E+00  1.64072612E+00
  5.37156537E-06
Num ILSW                                   I              100
ILSW                                       I   N=         100
           0           1           0           0           2           0
           0           0           0           0           0          -1
           0           0           0           0           0           0
           0           0           0           0           1           0
           1           0           0           0           0           0
           0           0      100000           0          -1           0
           0           0           0           0           0           0
           0           0           0           1           1           0
           0           0           1           0           0           0
           0           0           4          40           0           0
           0           0           0           0           0           0
           0           0           0           0           0           0
           0           0           0           0           0           0
           0           0           0           0           0           0
           0           0           0           0           0           0
           0           0           0           0           0           0
           0           0           0           0
Num RLSW                                   I               40
RLSW                                       R   N=          40
  1.00000000E+00  1.00000000E+00  1.00000000E+00  1.00000000E+00  1.00000000E+00
  0.00000000E+00  0.00000000E+00  1.00000000E+00  0.00000000E+00  0.00000000E+00
  0.00000000E+00  0.00000000E+00  1.00000000E+00  0.00000000E+00  0.00000000E+00
  0.00000000E+00  0.00000000E+00  1.00000000E+00  0.00000000E+00  0.00000000E+00
  0.00000000E+00  0.00000000E+00  1.00000000E+00  0.00000000E+00  0.00000000E+00
  0.00000000E+00  0.00000000E+00  1.00000000E+00  0.00000000E+00  0.00000000E+00
  0.00000000E+00  0.00000000E+00  0.00000000E+00  0.00000000E+00  0.00000000E+00
  0.00000000E+00  0.00000000E+00  0.00000000E+00  1.00000000E+00  1.00000000E+00
MxBond                                     I                4
NBond                                      I   N=          17
           2           1           4           4           3           4
           4           1           1           1           1           1
           1           1           1           1           1
IBond                                      I   N=          68
           4           5           0           0           5           0
           0           0           5           6           8           9
           1           7          10          11           1           2
           3           0           3          12          13          14
           4          15          16          17           3           0
           0           0           3           0           0           0
           4           0           0           0           4           0
           0           0           6           0           0           0
           6           0           0           0           6           0
           0           0           7           0           0           0
           7           0           0           0           7           0
           0           0
RBond                                      R   N=          68
  1.00000000E+00  1.00000000E+00  0.00000000E+00  0.00000000E+00  2.00000000E+00
  0.00000000E+00  0.00000000E+00  0.00000000E+00  1.00000000E+00  1.00000000E+00
  1.00000000E+00  1.00000000E+00  1.00000000E+00  1.00000000E+00  1.00000000E+00
  1.00000000E+00  1.00000000E+00  2.00000000E+00  1.00000000E+00  0.00000000E+00
  1.00000000E+00  1.00000000E+00  1.00000000E+00  1.00000000E+00  1.00000000E+00
  1.00000000E+00  1.00000000E+00  1.00000000E+00  1.00000000E+00  0.00000000E+00
  0.00000000E+00  0.00000000E+00  1.00000000E+00  0.00000000E+00  0.00000000E+00
  0.00000000E+00  1.00000000E+00  0.00000000E+00  0.00000000E+00  0.00000000E+00
  1.00000000E+00  0.00000000E+00  0.00000000E+00  0.00000000E+00  1.00000000E+00
  0.00000000E+00  0.00000000E+00  0.00000000E+00  1.00000000E+00  0.00000000E+00
  0.00000000E+00  0.00000000E+00  1.00000000E+00  0.00000000E+00  0.00000000E+00
  0.00000000E+00  1.00000000E+00  0.00000000E+00  0.00000000E+00  0.00000000E+00
  1.00000000E+00  0.00000000E+00  0.00000000E+00  0.00000000E+00  1.00000000E+00
  0.00000000E+00  0.00000000E+00  0.00000000E+00
Virial Ratio                               R      2.001050294718169E+00
SCF Energy                                 R     -6.675443317757611E+02
MP2 Energy                                 R     -6.684991613255911E+02
Total Energy                               R     -6.684991613255911E+02
Post-SCF wavefunction norm                 R      1.630567250500643E+00
RMS Force                                  R      4.764637654106337E-08
RMS Density                                R      2.671286465964420E-09
External E-field                           R   N=          35
  0.00000000E+00  0.00000000E+00  0.00000000E+00  0.00000000E+00  0.00000000E+00
  0.00000000E+00  0.00000000E+00  0.00000000E+00  0.00000000E+00  0.00000000E+00
  0.00000000E+00  0.00000000E+00  0.00000000E+00  0.00000000E+00  0.00000000E+00
  0.00000000E+00  0.00000000E+00  0.00000000E+00  0.00000000E+00  0.00000000E+00
  0.00000000E+00  0.00000000E+00  0.00000000E+00  0.00000000E+00  0.00000000E+00
  0.00000000E+00  0.00000000E+00  0.00000000E+00  0.00000000E+00  0.00000000E+00
  0.00000000E+00  0.00000000E+00  0.00000000E+00  0.00000000E+00  0.00000000E+00
IOpCl                                      I                0
IROHF                                      I                0
Alpha Orbital Energies                     R   N=         129
 -9.19504101E+01 -2.05649454E+01 -1.13636007E+01 -1.12619915E+01 -1.12494107E+01
 -1.12310718E+01 -1.12231472E+01 -8.96272815E+00 -6.64557408E+00 -6.64391609E+00
 -6.64233167E+00 -1.39040441E+00 -1.08753719E+00 -1.06153652E+00 -9.77078652E-01
 -8.91389861E-01 -8.21889559E-01 -7.26774628E-01 -6.57660341E-01 -6.42297106E-01
 -6.31230528E-01 -6.28809635E-01 -5.61290954E-01 -5.51324109E-01 -5.39823868E-01
 -5.23607280E-01 -5.11893082E-01 -5.11677702E-01 -4.92623196E-01 -4.58951237E-01
 -4.03791325E-01 -3.64244811E-01  1.51381664E-01  1.72503976E-01  2.30054730E-01
  2.50578069E-01  2.57677453E-01  2.87962311E-01  2.95971966E-01  3.02738907E-01
  3.04313147E-01  3.17188672E-01  3.29548442E-01  3.33679428E-01  3.51436406E-01
  3.64124995E-01  4.09964752E-01  4.39499759E-01  4.63927964E-01  5.33355598E-01
  5.65614654E-01  5.74373964E-01  6.15646033E-01  7.14535906E-01  7.26433035E-01
  7.37780233E-01  7.59005671E-01  7.90578888E-01  7.96123017E-01  8.24557253E-01
  8.50148421E-01  8.71807290E-01  8.83830313E-01  9.39294279E-01  9.41468346E-01
  9.97145393E-01  1.02091956E+00  1.06366711E+00  1.11778573E+00  1.12434291E+00
  1.12629133E+00  1.13216127E+00  1.14234255E+00  1.14889854E+00  1.15132558E+00
  1.17795883E+00  1.17881639E+00  1.19309425E+00  1.21632747E+00  1.22961454E+00
  1.23824231E+00  1.24132088E+00  1.25358781E+00  1.27974365E+00  1.30608314E+00
  1.36283959E+00  1.37323270E+00  1.39197940E+00  1.60444735E+00  1.64568755E+00
  1.74204130E+00  1.79783954E+00  1.81678252E+00  1.84835843E+00  1.86752548E+00
  1.88482542E+00  1.96202613E+00  2.07506702E+00  2.08175410E+00  2.13261613E+00
  2.22833669E+00  2.25648497E+00  2.26169649E+00  2.27488185E+00  2.28200510E+00
  2.31220208E+00  2.40931625E+00  2.43290732E+00  2.55944009E+00  2.59632788E+00
  2.61897253E+00  2.64656266E+00  2.64895010E+00  2.65623205E+00  2.66159949E+00
  2.73731874E+00  2.79405194E+00  2.91290388E+00  2.96942879E+00  3.04588427E+00
  3.22553230E+00  3.33412043E+00  4.33525155E+00  4.35052689E+00  4.54986999E+00
  4.57954838E+00  4.70284764E+00  4.79451351E+00  4.90150365E+00
Alpha MO coefficients                      R   N=       16641
  9.96252657E-01  1.42613626E-02  1.70067513E-05  8.37512601E-05 -6.13901118E-12
 -2.00247440E-02 -4.45464300E-05 -1.37861660E-04 -4.35548099E-11  2.44763240E-03
 -7.54034018E-05  1.08861785E-04  1.63932896E-10  6.87007569E-03  6.90859863E-03
  6.90862248E-03  6.31826571E-06 -3.37673619E-11  1.81166637E-11 -2.38529696E-05
 -1.02990318E-04 -1.68447725E-06  1.96154059E-05 -2.20592656E-11  6.75090726E-04
  1.15724134E-04 -1.93338766E-04  1.56243124E-10 -7.94729731E-05 -4.69054297E-05
 -8.14187565E-05 -4.35897412E-05 -2.94525024E-11 -3.43156291E-11 -1.10953496E-05
 -7.07126984E-06  4.19588577E-06  6.06127546E-06  4.66474117E-11  1.78113252E-04
  2.71010602E-04  6.80466585E-05 -1.45599567E-10 -7.30813229E-05 -2.24992350E-06
 -3.69215946E-05  2.11011037E-06 -1.64932784E-12  3.12393312E-12 -1.80648899E-05
 -1.24618985E-05  5.10794707E-05 -7.38132411E-05  1.11465112E-10  4.82952996E-04
 -3.64612557E-05  1.72379683E-05 -1.46123711E-10 -3.58621279E-05 -3.83247900E-05
 -4.24107873E-05  1.98315008E-05 -3.17144251E-11 -5.36598426E-11  3.99489758E-06
  6.39255491E-05 -5.13722084E-05 -3.40303024E-05  3.38350365E-11 -2.86308268E-04
 -1.94831916E-04 -5.85440904E-04 -2.08644526E-10  9.92796420E-07 -1.95266427E-05
 -5.31449889E-06 -5.75776411E-05  5.45685351E-12 -3.78477303E-11 -2.80730943E-06
 -9.25345489E-06  2.22473566E-05  3.20381459E-06  1.78364172E-11 -1.48611605E-04
 -3.55376294E-05  1.09590383E-04  3.95860795E-10  2.80205387E-06 -1.47732626E-05
 -4.77604448E-06  1.06301012E-07  1.18478221E-10 -1.73343175E-10 -4.07661387E-06
  1.57665821E-05 -1.85443190E-05  2.23917030E-06  7.25278440E-11 -3.47034809E-05
 -1.84860531E-04 -2.58841230E-05  4.83628218E-10 -3.86722245E-05 -1.34049485E-05
 -2.37885239E-05 -3.24671728E-06  5.40363248E-11 -2.33082458E-11  1.45759947E-05
 -1.17038282E-04  1.45760023E-05 -1.17038611E-04 -4.03490274E-05 -1.90760086E-04
 -4.03488449E-05 -1.90760792E-04 -5.32570323E-06 -4.39165178E-06 -5.32573592E-06
 -4.39209466E-06  1.43672422E-05  5.51262766E-05  2.45680668E-05 -1.28152023E-04
  2.45680967E-05 -1.28152088E-04 -1.56295143E-05 -2.48215079E-05  3.47573616E-07
 -1.28505785E-06  4.11300421E-06  7.54162871E-06  8.15636146E-12  4.61506983E-05
 -2.83759949E-05 -2.66077853E-05 -5.17187819E-11 -1.90996969E-04 -1.23022954E-04
 -4.76321621E-05 -1.00236336E-10 -3.55829646E-05 -3.56532682E-05 -1.60073451E-05
 -2.05175066E-05  5.52037051E-11 -4.93089841E-11  9.94696957E-01  2.09308443E-02
 -2.50659546E-05 -1.53603166E-03  1.12666921E-10  4.52235100E-03  6.97900220E-06
  4.51865319E-05  8.17158063E-11 -3.89663405E-03 -3.62046996E-03 -4.16278394E-03
 -7.39941083E-06 -4.14355950E-10 -1.57792425E-10 -4.26549235E-06 -1.21596921E-05
  4.06634895E-06 -2.14449511E-05 -5.17962594E-11  8.68683460E-06  1.16708125E-04
  4.22007394E-05  1.01953822E-09  3.07557980E-05 -4.73749764E-05 -2.54201309E-05
  1.99092955E-05  1.12223395E-10 -2.72659869E-12 -3.82855660E-06 -1.70063673E-05
  1.73139962E-05  7.01524342E-06 -2.04577948E-10  2.12080455E-04 -1.23562853E-04
 -6.68534662E-05  1.52058181E-09  1.85142294E-06 -8.99036053E-06 -1.19217242E-05
 -1.05043671E-06 -9.55548820E-11  1.18448180E-11 -9.69962436E-06  4.55043678E-04
  4.73959881E-06 -4.65658334E-05  1.86260562E-11 -1.34750193E-04 -7.04074490E-05
 -5.74287755E-04 -3.51333353E-10 -6.94044673E-05 -7.66741163E-04 -5.67574914E-05
  4.21669017E-06  2.64801597E-11  3.98744897E-11  2.13370657E-06  1.69490424E-05
 -9.68400716E-06  1.41734292E-05  3.95639516E-10 -4.62403946E-05  9.32473509E-05
 -1.30111035E-06 -2.27158956E-09 -5.54346118E-07 -1.02634478E-05  7.11329531E-09
 -7.71654261E-06 -8.25540200E-11  1.22886429E-11  5.45968795E-06  2.60855925E-05
 -1.08605527E-06 -9.19855671E-06 -2.07085009E-11 -2.11443718E-04 -1.04306359E-04
  1.27976351E-05  1.62260234E-10 -6.19997874E-07  1.00756086E-05  6.92988150E-06
 -4.20342701E-06 -2.07910172E-11 -1.15867831E-11  4.50496583E-06 -1.38384625E-05
  4.50523331E-06 -1.38381114E-05  2.17579992E-05 -4.77096164E-05  2.17579146E-05
 -4.77074650E-05  2.38023878E-05 -3.50761479E-05  2.38028200E-05 -3.50802027E-05
 -4.46377096E-06 -4.31067131E-05  1.16414070E-05  1.26233953E-05  1.16413762E-05
  1.26234653E-05  9.91462588E-07 -1.38295593E-05 -3.83110178E-06 -4.00886972E-05
 -2.16825190E-05  6.30104565E-06 -4.53425318E-11  2.38807845E-04  3.19613346E-04