opt=Tight                                                               
Freq      RMP2-FC                                                     6-31G(d)            
Number of atoms                            I                4
Info1-9                                    I   N=           9
          13          13        1002           0           0         100
           6           2           1
Charge                                     I               -2
Multiplicity                               I                1
Number of electrons                        I               32
Number of alpha electrons                  I               16
Number of beta electrons                   I               16
Number of basis functions                  I               60
Number of independent functions            I               60
Number of point charges in /Mol/           I                0
Number of translation vectors              I                0
Atomic numbers                             I   N=           4
           8           8           8           6
Nuclear charges                            R   N=           4
  8.00000000E+00  8.00000000E+00  8.00000000E+00  6.00000000E+00
Current cartesian coordinates              R   N=          12
 -2.44179930E+00 -3.59375504E-01 -6.41499729E-05  1.53217394E+00 -1.93458151E+00
 -2.19460972E-05  9.09577196E-01  2.29402465E+00 -8.58723413E-06  6.42293805E-05
 -9.01874883E-05  1.26244406E-04
Force Field                                I                0
Int Atom Types                             I   N=           4
           0           0           0           0
MM charges                                 R   N=           4
  0.00000000E+00  0.00000000E+00  0.00000000E+00  0.00000000E+00
Integer atomic weights                     I   N=           4
          16          16          16          12
Real atomic weights                        R   N=           4
  1.59949146E+01  1.59949146E+01  1.59949146E+01  1.20000000E+01
Atom fragment info                         I   N=           4
           0           0           0           0
Atom residue num                           I   N=           4
           0           0           0           0
Nuclear spins                              I   N=           4
           0           0           0           0
Nuclear ZEff                               R   N=           4
 -5.60000000E+00 -5.60000000E+00 -5.60000000E+00 -3.60000000E+00
Nuclear QMom                               R   N=           4
  0.00000000E+00  0.00000000E+00  0.00000000E+00  0.00000000E+00
Nuclear GFac                               R   N=           4
  0.00000000E+00  0.00000000E+00  0.00000000E+00  0.00000000E+00
MicOpt                                     I   N=           4
          -1          -1          -1          -1
Number of contracted shells                I               16
Number of primitive shells                 I               44
Pure/Cartesian d shells                    I                1
Pure/Cartesian f shells                    I                0
Highest angular momentum                   I                2
Largest degree of contraction              I                6
Shell types                                I   N=          16
           0          -1          -1           2           0          -1
          -1           2           0          -1          -1           2
           0          -1          -1           2
Number of primitives per shell             I   N=          16
           6           3           1           1           6           3
           1           1           6           3           1           1
           6           3           1           1
Shell to atom map                          I   N=          16
           1           1           1           1           2           2
           2           2           3           3           3           3
           4           4           4           4
Primitive exponents                        R   N=          44
  5.48467166E+03  8.25234946E+02  1.88046958E+02  5.29645000E+01  1.68975704E+01
  5.79963534E+00  1.55396162E+01  3.59993359E+00  1.01376175E+00  2.70005823E-01
  8.00000000E-01  5.48467166E+03  8.25234946E+02  1.88046958E+02  5.29645000E+01
  1.68975704E+01  5.79963534E+00  1.55396162E+01  3.59993359E+00  1.01376175E+00
  2.70005823E-01  8.00000000E-01  5.48467166E+03  8.25234946E+02  1.88046958E+02
  5.29645000E+01  1.68975704E+01  5.79963534E+00  1.55396162E+01  3.59993359E+00
  1.01376175E+00  2.70005823E-01  8.00000000E-01  3.04752488E+03  4.57369518E+02
  1.03948685E+02  2.92101553E+01  9.28666296E+00  3.16392696E+00  7.86827235E+00
  1.88128854E+00  5.44249258E-01  1.68714478E-01  8.00000000E-01
Contraction coefficients                   R   N=          44
  1.83107443E-03  1.39501722E-02  6.84450781E-02  2.32714336E-01  4.70192898E-01
  3.58520853E-01 -1.10777550E-01 -1.48026263E-01  1.13076702E+00  1.00000000E+00
  1.00000000E+00  1.83107443E-03  1.39501722E-02  6.84450781E-02  2.32714336E-01
  4.70192898E-01  3.58520853E-01 -1.10777550E-01 -1.48026263E-01  1.13076702E+00
  1.00000000E+00  1.00000000E+00  1.83107443E-03  1.39501722E-02  6.84450781E-02
  2.32714336E-01  4.70192898E-01  3.58520853E-01 -1.10777550E-01 -1.48026263E-01
  1.13076702E+00  1.00000000E+00  1.00000000E+00  1.83473713E-03  1.40373228E-02
  6.88426223E-02  2.32184443E-01  4.67941348E-01  3.62311985E-01 -1.19332420E-01
 -1.60854152E-01  1.14345644E+00  1.00000000E+00  1.00000000E+00
P(S=P) Contraction coefficients            R   N=          44
  0.00000000E+00  0.00000000E+00  0.00000000E+00  0.00000000E+00  0.00000000E+00
  0.00000000E+00  7.08742682E-02  3.39752839E-01  7.27158577E-01  1.00000000E+00
  0.00000000E+00  0.00000000E+00  0.00000000E+00  0.00000000E+00  0.00000000E+00
  0.00000000E+00  0.00000000E+00  7.08742682E-02  3.39752839E-01  7.27158577E-01
  1.00000000E+00  0.00000000E+00  0.00000000E+00  0.00000000E+00  0.00000000E+00
  0.00000000E+00  0.00000000E+00  0.00000000E+00  7.08742682E-02  3.39752839E-01
  7.27158577E-01  1.00000000E+00  0.00000000E+00  0.00000000E+00  0.00000000E+00
  0.00000000E+00  0.00000000E+00  0.00000000E+00  0.00000000E+00  6.89990666E-02
  3.16423961E-01  7.44308291E-01  1.00000000E+00  0.00000000E+00
Coordinates of each shell                  R   N=          48
 -2.44179930E+00 -3.59375504E-01 -6.41499729E-05 -2.44179930E+00 -3.59375504E-01
 -6.41499729E-05 -2.44179930E+00 -3.59375504E-01 -6.41499729E-05 -2.44179930E+00
 -3.59375504E-01 -6.41499729E-05  1.53217394E+00 -1.93458151E+00 -2.19460972E-05
  1.53217394E+00 -1.93458151E+00 -2.19460972E-05  1.53217394E+00 -1.93458151E+00
 -2.19460972E-05  1.53217394E+00 -1.93458151E+00 -2.19460972E-05  9.09577196E-01
  2.29402465E+00 -8.58723413E-06  9.09577196E-01  2.29402465E+00 -8.58723413E-06
  9.09577196E-01  2.29402465E+00 -8.58723413E-06  9.09577196E-01  2.29402465E+00
 -8.58723413E-06  6.42293805E-05 -9.01874883E-05  1.26244406E-04  6.42293805E-05
 -9.01874883E-05  1.26244406E-04  6.42293805E-05 -9.01874883E-05  1.26244406E-04
  6.42293805E-05 -9.01874883E-05  1.26244406E-04
Constraint Structure                       R   N=          12
 -2.44179930E+00 -3.59375504E-01 -6.41499729E-05  1.53217394E+00 -1.93458151E+00
 -2.19460972E-05  9.09577196E-01  2.29402465E+00 -8.58723413E-06  6.42293805E-05
 -9.01874883E-05  1.26244406E-04
Num ILSW                                   I              100
ILSW                                       I   N=         100
           0           1           0           0           2           0
           0           0           0           0           0          -1
           0           0           0           0           0           0
           0           0           0           0           1           0
           1           0           0           0           0           0
           0           0      100000           0          -1           0
           0           0           0           0           0           0
           0           0           0           1           1           0
           0           0           1           0           0           0
           0           0           4          40           0           0
           0           0           0           0           0           0
           0           0           0           0           0           0
           0           0           0           0           0           0
           0           0           0           0           0           0
           0           0           0           0           0           0
           0           0           0           0           0           0
           0           0           0           0
Num RLSW                                   I               40
RLSW                                       R   N=          40
  1.00000000E+00  1.00000000E+00  1.00000000E+00  1.00000000E+00  1.00000000E+00
  0.00000000E+00  0.00000000E+00  1.00000000E+00  0.00000000E+00  0.00000000E+00
  0.00000000E+00  0.00000000E+00  1.00000000E+00  0.00000000E+00  0.00000000E+00
  0.00000000E+00  0.00000000E+00  1.00000000E+00  0.00000000E+00  0.00000000E+00
  0.00000000E+00  0.00000000E+00  1.00000000E+00  0.00000000E+00  0.00000000E+00
  0.00000000E+00  0.00000000E+00  1.00000000E+00  0.00000000E+00  0.00000000E+00
  0.00000000E+00  0.00000000E+00  0.00000000E+00  0.00000000E+00  0.00000000E+00
  0.00000000E+00  0.00000000E+00  0.00000000E+00  1.00000000E+00  1.00000000E+00
MxBond                                     I                3
NBond                                      I   N=           4
           1           1           1           3
IBond                                      I   N=          12
           4           0           0           4           0           0
           4           0           0           1           2           3
RBond                                      R   N=          12
  1.00000000E+00  0.00000000E+00  0.00000000E+00  1.00000000E+00  0.00000000E+00
  0.00000000E+00  1.00000000E+00  0.00000000E+00  0.00000000E+00  1.00000000E+00
  1.00000000E+00  1.00000000E+00
Virial Ratio                               R      2.003196937787046E+00
SCF Energy                                 R     -2.626444479328236E+02
MP2 Energy                                 R     -2.633021967312097E+02
Total Energy                               R     -2.633021967312097E+02
Post-SCF wavefunction norm                 R      1.538676806653162E+00
RMS Force                                  R      1.809711002089595E-04
RMS Density                                R      8.684889763358835E-10
External E-field                           R   N=          35
  0.00000000E+00  0.00000000E+00  0.00000000E+00  0.00000000E+00  0.00000000E+00
  0.00000000E+00  0.00000000E+00  0.00000000E+00  0.00000000E+00  0.00000000E+00
  0.00000000E+00  0.00000000E+00  0.00000000E+00  0.00000000E+00  0.00000000E+00
  0.00000000E+00  0.00000000E+00  0.00000000E+00  0.00000000E+00  0.00000000E+00
  0.00000000E+00  0.00000000E+00  0.00000000E+00  0.00000000E+00  0.00000000E+00
  0.00000000E+00  0.00000000E+00  0.00000000E+00  0.00000000E+00  0.00000000E+00
  0.00000000E+00  0.00000000E+00  0.00000000E+00  0.00000000E+00  0.00000000E+00
IOpCl                                      I                0
IROHF                                      I                0
Alpha Orbital Energies                     R   N=          60
 -2.03914019E+01 -2.03913326E+01 -2.03912921E+01 -1.12680121E+01 -1.27898311E+00
 -1.14091369E+00 -1.14082407E+00 -6.06500352E-01 -5.11567666E-01 -5.11558222E-01
 -4.85742482E-01 -3.42265234E-01 -3.42229610E-01 -3.11130537E-01 -3.11074148E-01
 -2.80421665E-01  3.73399506E-01  5.08416063E-01  6.83759857E-01  6.83883088E-01
  8.57458272E-01  9.30194551E-01  9.47724882E-01  9.47907719E-01  1.21640271E+00
  1.23525491E+00  1.23531897E+00  1.35499992E+00  1.35503966E+00  1.40718068E+00
  1.40721793E+00  1.47176577E+00  1.47460738E+00  1.52423931E+00  1.79745427E+00
  1.79752421E+00  2.00216771E+00  2.00222465E+00  2.15483074E+00  2.15496899E+00
  2.21345571E+00  2.24539240E+00  2.24545641E+00  2.26092636E+00  2.38909165E+00
  2.38926981E+00  2.44127087E+00  2.59904240E+00  2.64869566E+00  3.07913974E+00
  3.07926429E+00  3.23417503E+00  3.23436261E+00  3.33901586E+00  3.55302356E+00
  3.55310882E+00  4.17768521E+00  4.52606224E+00  4.52614454E+00  4.77021684E+00
Alpha MO coefficients                      R   N=        3600
 -1.69634308E-01 -3.61232845E-03 -2.17056012E-04 -6.82251771E-06 -2.33204874E-08
 -5.25401127E-04  9.13362277E-05  8.34116459E-05  1.36694318E-08  6.16586938E-04
  6.50665225E-04  6.38329671E-04  9.10443428E-05  7.57073403E-09  1.02714665E-08
  9.69038092E-01  2.04813078E-02 -6.81253223E-04  8.59031895E-04  1.12428176E-07
  3.76702230E-03  1.74787799E-04 -2.22746911E-04 -4.26790645E-08 -3.75120401E-03
 -3.76377496E-03 -3.82782074E-03  2.27980772E-05  1.08010876E-08 -1.16707770E-08
 -1.47051935E-01 -3.13467531E-03  4.63664191E-05  1.85811430E-04 -1.63120817E-08
 -4.39874451E-04 -1.00626890E-04 -6.22539459E-05  9.42505871E-09  5.98448085E-04
  4.94506570E-04  5.49717793E-04  7.35897987E-05 -9.40601786E-09 -4.03647087E-09
  2.20542054E-07  3.40042391E-04  1.73461607E-04 -2.11338218E-04 -3.86312218E-09
 -2.68759751E-04 -5.01681117E-05  6.08193092E-05  1.83245817E-08 -8.99276666E-05
 -1.90063474E-04 -2.70719350E-05  2.28034428E-04  1.77518395E-08 -1.94337833E-08
  7.79041110E-01  1.64766186E-02  8.79474138E-04  1.43955466E-04  1.05803475E-07
  2.97133669E-03 -2.53491049E-04  4.19956234E-06 -4.02876304E-08 -3.04158933E-03
 -2.97969326E-03 -3.06377288E-03  4.65668368E-05 -1.50291391E-08  3.48938391E-09
  4.27406069E-02  8.97201076E-04 -2.31772123E-06  5.29005686E-05  5.36250818E-09
  1.96721040E-04  6.82347046E-05  5.34769643E-05  2.11952716E-10 -2.69087238E-04
 -7.34224314E-05 -1.76057719E-04  2.69376865E-05  6.08838800E-09  7.57476322E-09
 -6.17015182E-01 -1.30629338E-02  2.79382917E-04  6.60916933E-04 -6.76606958E-08
 -2.28975411E-03 -3.96833288E-05 -2.24333228E-04  2.98741502E-08  2.32536902E-03
  2.42044809E-03  2.41158848E-03 -3.23957852E-05 -2.02200736E-09 -1.59676140E-08
  4.56728680E-08  1.06626016E-04 -2.35907772E-04 -1.74794249E-04 -5.43898096E-09
 -8.38098397E-05  6.74510135E-05  5.00871592E-05  6.93248851E-09 -2.57613175E-04
  1.70280418E-04 -8.52298607E-06  5.01362655E-05 -2.71377408E-08 -1.59737202E-08
  5.94767129E-01  1.25288824E-02  6.30859780E-04  8.03750414E-05  7.99430153E-08
  2.51765794E-03 -8.68171916E-05 -4.68991439E-05 -2.14530458E-08 -2.34050600E-03
 -2.34639689E-03 -2.39801379E-03 -4.63571955E-05  6.61709459E-10 -4.16178697E-09
  2.20378855E-01  4.60720916E-03 -1.30084319E-04  1.58007082E-04  2.55234509E-08
  1.10719018E-03 -2.96644417E-05  2.04316753E-05 -1.97132933E-09 -8.87787104E-04
 -9.11656312E-04 -9.29818218E-04 -3.64579934E-06 -5.01720129E-09  5.19697102E-09
  7.66222232E-01  1.61568884E-02 -2.99226328E-04 -7.78048275E-04  8.46098034E-08
  3.16481438E-03  7.69878132E-05  1.31358206E-04 -2.68845500E-08 -3.01391586E-03
 -2.99544745E-03 -3.07072316E-03 -3.27213282E-05  4.64122214E-09  2.89664970E-09
  4.99217189E-07  8.24064122E-04 -4.12692683E-05  1.09860013E-04 -1.21149740E-08
 -6.50443434E-04  1.15516008E-05 -3.18523653E-05  4.52278887E-08 -3.31584942E-04
 -3.45974199E-04 -6.56554629E-05 -1.00408359E-04 -8.49332995E-09  8.20786819E-09
 -2.02131762E-04  2.82599270E-04  1.40813051E-04  2.07062314E-05  5.21553714E-09
 -6.20548511E-04 -1.19494408E-03 -1.75660855E-04 -9.61805162E-08 -5.16470353E-04
  4.38904740E-05  1.55805397E-04 -9.73113845E-05 -8.53746315E-08 -1.29258623E-08
 -2.02331837E-04  2.83010050E-04 -8.84211551E-05  1.11652604E-04  2.80004966E-09
 -6.23961160E-04  7.50732341E-04 -9.48065906E-04 -7.56833704E-08 -1.68962278E-04
 -3.02988503E-04  1.56039983E-04  3.28649662E-04  4.40487162E-08 -5.80353901E-08
 -2.02334101E-04  2.82637527E-04 -5.24998980E-05 -1.32458397E-04  2.01859100E-09
 -6.21722066E-04  4.44986201E-04  1.12313420E-03 -6.90451673E-08 -2.31951718E-05
 -4.48830895E-04  1.55739001E-04 -2.31135352E-04  2.41934623E-08  6.41131294E-08
  9.95937721E-01  2.44392455E-02  8.82370508E-07 -8.74886355E-07 -1.08905612E-08
 -2.67351972E-03  1.14234500E-06 -4.66015205E-07 -1.32549465E-07 -5.93183738E-04
 -5.93095891E-04 -2.29061136E-03 -3.85085943E-07  2.46184022E-08  9.86043838E-09
 -1.05875083E-01  2.32673218E-01  7.64798136E-02  1.12401813E-02  4.15887587E-06
  2.14433846E-01  2.92397197E-02  4.28612206E-03  1.00920497E-06  1.40131735E-02
 -1.37702078E-03  9.90851746E-04  2.66749501E-03  1.09884534E-06  1.51079385E-07
 -1.06075427E-01  2.33115728E-01 -4.80665289E-02  6.07035802E-02  2.84274058E-06
  2.14803589E-01 -1.83642656E-02  2.31769700E-02  4.93491516E-07  4.48637100E-03
  8.16517059E-03  9.90566695E-04 -9.03370070E-03 -5.56215988E-07  6.36756467E-07
 -1.05968786E-01  2.32883241E-01 -2.84918892E-02 -7.19350017E-02  2.42258777E-06
  2.14591770E-01 -1.08716103E-02 -2.74837455E-02  3.42522848E-07  4.64862129E-04
  1.21774240E-02  9.94274558E-04  6.35591671E-03 -3.10084031E-07 -6.96977732E-07
 -1.35279286E-01  2.62274784E-01  1.74116576E-04 -5.48740561E-05 -1.23694194E-05
  7.28466840E-02  2.36270355E-05 -1.96943202E-05  3.78281038E-06  9.03894738E-03
  9.06813926E-03 -2.20465152E-02 -2.13792793E-05  4.47154583E-07  1.80906992E-07
  7.33849565E-02 -1.57214288E-01 -2.57396752E-02 -2.62555357E-02 -2.52412740E-06
 -1.74109254E-01 -9.67513342E-03 -1.51413936E-02 -1.55182297E-06 -1.95741385E-03
  6.60858798E-04  1.14125928E-03 -3.84393995E-03 -4.70066760E-07 -5.12481193E-07
 -1.75879675E-01  3.76751681E-01 -4.53955956E-02  5.35378486E-02  4.64861817E-06
  4.17378054E-01 -1.86555340E-02  2.12352877E-02  3.11144700E-06  6.17151237E-04
  2.46361854E-03 -2.75725509E-03 -6.02542549E-03 -7.10223386E-07  8.07606933E-07
  1.02674643E-01 -2.19960986E-01  3.36005971E-02  3.07636358E-02 -2.31646858E-06
 -2.43582743E-01  1.73524201E-02  1.08354640E-02 -1.62218916E-06 -3.75876244E-04
 -1.43642878E-03  1.59680762E-03 -4.56312243E-03  5.21066653E-07  4.02652984E-07
  6.41861447E-05 -1.33354344E-04  1.21086631E-01 -1.87311968E-01  5.90929750E-07
 -8.74922258E-05 -4.00042958E-03  6.17362890E-03 -2.54190865E-08 -4.09094804E-03
  4.07548431E-03  6.39531005E-06 -3.46394985E-02 -2.18817762E-06  2.61010843E-06
 -1.60863694E-01  3.44607456E-01  6.49504227E-02 -7.03989139E-04  5.34662104E-06
  3.81700388E-01  2.64378112E-02 -2.38642399E-03  3.29301736E-06  6.42376143E-03
 -3.59642006E-03 -2.51041951E-03  1.89826335E-04  1.17372729E-06 -3.41967352E-08
  1.68664610E-02 -3.61306182E-02 -1.49127415E-02 -2.03878790E-02 -7.65070955E-07
 -4.00266064E-02 -9.97309777E-03 -1.13467886E-02 -4.93440000E-07  2.96602309E-03
 -3.26034720E-03  2.63893734E-04 -2.44291945E-04 -2.35757571E-07 -3.77794453E-07
  1.43867263E-01 -3.08192168E-01  7.93864297E-03  5.85812087E-02 -3.66018939E-06
 -3.41359027E-01  4.24905533E-04  2.46500437E-02 -2.52957135E-06  3.12467706E-03
 -5.64852844E-03  2.24674142E-03 -1.91509483E-03  1.06777449E-07  8.77284622E-07
 -3.38516963E-05  6.19493220E-05 -1.87265089E-01 -1.21090242E-01 -2.96804613E-06
  3.48126061E-05  6.13124215E-03  3.95837233E-03  1.01176475E-07  2.99928506E-02
 -2.99843236E-02 -3.64518014E-06 -4.72451196E-03  3.43585249E-06  1.72113393E-06
  7.16372331E-02 -1.46866436E-01  2.43495051E-01  3.57965974E-02  1.72225371E-05
 -2.74623728E-01  1.65847179E-01  2.43818111E-02  1.02993644E-05  2.48077667E-02
 -9.62970456E-04  1.62387803E-03  4.46917620E-03  2.38646271E-06  3.38957660E-07
  7.16888907E-02 -1.46977778E-01 -1.52995065E-01  1.93187837E-01  1.30426891E-05
 -2.74834307E-01 -1.04197629E-01  1.31579017E-01  7.45418242E-06  8.84619057E-03
  1.50125384E-02  1.62097453E-03 -1.51397542E-02 -1.24361281E-06  1.49232339E-06
  7.16599643E-02 -1.46913431E-01 -9.07184415E-02 -2.28888892E-01  1.16896655E-05
 -2.74712067E-01 -6.17943172E-02 -1.55885876E-01  6.52945507E-06  2.11921080E-03
  2.17278804E-02  1.62382883E-03  1.06422879E-02 -6.93427169E-07 -1.65405936E-06
 -1.35444026E-01  3.17771476E-01  1.00091610E-04 -9.20521435E-05 -3.35920081E-06
  1.44020265E-01 -1.55050311E-05 -7.18743437E-06  1.01330532E-05 -2.85703275E-03
 -2.85497674E-03 -1.05742278E-02 -2.00679013E-06  1.09578841E-07  4.56464841E-08
 -5.06851140E-02  1.01495799E-01 -2.76458964E-01 -1.57212548E-01 -2.38587721E-05
  2.27088590E-01 -1.88490823E-01 -1.15707214E-01 -1.70593018E-05 -2.07657210E-02
 -2.36671001E-03  3.04300443E-04 -1.02234613E-02 -2.85269057E-06 -1.18421077E-06
  5.10867140E-02 -1.02334202E-01 -9.75031053E-02  3.04195525E-01  2.00323447E-05
 -2.28824534E-01 -6.08403622E-02  2.13503773E-01  1.45294655E-05  3.49719384E-03
  1.98058562E-02 -3.26796582E-04 -1.13782578E-02 -1.13313632E-06  2.44275252E-06
 -4.78719916E-04  9.37986413E-04  2.12699250E-01 -8.12550298E-02  2.05770152E-06
  2.15277547E-03  1.60454061E-01 -6.15043004E-02  1.55623314E-06 -7.91638185E-03
  7.68858539E-03 -9.64262347E-06 -9.77441542E-03  1.06659835E-06 -5.37959909E-07
  5.87385241E-05 -1.55450258E-04  3.13323728E-01 -1.27098900E-01  3.28519014E-06
 -1.49797351E-04  4.44449032E-02 -1.79173656E-02  4.42241519E-07 -3.09104763E-03
  3.08170015E-03 -4.00926861E-06 -3.87873535E-03 -2.01269188E-06  7.58016829E-07
  2.97735031E-02 -5.96376019E-02  2.00778905E-01 -1.68787042E-01  1.31945026E-05
 -1.33406350E-01  1.39697576E-01 -1.29130874E-01  9.40180592E-06  1.60321107E-02
 -2.44875526E-03 -1.90532002E-04 -8.75479034E-03  1.88037910E-06 -1.02045981E-06
  2.89763328E-02 -5.80526982E-02 -2.60676051E-01  9.86777055E-03  7.99033286E-06
 -1.29777650E-01 -1.89520443E-01 -1.67705126E-03  5.69248640E-06  1.48760719E-02
 -1.66130708E-03 -1.90373200E-04 -9.95256602E-03 -1.65659415E-06  3.32074434E-07
 -5.87726474E-02  1.17694923E-01  1.25001258E-01  3.20221475E-01 -1.94954758E-05
  2.63367832E-01  8.56474843E-02  2.19688240E-01 -1.41510505E-05 -3.75633164E-03
 -2.30674731E-02  3.59107494E-04 -1.03403420E-02  9.96686266E-07  2.55934330E-06
  1.06905885E-05 -4.67557359E-05 -1.27015257E-01 -3.13331182E-01 -3.14636959E-06
 -5.18090417E-06 -1.81389381E-02 -4.44916188E-02 -4.32714652E-07  3.33209919E-03
 -3.33407475E-03 -1.43281563E-06 -3.59184313E-03  8.20938683E-07  1.88218487E-06
 -4.22727489E-07 -1.30939008E-06 -2.83455706E-05 -5.02768486E-06  2.73538006E-01
  7.22870096E-06 -1.82853614E-05 -3.32264261E-06  1.99201473E-01 -3.08064482E-06
 -7.89847804E-07  2.09483912E-06 -4.57772539E-07  1.80504831E-02  2.64937645E-03
 -4.19452439E-07 -1.30997564E-06  1.21675392E-05 -2.10580876E-05  2.73821261E-01
  7.24690932E-06  7.38537782E-06 -1.34560137E-05  1.99414401E-01 -1.24517294E-06
 -2.07198971E-06  1.55413572E-06  1.00248724E-06 -1.13408760E-02  1.43160576E-02
 -4.14408241E-07 -1.33693172E-06  5.80956760E-06  2.19547165E-05  2.73636840E-01
  7.24709747E-06  3.35843785E-06  1.37530230E-05  1.99265649E-01 -8.54938458E-07
 -2.30645057E-06  1.38142807E-06 -5.44432027E-07 -6.71810329E-03 -1.69713264E-02
 -6.98625746E-06  1.13790152E-05 -3.70412144E-06 -1.48506000E-06  2.97687881E-01
  2.55367024E-05 -2.37644447E-06 -9.17027194E-07  1.83994152E-01  1.00016936E-06
  1.00366388E-06 -3.68715144E-06 -7.24820482E-10  2.28883224E-05 -9.37369774E-06
 -3.73606990E-04 -7.31490658E-03  1.92086926E-01  2.50332876E-01  5.51083177E-05
  6.57243758E-02  1.89198430E-01  2.03329420E-01  5.39088585E-05  1.11247291E-02
 -6.70701293E-03 -4.47440770E-03  7.90377663E-03  3.82262542E-06  9.60284221E-07
 -1.36988182E-05 -1.51832977E-04  3.29363619E-01  2.67966677E-01  6.79969790E-06
  1.60068701E-03  2.59761411E-01  2.12522906E-01  5.61843755E-06 -7.52253401E-03
  7.63463071E-03 -1.00011172E-04  1.74860901E-03  3.68434911E-07  5.52450696E-07
  3.99687476E-04  7.47617698E-03  2.75249378E-01  1.40444611E-01 -4.85309072E-05
 -6.74953503E-02  2.31801229E-01  1.47021531E-01 -4.80981849E-05  3.05157898E-03
 -7.56684805E-03  4.59100302E-03 -1.16361349E-02  1.59361095E-06  3.13706508E-06
 -5.06375330E-07  6.32618395E-06 -1.10472771E-01 -9.13120298E-02 -1.84330041E-06
  9.75446281E-05  1.20378655E-01  9.95784810E-02  2.01136125E-06  4.34556107E-02
 -4.34421095E-02  1.31318035E-06 -1.29353922E-02 -2.47376651E-06 -2.93149242E-06
  2.22929370E-04  4.47320617E-03 -1.88555926E-01  3.39349514E-01 -3.19310573E-05
 -3.98467568E-02 -1.71689881E-01  2.64885660E-01 -3.15201600E-05 -9.32115640E-03
  6.65845900E-03  2.72908542E-03  5.19636012E-03 -2.42321052E-06  3.36930781E-07
 -4.68943185E-04 -8.46565559E-03 -1.71278488E-01  2.01735594E-01  5.90827414E-05
  7.69053809E-02 -1.62750999E-01  1.94025677E-01  5.80531739E-05 -6.89078391E-05
  5.22824239E-03 -5.22177027E-03 -1.38295653E-02 -2.65168342E-06  3.21703795E-06
  2.10957671E-04  4.16298671E-03 -2.98875242E-01  2.55553194E-01 -3.14869826E-05
 -3.70645686E-02 -2.28360121E-01  2.21749396E-01 -3.02314954E-05  7.70385925E-03
 -1.01666024E-02  2.54320690E-03  1.02575815E-03  2.89866381E-07  2.06528398E-06
  1.62473456E-05  1.24257365E-05  9.12108602E-02 -1.10274552E-01  5.75964847E-07
 -9.37359380E-05 -9.94584485E-02  1.20278676E-01 -6.66835535E-07 -1.12029179E-02
  1.12210812E-02  6.01204205E-06 -5.01755638E-02  2.10850323E-06 -3.61554645E-06
 -1.80334840E-06  7.72795061E-07  4.66666426E-05 -2.33023835E-05 -2.96845466E-01
  2.92678305E-05  4.72724310E-05 -7.74649595E-06 -2.71295256E-01  1.92681385E-06
 -1.26069265E-06 -3.62379469E-06  1.09278265E-06 -1.33759095E-02 -4.13845323E-03
  2.97630521E-06 -1.26771746E-06  3.73275628E-05 -4.99601694E-05  4.90604488E-01
 -4.83408330E-05  3.93166240E-05 -5.53013504E-05  4.48406652E-01  7.09243017E-07
 -1.11262180E-06  5.28791339E-06  2.88495839E-06 -1.39500531E-02  1.81277140E-02
 -1.17957701E-06  5.01835543E-07  2.58708814E-05 -3.56651878E-05 -1.94020142E-01
  1.91553111E-05  8.45745559E-06 -3.11826785E-05 -1.77305792E-01 -4.91412452E-07
  5.23894852E-07 -1.96901883E-06  1.10420176E-06  5.63092349E-03  7.49734986E-03
  3.40263280E-09  1.57299891E-08 -5.52987052E-06  5.49021469E-06 -6.32367156E-05
 -9.50955392E-08  4.39754225E-05 -4.35768924E-05 -1.03517335E-04  1.11611590E-07
 -5.05853243E-07  3.99651170E-07  2.64085338E-06  2.99627557E-02 -2.96829397E-02
 -2.40272574E-06  1.03840885E-06  5.28171280E-05  3.21934667E-05 -3.95287376E-01
  3.89793272E-05  5.82805044E-05  2.12352987E-05 -3.61302586E-01  2.81356901E-06
 -1.94883355E-06 -4.79660130E-06  5.07446931E-07 -1.84629183E-02 -1.07438385E-03
 -3.60220325E-07  1.58494326E-07  2.57774791E-05  3.00266978E-05 -5.94144734E-02
  5.83461811E-06  1.03492340E-05  1.86382421E-05 -5.42964457E-02  3.47166380E-07
 -3.56574346E-07 -5.76725320E-07 -5.10422875E-07  3.81618477E-03 -5.09449986E-04
  2.76486947E-06 -1.18777568E-06  3.01191487E-05  4.74846090E-05  4.54588406E-01
 -4.48722404E-05  2.54090963E-05  5.50276050E-05  4.15504229E-01  1.86045259E-06
 -2.05372466E-06  4.72387836E-06 -1.54320852E-06 -6.81606142E-03 -2.00954664E-02
 -1.92866039E-10  1.16680240E-09 -5.47436545E-06 -5.52258240E-06  2.80931225E-05
  3.51400010E-08  4.36248443E-05  4.40308006E-05 -1.60987965E-05  1.43463354E-06
 -2.33989164E-06  9.07432646E-07 -1.40524150E-06  2.96766706E-02  2.99657459E-02
 -1.27045328E-05  3.57357044E-05 -5.53431873E-02  3.77062768E-01  1.14391903E-06
  9.73899673E-05 -4.75452757E-02  3.24084141E-01  9.81672544E-07 -3.28565644E-03
  3.28510849E-03  5.22003471E-06  1.26756331E-02 -2.10049631E-07  1.70075516E-06
  7.01385893E-06 -3.13552348E-05 -2.98371565E-01 -2.36398836E-01 -4.91420380E-06
 -9.11859330E-06 -2.56489217E-01 -2.03219211E-01 -4.22618601E-06  1.11513215E-02
 -1.11595683E-02 -7.65977872E-06 -3.02122000E-03 -1.05590721E-06 -1.05300790E-06
  1.07031472E-05 -4.10517760E-05  3.54399028E-01 -1.40448280E-01  3.78621252E-06
 -5.82360285E-05  3.04590105E-01 -1.20694263E-01  3.24847893E-06 -7.84501898E-03
  7.84441468E-03 -1.06863686E-05 -9.65206851E-03  1.26688528E-06 -6.43542136E-07
 -1.30709767E-06 -4.79054900E-06 -6.48598438E-05 -2.15819484E-05  4.28399513E-09
 -1.66565612E-06  1.43324134E-04  8.37379478E-05  7.41902193E-09  2.72020970E-05
 -3.05148815E-05 -1.31552558E-06  4.61941326E-06  5.48926290E-09 -4.36997017E-11
  1.97522026E-05 -2.33249662E-05 -3.76370846E-05 -4.73765600E-06 -2.48445783E-01
 -2.71082972E-04 -1.63605433E-04 -2.28302384E-05 -3.93361902E-01 -1.01755810E-05
  5.26004894E-06  1.39306006E-05 -2.73345024E-06  1.56535392E-02  2.30486169E-03
  1.97482412E-05 -2.33157042E-05  2.86962438E-05 -3.09967579E-05 -2.48489032E-01
 -2.71062322E-04  1.10714878E-04 -1.31505456E-04 -3.93486273E-01 -2.52684535E-07
 -4.18909772E-06  1.34700990E-05  8.76290138E-06 -9.82552750E-03  1.24041078E-02
  1.97464359E-05 -2.33102891E-05  1.82967483E-05  3.95077123E-05 -2.48488773E-01
 -2.71063170E-04  6.77555984E-05  1.60272386E-04 -3.93487201E-01  3.59915319E-06
 -7.89277168E-06  1.33151764E-05 -6.02889676E-06 -5.83614442E-03 -1.47026586E-02
 -4.15908029E-05 -2.41986661E-05 -6.51433152E-06 -2.60276615E-06  5.15705392E-01
  9.19569479E-04 -1.03744514E-05 -4.07429951E-06  8.16688451E-01 -2.81269802E-06
 -2.81113380E-06  3.81732822E-06 -2.18600267E-09 -7.80173859E-07 -9.88748631E-06
  7.58092671E-02 -9.10515424E-02 -1.39025202E-01 -2.03814917E-02  7.06592649E-05
 -1.18530367E+00 -7.79343657E-01 -1.14536333E-01  9.33902280E-05 -3.79998410E-02
  1.60929926E-02  4.42459281E-02 -9.38948472E-03 -1.41265582E-05 -2.17762314E-06
  7.58454441E-02 -9.09560887E-02  8.71832657E-02 -1.10013642E-01  7.31229219E-05
 -1.18681647E+00  4.89262834E-01 -6.17797854E-01  1.06839831E-04 -4.43312503E-03
 -1.74107105E-02  4.43166539E-02  3.17690144E-02  7.53905075E-06 -1.01717668E-05
  7.58145199E-02 -9.09269786E-02  5.16856486E-02  1.30503489E-01  7.38416407E-05
 -1.18612063E+00  2.90198087E-01  7.32372717E-01  1.11147723E-04  9.67023379E-03
 -3.15110299E-02  4.42997326E-02 -2.23374998E-02  4.18458368E-06  1.13856505E-05
 -1.27926365E-01 -1.80322515E-01 -9.24693194E-05 -4.67542430E-05 -1.84685693E-04
  3.66308294E+00  8.55272433E-04 -3.63117046E-04 -4.64515454E-04  1.04666794E-02
  1.05053138E-02 -6.54289003E-03 -2.78938646E-05  2.41876424E-07  9.85414129E-08