14870207                                                                
Freq      RMP2-FC                                                     6-31G(d)            
Number of atoms                            I               22
Info1-9                                    I   N=           9
          34          32        1002           0           0         100
           6           2           1
Charge                                     I                0
Multiplicity                               I                1
Number of electrons                        I               72
Number of alpha electrons                  I               36
Number of beta electrons                   I               36
Number of basis functions                  I              161
Number of independent functions            I              161
Number of point charges in /Mol/           I                0
Number of translation vectors              I                0
Atomic numbers                             I   N=          22
           8           8           7           6           6           6
           6           6           6           1           1           1
           1           1           1           1           1           1
           1           1           1           1
Nuclear charges                            R   N=          22
  8.00000000E+00  8.00000000E+00  7.00000000E+00  6.00000000E+00  6.00000000E+00
  6.00000000E+00  6.00000000E+00  6.00000000E+00  6.00000000E+00  1.00000000E+00
  1.00000000E+00  1.00000000E+00  1.00000000E+00  1.00000000E+00  1.00000000E+00
  1.00000000E+00  1.00000000E+00  1.00000000E+00  1.00000000E+00  1.00000000E+00
  1.00000000E+00  1.00000000E+00
Current cartesian coordinates              R   N=          66
  5.50110905E+00 -1.07772268E+00 -8.54822108E-01  1.04679333E+00 -2.93672333E+00
  3.14080231E-01 -1.12313376E+00  6.36713431E-01 -7.42719901E-01 -3.61961017E+00
 -4.35422778E-01 -2.37428808E-01  3.52543121E+00  7.16003632E-01 -7.44857907E-01
 -5.57717664E+00  9.86767091E-01 -1.79214992E+00 -4.20134833E+00 -3.94228702E-01
  2.58564604E+00  1.02861474E+00 -6.92106457E-01 -3.61018152E-01  3.97510006E+00
  2.57459656E+00  1.41727302E+00 -3.52715425E+00 -2.40304183E+00 -8.68503975E-01
 -9.98149489E-01  2.49097294E+00 -1.20515165E+00  3.46142953E+00  1.73905661E+00
 -2.55221252E+00 -7.45188693E+00  1.69432404E-01 -1.50139730E+00 -5.66256709E+00
  2.97506908E+00 -1.21823655E+00 -5.13054032E+00  8.97525093E-01 -3.80739926E+00
 -2.75201157E+00 -1.44177891E+00  3.61621223E+00 -6.03770416E+00 -1.26790678E+00
  2.96364463E+00 -4.24690680E+00  1.55320598E+00  3.28219821E+00  5.83715845E+00
  3.43626588E+00  1.19296669E+00  3.93580040E+00  1.55410310E+00  3.21347369E+00
  2.54879864E+00  4.07296768E+00  1.46573880E+00  4.71638566E+00 -2.65095326E+00
 -2.61144358E-01
Force Field                                I                0
Int Atom Types                             I   N=          22
           0           0           0           0           0           0
           0           0           0           0           0           0
           0           0           0           0           0           0
           0           0           0           0
MM charges                                 R   N=          22
  0.00000000E+00  0.00000000E+00  0.00000000E+00  0.00000000E+00  0.00000000E+00
  0.00000000E+00  0.00000000E+00  0.00000000E+00  0.00000000E+00  0.00000000E+00
  0.00000000E+00  0.00000000E+00  0.00000000E+00  0.00000000E+00  0.00000000E+00
  0.00000000E+00  0.00000000E+00  0.00000000E+00  0.00000000E+00  0.00000000E+00
  0.00000000E+00  0.00000000E+00
Integer atomic weights                     I   N=          22
          16          16          14          12          12          12
          12          12          12           1           1           1
           1           1           1           1           1           1
           1           1           1           1
Real atomic weights                        R   N=          22
  1.59949146E+01  1.59949146E+01  1.40030740E+01  1.20000000E+01  1.20000000E+01
  1.20000000E+01  1.20000000E+01  1.20000000E+01  1.20000000E+01  1.00782504E+00
  1.00782504E+00  1.00782504E+00  1.00782504E+00  1.00782504E+00  1.00782504E+00
  1.00782504E+00  1.00782504E+00  1.00782504E+00  1.00782504E+00  1.00782504E+00
  1.00782504E+00  1.00782504E+00
Atom fragment info                         I   N=          22
           0           0           0           0           0           0
           0           0           0           0           0           0
           0           0           0           0           0           0
           0           0           0           0
Atom residue num                           I   N=          22
           0           0           0           0           0           0
           0           0           0           0           0           0
           0           0           0           0           0           0
           0           0           0           0
Nuclear spins                              I   N=          22
           0           0           2           0           0           0
           0           0           0           1           1           1
           1           1           1           1           1           1
           1           1           1           1
Nuclear ZEff                               R   N=          22
 -5.60000000E+00 -5.60000000E+00 -4.55000000E+00 -3.60000000E+00 -3.60000000E+00
 -3.60000000E+00 -3.60000000E+00 -3.60000000E+00 -3.60000000E+00 -1.00000000E+00
 -1.00000000E+00 -1.00000000E+00 -1.00000000E+00 -1.00000000E+00 -1.00000000E+00
 -1.00000000E+00 -1.00000000E+00 -1.00000000E+00 -1.00000000E+00 -1.00000000E+00
 -1.00000000E+00 -1.00000000E+00
Nuclear QMom                               R   N=          22
  0.00000000E+00  0.00000000E+00  2.04400000E+00  0.00000000E+00  0.00000000E+00
  0.00000000E+00  0.00000000E+00  0.00000000E+00  0.00000000E+00  0.00000000E+00
  0.00000000E+00  0.00000000E+00  0.00000000E+00  0.00000000E+00  0.00000000E+00
  0.00000000E+00  0.00000000E+00  0.00000000E+00  0.00000000E+00  0.00000000E+00
  0.00000000E+00  0.00000000E+00
Nuclear GFac                               R   N=          22
  0.00000000E+00  0.00000000E+00  4.03761000E-01  0.00000000E+00  0.00000000E+00
  0.00000000E+00  0.00000000E+00  0.00000000E+00  0.00000000E+00  2.79284600E+00
  2.79284600E+00  2.79284600E+00  2.79284600E+00  2.79284600E+00  2.79284600E+00
  2.79284600E+00  2.79284600E+00  2.79284600E+00  2.79284600E+00  2.79284600E+00
  2.79284600E+00  2.79284600E+00
MicOpt                                     I   N=          22
          -1          -1          -1          -1          -1          -1
          -1          -1          -1          -1          -1          -1
          -1          -1          -1          -1          -1          -1
          -1          -1          -1          -1
Number of contracted shells                I               62
Number of primitive shells                 I              151
Pure/Cartesian d shells                    I                1
Pure/Cartesian f shells                    I                0
Highest angular momentum                   I                2
Largest degree of contraction              I                6
Shell types                                I   N=          62
           0          -1          -1           2           0          -1
          -1           2           0          -1          -1           2
           0          -1          -1           2           0          -1
          -1           2           0          -1          -1           2
           0          -1          -1           2           0          -1
          -1           2           0          -1          -1           2
           0           0           0           0           0           0
           0           0           0           0           0           0
           0           0           0           0           0           0
           0           0           0           0           0           0
           0           0
Number of primitives per shell             I   N=          62
           6           3           1           1           6           3
           1           1           6           3           1           1
           6           3           1           1           6           3
           1           1           6           3           1           1
           6           3           1           1           6           3
           1           1           6           3           1           1
           3           1           3           1           3           1
           3           1           3           1           3           1
           3           1           3           1           3           1
           3           1           3           1           3           1
           3           1
Shell to atom map                          I   N=          62
           1           1           1           1           2           2
           2           2           3           3           3           3
           4           4           4           4           5           5
           5           5           6           6           6           6
           7           7           7           7           8           8
           8           8           9           9           9           9
          10          10          11          11          12          12
          13          13          14          14          15          15
          16          16          17          17          18          18
          19          19          20          20          21          21
          22          22
Primitive exponents                        R   N=         151
  5.48467166E+03  8.25234946E+02  1.88046958E+02  5.29645000E+01  1.68975704E+01
  5.79963534E+00  1.55396162E+01  3.59993359E+00  1.01376175E+00  2.70005823E-01
  8.00000000E-01  5.48467166E+03  8.25234946E+02  1.88046958E+02  5.29645000E+01
  1.68975704E+01  5.79963534E+00  1.55396162E+01  3.59993359E+00  1.01376175E+00
  2.70005823E-01  8.00000000E-01  4.17351146E+03  6.27457911E+02  1.42902093E+02
  4.02343293E+01  1.28202129E+01  4.39043701E+00  1.16263619E+01  2.71627981E+00
  7.72218397E-01  2.12031498E-01  8.00000000E-01  3.04752488E+03  4.57369518E+02
  1.03948685E+02  2.92101553E+01  9.28666296E+00  3.16392696E+00  7.86827235E+00
  1.88128854E+00  5.44249258E-01  1.68714478E-01  8.00000000E-01  3.04752488E+03
  4.57369518E+02  1.03948685E+02  2.92101553E+01  9.28666296E+00  3.16392696E+00
  7.86827235E+00  1.88128854E+00  5.44249258E-01  1.68714478E-01  8.00000000E-01
  3.04752488E+03  4.57369518E+02  1.03948685E+02  2.92101553E+01  9.28666296E+00
  3.16392696E+00  7.86827235E+00  1.88128854E+00  5.44249258E-01  1.68714478E-01
  8.00000000E-01  3.04752488E+03  4.57369518E+02  1.03948685E+02  2.92101553E+01
  9.28666296E+00  3.16392696E+00  7.86827235E+00  1.88128854E+00  5.44249258E-01
  1.68714478E-01  8.00000000E-01  3.04752488E+03  4.57369518E+02  1.03948685E+02
  2.92101553E+01  9.28666296E+00  3.16392696E+00  7.86827235E+00  1.88128854E+00
  5.44249258E-01  1.68714478E-01  8.00000000E-01  3.04752488E+03  4.57369518E+02
  1.03948685E+02  2.92101553E+01  9.28666296E+00  3.16392696E+00  7.86827235E+00
  1.88128854E+00  5.44249258E-01  1.68714478E-01  8.00000000E-01  1.87311370E+01
  2.82539436E+00  6.40121692E-01  1.61277759E-01  1.87311370E+01  2.82539436E+00
  6.40121692E-01  1.61277759E-01  1.87311370E+01  2.82539436E+00  6.40121692E-01
  1.61277759E-01  1.87311370E+01  2.82539436E+00  6.40121692E-01  1.61277759E-01
  1.87311370E+01  2.82539436E+00  6.40121692E-01  1.61277759E-01  1.87311370E+01
  2.82539436E+00  6.40121692E-01  1.61277759E-01  1.87311370E+01  2.82539436E+00
  6.40121692E-01  1.61277759E-01  1.87311370E+01  2.82539436E+00  6.40121692E-01
  1.61277759E-01  1.87311370E+01  2.82539436E+00  6.40121692E-01  1.61277759E-01
  1.87311370E+01  2.82539436E+00  6.40121692E-01  1.61277759E-01  1.87311370E+01
  2.82539436E+00  6.40121692E-01  1.61277759E-01  1.87311370E+01  2.82539436E+00
  6.40121692E-01  1.61277759E-01  1.87311370E+01  2.82539436E+00  6.40121692E-01
  1.61277759E-01
Contraction coefficients                   R   N=         151
  1.83107443E-03  1.39501722E-02  6.84450781E-02  2.32714336E-01  4.70192898E-01
  3.58520853E-01 -1.10777550E-01 -1.48026263E-01  1.13076702E+00  1.00000000E+00
  1.00000000E+00  1.83107443E-03  1.39501722E-02  6.84450781E-02  2.32714336E-01
  4.70192898E-01  3.58520853E-01 -1.10777550E-01 -1.48026263E-01  1.13076702E+00
  1.00000000E+00  1.00000000E+00  1.83477216E-03  1.39946270E-02  6.85865518E-02
  2.32240873E-01  4.69069948E-01  3.60455199E-01 -1.14961182E-01 -1.69117479E-01
  1.14585195E+00  1.00000000E+00  1.00000000E+00  1.83473713E-03  1.40373228E-02
  6.88426223E-02  2.32184443E-01  4.67941348E-01  3.62311985E-01 -1.19332420E-01
 -1.60854152E-01  1.14345644E+00  1.00000000E+00  1.00000000E+00  1.83473713E-03
  1.40373228E-02  6.88426223E-02  2.32184443E-01  4.67941348E-01  3.62311985E-01
 -1.19332420E-01 -1.60854152E-01  1.14345644E+00  1.00000000E+00  1.00000000E+00
  1.83473713E-03  1.40373228E-02  6.88426223E-02  2.32184443E-01  4.67941348E-01
  3.62311985E-01 -1.19332420E-01 -1.60854152E-01  1.14345644E+00  1.00000000E+00
  1.00000000E+00  1.83473713E-03  1.40373228E-02  6.88426223E-02  2.32184443E-01
  4.67941348E-01  3.62311985E-01 -1.19332420E-01 -1.60854152E-01  1.14345644E+00
  1.00000000E+00  1.00000000E+00  1.83473713E-03  1.40373228E-02  6.88426223E-02
  2.32184443E-01  4.67941348E-01  3.62311985E-01 -1.19332420E-01 -1.60854152E-01
  1.14345644E+00  1.00000000E+00  1.00000000E+00  1.83473713E-03  1.40373228E-02
  6.88426223E-02  2.32184443E-01  4.67941348E-01  3.62311985E-01 -1.19332420E-01
 -1.60854152E-01  1.14345644E+00  1.00000000E+00  1.00000000E+00  3.34946043E-02
  2.34726953E-01  8.13757326E-01  1.00000000E+00  3.34946043E-02  2.34726953E-01
  8.13757326E-01  1.00000000E+00  3.34946043E-02  2.34726953E-01  8.13757326E-01
  1.00000000E+00  3.34946043E-02  2.34726953E-01  8.13757326E-01  1.00000000E+00
  3.34946043E-02  2.34726953E-01  8.13757326E-01  1.00000000E+00  3.34946043E-02
  2.34726953E-01  8.13757326E-01  1.00000000E+00  3.34946043E-02  2.34726953E-01
  8.13757326E-01  1.00000000E+00  3.34946043E-02  2.34726953E-01  8.13757326E-01
  1.00000000E+00  3.34946043E-02  2.34726953E-01  8.13757326E-01  1.00000000E+00
  3.34946043E-02  2.34726953E-01  8.13757326E-01  1.00000000E+00  3.34946043E-02
  2.34726953E-01  8.13757326E-01  1.00000000E+00  3.34946043E-02  2.34726953E-01
  8.13757326E-01  1.00000000E+00  3.34946043E-02  2.34726953E-01  8.13757326E-01
  1.00000000E+00
P(S=P) Contraction coefficients            R   N=         151
  0.00000000E+00  0.00000000E+00  0.00000000E+00  0.00000000E+00  0.00000000E+00
  0.00000000E+00  7.08742682E-02  3.39752839E-01  7.27158577E-01  1.00000000E+00
  0.00000000E+00  0.00000000E+00  0.00000000E+00  0.00000000E+00  0.00000000E+00
  0.00000000E+00  0.00000000E+00  7.08742682E-02  3.39752839E-01  7.27158577E-01
  1.00000000E+00  0.00000000E+00  0.00000000E+00  0.00000000E+00  0.00000000E+00
  0.00000000E+00  0.00000000E+00  0.00000000E+00  6.75797439E-02  3.23907296E-01
  7.40895140E-01  1.00000000E+00  0.00000000E+00  0.00000000E+00  0.00000000E+00
  0.00000000E+00  0.00000000E+00  0.00000000E+00  0.00000000E+00  6.89990666E-02
  3.16423961E-01  7.44308291E-01  1.00000000E+00  0.00000000E+00  0.00000000E+00
  0.00000000E+00  0.00000000E+00  0.00000000E+00  0.00000000E+00  0.00000000E+00
  6.89990666E-02  3.16423961E-01  7.44308291E-01  1.00000000E+00  0.00000000E+00
  0.00000000E+00  0.00000000E+00  0.00000000E+00  0.00000000E+00  0.00000000E+00
  0.00000000E+00  6.89990666E-02  3.16423961E-01  7.44308291E-01  1.00000000E+00
  0.00000000E+00  0.00000000E+00  0.00000000E+00  0.00000000E+00  0.00000000E+00
  0.00000000E+00  0.00000000E+00  6.89990666E-02  3.16423961E-01  7.44308291E-01
  1.00000000E+00  0.00000000E+00  0.00000000E+00  0.00000000E+00  0.00000000E+00
  0.00000000E+00  0.00000000E+00  0.00000000E+00  6.89990666E-02  3.16423961E-01
  7.44308291E-01  1.00000000E+00  0.00000000E+00  0.00000000E+00  0.00000000E+00
  0.00000000E+00  0.00000000E+00  0.00000000E+00  0.00000000E+00  6.89990666E-02
  3.16423961E-01  7.44308291E-01  1.00000000E+00  0.00000000E+00  0.00000000E+00
  0.00000000E+00  0.00000000E+00  0.00000000E+00  0.00000000E+00  0.00000000E+00
  0.00000000E+00  0.00000000E+00  0.00000000E+00  0.00000000E+00  0.00000000E+00
  0.00000000E+00  0.00000000E+00  0.00000000E+00  0.00000000E+00  0.00000000E+00
  0.00000000E+00  0.00000000E+00  0.00000000E+00  0.00000000E+00  0.00000000E+00
  0.00000000E+00  0.00000000E+00  0.00000000E+00  0.00000000E+00  0.00000000E+00
  0.00000000E+00  0.00000000E+00  0.00000000E+00  0.00000000E+00  0.00000000E+00
  0.00000000E+00  0.00000000E+00  0.00000000E+00  0.00000000E+00  0.00000000E+00
  0.00000000E+00  0.00000000E+00  0.00000000E+00  0.00000000E+00  0.00000000E+00
  0.00000000E+00  0.00000000E+00  0.00000000E+00  0.00000000E+00  0.00000000E+00
  0.00000000E+00  0.00000000E+00  0.00000000E+00  0.00000000E+00  0.00000000E+00
  0.00000000E+00
Coordinates of each shell                  R   N=         186
  5.50110905E+00 -1.07772268E+00 -8.54822108E-01  5.50110905E+00 -1.07772268E+00
 -8.54822108E-01  5.50110905E+00 -1.07772268E+00 -8.54822108E-01  5.50110905E+00
 -1.07772268E+00 -8.54822108E-01  1.04679333E+00 -2.93672333E+00  3.14080231E-01
  1.04679333E+00 -2.93672333E+00  3.14080231E-01  1.04679333E+00 -2.93672333E+00
  3.14080231E-01  1.04679333E+00 -2.93672333E+00  3.14080231E-01 -1.12313376E+00
  6.36713431E-01 -7.42719901E-01 -1.12313376E+00  6.36713431E-01 -7.42719901E-01
 -1.12313376E+00  6.36713431E-01 -7.42719901E-01 -1.12313376E+00  6.36713431E-01
 -7.42719901E-01 -3.61961017E+00 -4.35422778E-01 -2.37428808E-01 -3.61961017E+00
 -4.35422778E-01 -2.37428808E-01 -3.61961017E+00 -4.35422778E-01 -2.37428808E-01
 -3.61961017E+00 -4.35422778E-01 -2.37428808E-01  3.52543121E+00  7.16003632E-01
 -7.44857907E-01  3.52543121E+00  7.16003632E-01 -7.44857907E-01  3.52543121E+00
  7.16003632E-01 -7.44857907E-01  3.52543121E+00  7.16003632E-01 -7.44857907E-01
 -5.57717664E+00  9.86767091E-01 -1.79214992E+00 -5.57717664E+00  9.86767091E-01
 -1.79214992E+00 -5.57717664E+00  9.86767091E-01 -1.79214992E+00 -5.57717664E+00
  9.86767091E-01 -1.79214992E+00 -4.20134833E+00 -3.94228702E-01  2.58564604E+00
 -4.20134833E+00 -3.94228702E-01  2.58564604E+00 -4.20134833E+00 -3.94228702E-01
  2.58564604E+00 -4.20134833E+00 -3.94228702E-01  2.58564604E+00  1.02861474E+00
 -6.92106457E-01 -3.61018152E-01  1.02861474E+00 -6.92106457E-01 -3.61018152E-01
  1.02861474E+00 -6.92106457E-01 -3.61018152E-01  1.02861474E+00 -6.92106457E-01
 -3.61018152E-01  3.97510006E+00  2.57459656E+00  1.41727302E+00  3.97510006E+00
  2.57459656E+00  1.41727302E+00  3.97510006E+00  2.57459656E+00  1.41727302E+00
  3.97510006E+00  2.57459656E+00  1.41727302E+00 -3.52715425E+00 -2.40304183E+00
 -8.68503975E-01 -3.52715425E+00 -2.40304183E+00 -8.68503975E-01 -9.98149489E-01
  2.49097294E+00 -1.20515165E+00 -9.98149489E-01  2.49097294E+00 -1.20515165E+00
  3.46142953E+00  1.73905661E+00 -2.55221252E+00  3.46142953E+00  1.73905661E+00
 -2.55221252E+00 -7.45188693E+00  1.69432404E-01 -1.50139730E+00 -7.45188693E+00
  1.69432404E-01 -1.50139730E+00 -5.66256709E+00  2.97506908E+00 -1.21823655E+00
 -5.66256709E+00  2.97506908E+00 -1.21823655E+00 -5.13054032E+00  8.97525093E-01
 -3.80739926E+00 -5.13054032E+00  8.97525093E-01 -3.80739926E+00 -2.75201157E+00
 -1.44177891E+00  3.61621223E+00 -2.75201157E+00 -1.44177891E+00  3.61621223E+00
 -6.03770416E+00 -1.26790678E+00  2.96364463E+00 -6.03770416E+00 -1.26790678E+00
  2.96364463E+00 -4.24690680E+00  1.55320598E+00  3.28219821E+00 -4.24690680E+00
  1.55320598E+00  3.28219821E+00  5.83715845E+00  3.43626588E+00  1.19296669E+00
  5.83715845E+00  3.43626588E+00  1.19296669E+00  3.93580040E+00  1.55410310E+00
  3.21347369E+00  3.93580040E+00  1.55410310E+00  3.21347369E+00  2.54879864E+00
  4.07296768E+00  1.46573880E+00  2.54879864E+00  4.07296768E+00  1.46573880E+00
  4.71638566E+00 -2.65095326E+00 -2.61144358E-01  4.71638566E+00 -2.65095326E+00
 -2.61144358E-01
Constraint Structure                       R   N=          66
  5.50110905E+00 -1.07772268E+00 -8.54822108E-01  1.04679333E+00 -2.93672333E+00
  3.14080231E-01 -1.12313376E+00  6.36713431E-01 -7.42719901E-01 -3.61961017E+00
 -4.35422778E-01 -2.37428808E-01  3.52543121E+00  7.16003632E-01 -7.44857907E-01
 -5.57717664E+00  9.86767091E-01 -1.79214992E+00 -4.20134833E+00 -3.94228702E-01
  2.58564604E+00  1.02861474E+00 -6.92106457E-01 -3.61018152E-01  3.97510006E+00
  2.57459656E+00  1.41727302E+00 -3.52715425E+00 -2.40304183E+00 -8.68503975E-01
 -9.98149489E-01  2.49097294E+00 -1.20515165E+00  3.46142953E+00  1.73905661E+00
 -2.55221252E+00 -7.45188693E+00  1.69432404E-01 -1.50139730E+00 -5.66256709E+00
  2.97506908E+00 -1.21823655E+00 -5.13054032E+00  8.97525093E-01 -3.80739926E+00
 -2.75201157E+00 -1.44177891E+00  3.61621223E+00 -6.03770416E+00 -1.26790678E+00
  2.96364463E+00 -4.24690680E+00  1.55320598E+00  3.28219821E+00  5.83715845E+00
  3.43626588E+00  1.19296669E+00  3.93580040E+00  1.55410310E+00  3.21347369E+00
  2.54879864E+00  4.07296768E+00  1.46573880E+00  4.71638566E+00 -2.65095326E+00
 -2.61144358E-01
Num ILSW                                   I              100
ILSW                                       I   N=         100
           0           1           0           0           2           0
           0           0           0           0           0          -1
           0           0           0           0           0           0
           0           0           0           0           1           0
           1           0           0           0           0           0
           0           0      100000           0          -1           0
           0           0           0           0           0           0
           0           0           0           1           1           0
           0           0           1           0           0           0
           0           0           4          40           0           0
           0           0           0           0           0           0
           0           0           0           0           0           0
           0           0           0           0           0           0
           0           0           0           0           0           0
           0           0           0           0           0           0
           0           0           0           0           0           0
           0           0           0           0
Num RLSW                                   I               40
RLSW                                       R   N=          40
  1.00000000E+00  1.00000000E+00  1.00000000E+00  1.00000000E+00  1.00000000E+00
  0.00000000E+00  0.00000000E+00  1.00000000E+00  0.00000000E+00  0.00000000E+00
  0.00000000E+00  0.00000000E+00  1.00000000E+00  0.00000000E+00  0.00000000E+00
  0.00000000E+00  0.00000000E+00  1.00000000E+00  0.00000000E+00  0.00000000E+00
  0.00000000E+00  0.00000000E+00  1.00000000E+00  0.00000000E+00  0.00000000E+00
  0.00000000E+00  0.00000000E+00  1.00000000E+00  0.00000000E+00  0.00000000E+00
  0.00000000E+00  0.00000000E+00  0.00000000E+00  0.00000000E+00  0.00000000E+00
  0.00000000E+00  0.00000000E+00  0.00000000E+00  1.00000000E+00  1.00000000E+00
MxBond                                     I                4
NBond                                      I   N=          22
           2           1           3           4           4           4
           4           3           4           1           1           1
           1           1           1           1           1           1
           1           1           1           1
IBond                                      I   N=          88
           5          22           0           0           8           0
           0           0           4           8          11           0
           3           6           7          10           1           8
           9          12           4          13          14          15
           4          16          17          18           2           3
           5           0           5          19          20          21
           4           0           0           0           3           0
           0           0           5           0           0           0
           6           0           0           0           6           0
           0           0           6           0           0           0
           7           0           0           0           7           0
           0           0           7           0           0           0
           9           0           0           0           9           0
           0           0           9           0           0           0
           1           0           0           0
RBond                                      R   N=          88
  1.00000000E+00  1.00000000E+00  0.00000000E+00  0.00000000E+00  2.00000000E+00
  0.00000000E+00  0.00000000E+00  0.00000000E+00  1.00000000E+00  1.00000000E+00
  1.00000000E+00  0.00000000E+00  1.00000000E+00  1.00000000E+00  1.00000000E+00
  1.00000000E+00  1.00000000E+00  1.00000000E+00  1.00000000E+00  1.00000000E+00
  1.00000000E+00  1.00000000E+00  1.00000000E+00  1.00000000E+00  1.00000000E+00
  1.00000000E+00  1.00000000E+00  1.00000000E+00  2.00000000E+00  1.00000000E+00
  1.00000000E+00  0.00000000E+00  1.00000000E+00  1.00000000E+00  1.00000000E+00
  1.00000000E+00  1.00000000E+00  0.00000000E+00  0.00000000E+00  0.00000000E+00
  1.00000000E+00  0.00000000E+00  0.00000000E+00  0.00000000E+00  1.00000000E+00
  0.00000000E+00  0.00000000E+00  0.00000000E+00  1.00000000E+00  0.00000000E+00
  0.00000000E+00  0.00000000E+00  1.00000000E+00  0.00000000E+00  0.00000000E+00
  0.00000000E+00  1.00000000E+00  0.00000000E+00  0.00000000E+00  0.00000000E+00
  1.00000000E+00  0.00000000E+00  0.00000000E+00  0.00000000E+00  1.00000000E+00
  0.00000000E+00  0.00000000E+00  0.00000000E+00  1.00000000E+00  0.00000000E+00
  0.00000000E+00  0.00000000E+00  1.00000000E+00  0.00000000E+00  0.00000000E+00
  0.00000000E+00  1.00000000E+00  0.00000000E+00  0.00000000E+00  0.00000000E+00
  1.00000000E+00  0.00000000E+00  0.00000000E+00  0.00000000E+00  1.00000000E+00
  0.00000000E+00  0.00000000E+00  0.00000000E+00
Virial Ratio                               R      2.002279871588861E+00
SCF Energy                                 R     -4.389646729938469E+02
MP2 Energy                                 R     -4.402678914923122E+02
Total Energy                               R     -4.402678914923122E+02
Post-SCF wavefunction norm                 R      1.677925777220439E+00
RMS Force                                  R      8.730903413195029E-08
RMS Density                                R      2.005205875916697E-09
External E-field                           R   N=          35
  0.00000000E+00  0.00000000E+00  0.00000000E+00  0.00000000E+00  0.00000000E+00
  0.00000000E+00  0.00000000E+00  0.00000000E+00  0.00000000E+00  0.00000000E+00
  0.00000000E+00  0.00000000E+00  0.00000000E+00  0.00000000E+00  0.00000000E+00
  0.00000000E+00  0.00000000E+00  0.00000000E+00  0.00000000E+00  0.00000000E+00
  0.00000000E+00  0.00000000E+00  0.00000000E+00  0.00000000E+00  0.00000000E+00
  0.00000000E+00  0.00000000E+00  0.00000000E+00  0.00000000E+00  0.00000000E+00
  0.00000000E+00  0.00000000E+00  0.00000000E+00  0.00000000E+00  0.00000000E+00
IOpCl                                      I                0
IROHF                                      I                0
Alpha Orbital Energies                     R   N=         161
 -2.05505916E+01 -2.05389075E+01 -1.56007031E+01 -1.13603560E+01 -1.12961054E+01
 -1.12781163E+01 -1.12340949E+01 -1.12296039E+01 -1.12210035E+01 -1.39349338E+00
 -1.34155160E+00 -1.24522441E+00 -1.07092726E+00 -1.02279069E+00 -9.48960418E-01
 -8.92802971E-01 -8.20207088E-01 -7.93296932E-01 -7.34406190E-01 -6.75406977E-01
 -6.40767232E-01 -6.32104922E-01 -6.27571864E-01 -5.92661075E-01 -5.80032380E-01
 -5.69342832E-01 -5.54849654E-01 -5.47270890E-01 -5.34957330E-01 -5.26743112E-01
 -5.07562925E-01 -5.00179011E-01 -4.89972248E-01 -4.40229682E-01 -4.26790993E-01
 -3.96874277E-01  1.82422603E-01  1.99066295E-01  2.36195404E-01  2.63396439E-01
  2.79635655E-01  2.83250593E-01  2.91230428E-01  2.99623584E-01  3.06242694E-01
  3.20265347E-01  3.23367322E-01  3.27100799E-01  3.38790951E-01  3.46547885E-01
  3.73515588E-01  3.88742708E-01  4.05707104E-01  4.34858554E-01  4.42030709E-01
  4.91832056E-01  5.39231109E-01  5.93614788E-01  6.82481252E-01  7.07823025E-01
  7.21917869E-01  7.47686500E-01  7.69934838E-01  7.81205832E-01  8.00497380E-01
  8.00666915E-01  8.22816827E-01  8.67788124E-01  9.03915141E-01  9.18523116E-01
  9.41476792E-01  9.55730220E-01  9.59432142E-01  9.80878214E-01  1.02473057E+00
  1.02804585E+00  1.06614524E+00  1.09585337E+00  1.10259194E+00  1.12833793E+00
  1.13497162E+00  1.13783958E+00  1.14650191E+00  1.15106074E+00  1.17142104E+00
  1.17606105E+00  1.18420216E+00  1.18894097E+00  1.21170643E+00  1.21810636E+00
  1.22661947E+00  1.24634285E+00  1.26252284E+00  1.27393841E+00  1.32448664E+00
  1.34492097E+00  1.37293819E+00  1.41882007E+00  1.47343440E+00  1.51735422E+00
  1.54443900E+00  1.58980815E+00  1.63247718E+00  1.65454502E+00  1.69762918E+00
  1.71358059E+00  1.79635157E+00  1.81764521E+00  1.90940019E+00  1.93204962E+00
  1.96145865E+00  1.96758583E+00  2.02796740E+00  2.05536320E+00  2.07644734E+00
  2.10376365E+00  2.13498395E+00  2.14527628E+00  2.19175255E+00  2.20407801E+00