
    -----------------------------------------------------------------------
          Psi4: An Open-Source Ab Initio Electronic Structure Package
                               Psi4 1.3.2 release

                         Git: Rev {HEAD} ecbda83 


    R. M. Parrish, L. A. Burns, D. G. A. Smith, A. C. Simmonett,
    A. E. DePrince III, E. G. Hohenstein, U. Bozkaya, A. Yu. Sokolov,
    R. Di Remigio, R. M. Richard, J. F. Gonthier, A. M. James,
    H. R. McAlexander, A. Kumar, M. Saitow, X. Wang, B. P. Pritchard,
    P. Verma, H. F. Schaefer III, K. Patkowski, R. A. King, E. F. Valeev,
    F. A. Evangelista, J. M. Turney, T. D. Crawford, and C. D. Sherrill,
    J. Chem. Theory Comput. 13(7) pp 3185--3197 (2017).
    (doi: 10.1021/acs.jctc.7b00174)


                         Additional Contributions by
    P. Kraus, H. Kruse, M. H. Lechner, M. C. Schieber, R. A. Shaw,
    A. Alenaizan, R. Galvelis, Z. L. Glick, S. Lehtola, and J. P. Misiewicz

    -----------------------------------------------------------------------


    Psi4 started on: Monday, 01 February 2021 11:02PM

    Process ID: 3225916
    Host:       node88.bme.utexas.edu
    PSIDATADIR: /home/xy3866/psi4conda/share/psi4
    Memory:     500.0 MiB
    Threads:    8
    
  ==> Input File <==

--------------------------------------------------------------------------
#psi4
#
memory 32 gb

molecule  {
-1 1
  N       -0.3347890    -1.1274600     0.0000330
  N       -0.3348100     1.1274550     0.0000810
  N        1.1359347    -0.6074295    -0.0002125
  N        0.9473650     0.6741170    -0.0001350
  C       -1.0701170    -0.0000090     0.0001780
  H       -2.1552810    -0.0000190     0.0003550
units angstrom
no_reorient  #important for SAPT in psi4, default
symmetry c1  #important for SAPT in psi4, default
}

set PROPERTIES_ORIGIN ["COM"]
properties('MP2/aug-cc-pvtz', properties = ['dipole'])
--------------------------------------------------------------------------

  Memory set to  29.802 GiB by Python driver.
    SCF Algorithm Type (re)set to DF.

*** tstart() called on node88.bme.utexas.edu
*** at Mon Feb  1 23:02:32 2021

   => Loading Basis Set <=

    Name: AUG-CC-PVTZ
    Role: ORBITAL
    Keyword: BASIS
    atoms 1-4 entry N          line   281 file /home/xy3866/psi4conda/share/psi4/basis/aug-cc-pvtz.gbs 
    atoms 5   entry C          line   235 file /home/xy3866/psi4conda/share/psi4/basis/aug-cc-pvtz.gbs 
    atoms 6   entry H          line    36 file /home/xy3866/psi4conda/share/psi4/basis/aug-cc-pvtz.gbs 


         ---------------------------------------------------------
                                   SCF
               by Justin Turney, Rob Parrish, Andy Simmonett
                          and Daniel G. A. Smith
                              RHF Reference
                        8 Threads,  30517 MiB Core
         ---------------------------------------------------------

  ==> Geometry <==

    Molecular point group: c1
    Full point group: C1

    Geometry (in Angstrom), charge = -1, multiplicity = 1:

       Center              X                  Y                   Z               Mass       
    ------------   -----------------  -----------------  -----------------  -----------------
         N           -0.404081914967    -1.140986966042     0.000044242227    14.003074004430
         N           -0.404102914967     1.113928033958     0.000092242227    14.003074004430
         N            1.066641785033    -0.620956466042    -0.000201257773    14.003074004430
         N            0.878072085033     0.660590033958    -0.000123757773    14.003074004430
         C           -1.139409914967    -0.013535966042     0.000189242227    12.000000000000
         H           -2.224573914967    -0.013545966042     0.000366242227     1.007825032230

  Running in c1 symmetry.

  Rotational constants: A =      0.35874  B =      0.32422  C =      0.17030 [cm^-1]
  Rotational constants: A =  10754.62700  B =   9719.96490  C =   5105.57658 [MHz]
  Nuclear repulsion =  152.176442640341918

  Charge       = -1
  Multiplicity = 1
  Electrons    = 36
  Nalpha       = 18
  Nbeta        = 18

  ==> Algorithm <==

  SCF Algorithm Type is DF.
  DIIS enabled.
  MOM disabled.
  Fractional occupation disabled.
  Guess Type is SAD.
  Energy threshold   = 1.00e-10
  Density threshold  = 1.00e-10
  Integral threshold = 0.00e+00

  ==> Primary Basis <==

  Basis Set: AUG-CC-PVTZ
    Blend: AUG-CC-PVTZ
    Number of shells: 79
    Number of basis function: 253
    Number of Cartesian functions: 300
    Spherical Harmonics?: true
    Max angular momentum: 3

   => Loading Basis Set <=

    Name: (AUG-CC-PVTZ AUX)
    Role: JKFIT
    Keyword: DF_BASIS_SCF
    atoms 1-4 entry N          line   224 file /home/xy3866/psi4conda/share/psi4/basis/aug-cc-pvtz-jkfit.gbs 
    atoms 5   entry C          line   162 file /home/xy3866/psi4conda/share/psi4/basis/aug-cc-pvtz-jkfit.gbs 
    atoms 6   entry H          line    70 file /home/xy3866/psi4conda/share/psi4/basis/aug-cc-pvtz-jkfit.gbs 

  ==> Pre-Iterations <==

   -------------------------------------------------------
    Irrep   Nso     Nmo     Nalpha   Nbeta   Ndocc  Nsocc
   -------------------------------------------------------
     A        253     253       0       0       0       0
   -------------------------------------------------------
    Total     253     253      18      18      18       0
   -------------------------------------------------------

  ==> Integral Setup <==

  DFHelper Memory: AOs need 0.289 GiB; user supplied 22.352 GiB. Using in-core AOs.

  ==> MemDFJK: Density-Fitted J/K Matrices <==

    J tasked:                   Yes
    K tasked:                   Yes
    wK tasked:                   No
    OpenMP threads:               8
    Memory [MiB]:             22888
    Algorithm:                 Core
    Schwarz Cutoff:           1E-12
    Mask sparsity (%):       0.0531
    Fitting Condition:        1E-10

   => Auxiliary Basis Set <=

  Basis Set: (AUG-CC-PVTZ AUX)
    Blend: AUG-CC-PVTZ-JKFIT
    Number of shells: 164
    Number of basis function: 566
    Number of Cartesian functions: 710
    Spherical Harmonics?: true
    Max angular momentum: 4

  Minimum eigenvalue in the overlap matrix is 4.3242630918E-05.
  Using Symmetric Orthogonalization.

  SCF Guess: Superposition of Atomic Densities via on-the-fly atomic UHF.

  ==> Iterations <==

                           Total Energy        Delta E     RMS |[F,P]|

   @DF-RHF iter SAD:  -255.12564636021619   -2.55126e+02   0.00000e+00 
   @DF-RHF iter   1:  -256.16153102035719   -1.03588e+00   1.62446e-03 DIIS
   @DF-RHF iter   2:  -256.23813416821571   -7.66031e-02   9.14918e-04 DIIS
   @DF-RHF iter   3:  -256.25919941310082   -2.10652e-02   2.51551e-04 DIIS
   @DF-RHF iter   4:  -256.26140393251211   -2.20452e-03   9.57662e-05 DIIS
   @DF-RHF iter   5:  -256.26177962522627   -3.75693e-04   2.55510e-05 DIIS
   @DF-RHF iter   6:  -256.26182917102409   -4.95458e-05   1.12958e-05 DIIS
   @DF-RHF iter   7:  -256.26184270843237   -1.35374e-05   5.21070e-06 DIIS
   @DF-RHF iter   8:  -256.26184639446655   -3.68603e-06   2.82694e-06 DIIS
   @DF-RHF iter   9:  -256.26184722727834   -8.32812e-07   1.21885e-06 DIIS
   @DF-RHF iter  10:  -256.26184734380229   -1.16524e-07   3.33713e-07 DIIS
   @DF-RHF iter  11:  -256.26184735430923   -1.05069e-08   8.86532e-08 DIIS
   @DF-RHF iter  12:  -256.26184735501892   -7.09690e-10   4.09300e-08 DIIS
   @DF-RHF iter  13:  -256.26184735513874   -1.19826e-10   1.90580e-08 DIIS
   @DF-RHF iter  14:  -256.26184735517313   -3.43903e-11   7.26580e-09 DIIS
   @DF-RHF iter  15:  -256.26184735518120   -8.07177e-12   3.42240e-09 DIIS
   @DF-RHF iter  16:  -256.26184735518353   -2.33058e-12   1.94861e-09 DIIS
   @DF-RHF iter  17:  -256.26184735518427   -7.38964e-13   6.84477e-10 DIIS
   @DF-RHF iter  18:  -256.26184735518393    3.41061e-13   2.69282e-10 DIIS
   @DF-RHF iter  19:  -256.26184735518422   -2.84217e-13   1.19594e-10 DIIS
   @DF-RHF iter  20:  -256.26184735518393    2.84217e-13   5.35829e-11 DIIS
  Energy and wave function converged.


  ==> Post-Iterations <==

    Orbital Energies [Eh]
    ---------------------

    Doubly Occupied:                                                      

       1A    -15.438236     2A    -15.436315     3A    -15.385697  
       4A    -15.382493     5A    -11.100087     6A     -1.203625  
       7A     -0.957841     8A     -0.937793     9A     -0.642412  
      10A     -0.591660    11A     -0.470852    12A     -0.404698  
      13A     -0.358418    14A     -0.296952    15A     -0.249389  
      16A     -0.207929    17A     -0.201875    18A     -0.171007  

    Virtual:                                                              

      19A      0.130537    20A      0.187072    21A      0.203249  
      22A      0.205692    23A      0.232116    24A      0.237065  
      25A      0.256735    26A      0.286737    27A      0.292074  
      28A      0.294811    29A      0.295713    30A      0.309962  
      31A      0.318662    32A      0.333727    33A      0.341384  
      34A      0.356414    35A      0.360968    36A      0.367009  
      37A      0.393383    38A      0.407422    39A      0.437524  
      40A      0.450131    41A      0.461458    42A      0.463542  
      43A      0.470323    44A      0.496586    45A      0.504717  
      46A      0.546204    47A      0.578401    48A      0.593122  
      49A      0.611891    50A      0.614846    51A      0.659816  
      52A      0.674773    53A      0.683595    54A      0.711551  
      55A      0.712442    56A      0.726368    57A      0.743137  
      58A      0.743386    59A      0.760438    60A      0.791517  
      61A      0.806203    62A      0.814493    63A      0.815534  
      64A      0.820261    65A      0.825563    66A      0.849246  
      67A      0.859827    68A      0.880931    69A      0.888532  
      70A      0.903817    71A      0.905555    72A      0.964809  
      73A      0.990381    74A      0.991899    75A      0.999198  
      76A      1.031695    77A      1.031770    78A      1.069223  
      79A      1.078767    80A      1.106382    81A      1.108135  
      82A      1.122111    83A      1.149592    84A      1.162593  
      85A      1.184379    86A      1.202657    87A      1.223820  
      88A      1.234232    89A      1.263952    90A      1.270567  
      91A      1.311512    92A      1.323542    93A      1.365270  
      94A      1.387839    95A      1.393913    96A      1.418971  
      97A      1.466769    98A      1.502375    99A      1.505207  
     100A      1.514538   101A      1.529183   102A      1.583794  
     103A      1.587805   104A      1.619678   105A      1.669385  
     106A      1.681572   107A      1.687187   108A      1.712032  
     109A      1.740785   110A      1.792981   111A      1.803704  
     112A      1.809855   113A      1.838105   114A      1.869834  
     115A      1.893469   116A      1.898353   117A      1.914629  
     118A      1.924645   119A      1.952234   120A      1.954088  
     121A      2.057656   122A      2.066210   123A      2.098318  
     124A      2.120728   125A      2.136457   126A      2.148473  
     127A      2.157021   128A      2.196862   129A      2.204734  
     130A      2.221434   131A      2.246301   132A      2.291970  
     133A      2.292110   134A      2.335296   135A      2.336426  
     136A      2.366306   137A      2.390474   138A      2.441033  
     139A      2.468940   140A      2.473616   141A      2.487941  
     142A      2.491308   143A      2.544815   144A      2.578791  
     145A      2.591304   146A      2.606991   147A      2.663949  
     148A      2.682332   149A      2.700503   150A      2.719938  
     151A      2.750085   152A      2.760417   153A      2.834463  
     154A      2.869858   155A      2.905572   156A      2.923945  
     157A      2.972264   158A      3.064921   159A      3.168029  
     160A      3.183609   161A      3.304097   162A      3.308073  
     163A      3.329709   164A      3.388771   165A      3.494494  
     166A      3.558716   167A      3.605037   168A      3.612444  
     169A      3.715648   170A      3.725294   171A      3.752542  
     172A      3.894103   173A      3.930740   174A      3.982702  
     175A      4.050595   176A      4.053348   177A      4.090035  
     178A      4.135514   179A      4.193871   180A      4.204494  
     181A      4.224364   182A      4.284400   183A      4.375524  
     184A      4.377534   185A      4.474896   186A      4.487040  
     187A      4.542120   188A      4.670632   189A      4.693101  
     190A      4.781225   191A      4.788514   192A      4.801882  
     193A      4.890846   194A      4.903512   195A      4.936412  
     196A      4.965751   197A      4.974738   198A      5.021269  
     199A      5.076874   200A      5.099261   201A      5.102247  
     202A      5.117559   203A      5.254944   204A      5.255657  
     205A      5.279259   206A      5.308817   207A      5.338151  
     208A      5.434788   209A      5.469274   210A      5.526397  
     211A      5.566438   212A      5.578835   213A      5.590688  
     214A      5.631105   215A      5.639114   216A      5.699858  
     217A      5.723132   218A      5.745019   219A      5.776324  
     220A      5.796550   221A      5.808555   222A      5.882337  
     223A      5.891275   224A      5.899659   225A      5.923178  
     226A      5.946016   227A      5.981001   228A      5.981179  
     229A      6.035638   230A      6.068308   231A      6.168488  
     232A      6.196344   233A      6.212962   234A      6.238505  
     235A      6.328247   236A      6.370614   237A      6.454900  
     238A      6.481686   239A      6.560422   240A      6.658100  
     241A      6.778925   242A      6.829707   243A      6.843796  
     244A      6.987669   245A      7.088627   246A      7.259098  
     247A      7.382209   248A      7.815100   249A     13.640581  
     250A     14.027806   251A     14.983531   252A     15.190524  
     253A     16.657113  

    Final Occupation by Irrep:
              A 
    DOCC [    18 ]

  @DF-RHF Final Energy:  -256.26184735518393

   => Energetics <=

    Nuclear Repulsion Energy =            152.1764426403419179
    One-Electron Energy =                -658.0020203555178568
    Two-Electron Energy =                 249.5637303599920074
    Total Energy =                       -256.2618473551839315

Computation Completed

*** tstop() called on node88.bme.utexas.edu at Mon Feb  1 23:02:36 2021
Module time:
	user time   =      23.85 seconds =       0.40 minutes
	system time =       0.85 seconds =       0.01 minutes
	total time  =          4 seconds =       0.07 minutes
Total time:
	user time   =      23.85 seconds =       0.40 minutes
	system time =       0.85 seconds =       0.01 minutes
	total time  =          4 seconds =       0.07 minutes
   => Loading Basis Set <=

    Name: (AUG-CC-PVTZ AUX)
    Role: RIFIT
    Keyword: DF_BASIS_MP2
    atoms 1-4 entry N          line   206 file /home/xy3866/psi4conda/share/psi4/basis/aug-cc-pvtz-ri.gbs 
    atoms 5   entry C          line   148 file /home/xy3866/psi4conda/share/psi4/basis/aug-cc-pvtz-ri.gbs 
    atoms 6   entry H          line    30 file /home/xy3866/psi4conda/share/psi4/basis/aug-cc-pvtz-ri.gbs 


*** tstart() called on node88.bme.utexas.edu
*** at Mon Feb  1 23:02:36 2021


  //>>>>>>>>>>>>>>>>>>>>>>>>>>>>>>>>>>>//
  //               DFMP2               //
  //<<<<<<<<<<<<<<<<<<<<<<<<<<<<<<<<<<<//

	 --------------------------------------------------------
	                          DF-MP2                         
	      2nd-Order Density-Fitted Moller-Plesset Theory     
	              RMP2 Wavefunction,   8 Threads             
	                                                         
	        Rob Parrish, Justin Turney, Andy Simmonett,      
	           Ed Hohenstein, and C. David Sherrill          
	 --------------------------------------------------------

   => Auxiliary Basis Set <=

  Basis Set: (AUG-CC-PVTZ AUX)
    Blend: AUG-CC-PVTZ-RI
    Number of shells: 154
    Number of basis function: 576
    Number of Cartesian functions: 735
    Spherical Harmonics?: true
    Max angular momentum: 4

	 --------------------------------------------------------
	                 NBF =   253, NAUX =   576
	 --------------------------------------------------------
	   CLASS    FOCC     OCC    AOCC    AVIR     VIR    FVIR
	   PAIRS       0      18      18     235     235       0
	 --------------------------------------------------------

  DFHelper Memory: AOs need 0.289 GiB; user supplied 22.352 GiB. Using in-core AOs.


         ------------------------------------------------------------
                                     CPHF                           
                                  Rob Parrish                       
         ------------------------------------------------------------

  ==> Geometry <==

    Molecular point group: c1
    Full point group: C1

    Geometry (in Angstrom), charge = -1, multiplicity = 1:

       Center              X                  Y                   Z               Mass       
    ------------   -----------------  -----------------  -----------------  -----------------
         N           -0.404081914967    -1.140986966042     0.000044242227    14.003074004430
         N           -0.404102914967     1.113928033958     0.000092242227    14.003074004430
         N            1.066641785033    -0.620956466042    -0.000201257773    14.003074004430
         N            0.878072085033     0.660590033958    -0.000123757773    14.003074004430
         C           -1.139409914967    -0.013535966042     0.000189242227    12.000000000000
         H           -2.224573914967    -0.013545966042     0.000366242227     1.007825032230

  Nuclear repulsion =  152.176442640341918
  Reference energy  = -256.261847355183932

  ==> Basis Set <==

  Basis Set: AUG-CC-PVTZ
    Blend: AUG-CC-PVTZ
    Number of shells: 79
    Number of basis function: 253
    Number of Cartesian functions: 300
    Spherical Harmonics?: true
    Max angular momentum: 3

  ==> CGRSolver (by Rob Parrish) <==

   Number of roots    =         1
   Preconditioning    =    JACOBI
   Convergence cutoff =     1E-06
   Maximum iterations =       100

  ==> CPHFRHamiltonian (by Rob Parrish) <== 

  ==> MemDFJK: Density-Fitted J/K Matrices <==

    J tasked:                   Yes
    K tasked:                   Yes
    wK tasked:                   No
    OpenMP threads:               8
    Memory [MiB]:             22888
    Algorithm:                 Core
    Schwarz Cutoff:           1E-12
    Mask sparsity (%):       0.0531
    Fitting Condition:        1E-10

   => Auxiliary Basis Set <=

  Basis Set: (AUG-CC-PVTZ AUX)
    Blend: AUG-CC-PVTZ-JKFIT
    Number of shells: 164
    Number of basis function: 566
    Number of Cartesian functions: 710
    Spherical Harmonics?: true
    Max angular momentum: 4

  ==> CPHF Iterations <==

  => Iterations <=

             Iter  Converged  Remaining    Residual
  CGR           1          0          1   1.357E-01
  CGR           2          0          1   5.431E-02
  CGR           3          0          1   3.170E-02
  CGR           4          0          1   1.188E-02
  CGR           5          0          1   4.129E-03
  CGR           6          0          1   1.997E-03
  CGR           7          0          1   8.952E-04
  CGR           8          0          1   4.574E-04
  CGR           9          0          1   2.303E-04
  CGR          10          0          1   7.920E-05
  CGR          11          0          1   3.006E-05
  CGR          12          0          1   8.831E-06
  CGR          13          0          1   2.278E-06
  CGR          14          1          0   3.863E-07

    CGRSolver converged.

	-----------------------------------------------------------
	 ==================> DF-MP2 Energies <==================== 
	-----------------------------------------------------------
	 Reference Energy          =    -256.2618473551839315 [Eh]
	 Singles Energy            =      -0.0000000000000000 [Eh]
	 Same-Spin Energy          =      -0.2869532104078800 [Eh]
	 Opposite-Spin Energy      =      -0.8049436146807220 [Eh]
	 Correlation Energy        =      -1.0918968250886021 [Eh]
	 Total Energy              =    -257.3537441802725425 [Eh]
	-----------------------------------------------------------
	 ================> DF-SCS-MP2 Energies <================== 
	-----------------------------------------------------------
	 SCS Same-Spin Scale       =       0.3333333333333333 [-]
	 SCS Opposite-Spin Scale   =       1.2000000000000000 [-]
	 SCS Same-Spin Energy      =      -0.0956510701359600 [Eh]
	 SCS Opposite-Spin Energy  =      -0.9659323376168663 [Eh]
	 SCS Correlation Energy    =      -1.0615834077528263 [Eh]
	 SCS Total Energy          =    -257.3234307629367663 [Eh]
	-----------------------------------------------------------



Properties will be evaluated at  -0.000000,   0.000000,   0.000000 [a0]

Properties computed using the MP2 density matrix

  Nuclear Dipole Moment: [e a0]
     X:    -2.0888      Y:    -0.0127      Z:     0.0003

  Electronic Dipole Moment: [e a0]
     X:     1.2548      Y:     0.0916      Z:    -0.0002

  Dipole Moment: [e a0]
     X:    -0.8340      Y:     0.0788      Z:     0.0001     Total:     0.8377

  Dipole Moment: [D]
     X:    -2.1197      Y:     0.2004      Z:     0.0003     Total:     2.1292


*** tstop() called on node88.bme.utexas.edu at Mon Feb  1 23:02:44 2021
Module time:
	user time   =      48.00 seconds =       0.80 minutes
	system time =       1.43 seconds =       0.02 minutes
	total time  =          8 seconds =       0.13 minutes
Total time:
	user time   =      71.91 seconds =       1.20 minutes
	system time =       2.29 seconds =       0.04 minutes
	total time  =         12 seconds =       0.20 minutes

    Psi4 stopped on: Monday, 01 February 2021 11:02PM
    Psi4 wall time for execution: 0:00:12.25

*** Psi4 exiting successfully. Buy a developer a beer!
