
    -----------------------------------------------------------------------
          Psi4: An Open-Source Ab Initio Electronic Structure Package
                               Psi4 1.4a3.dev225 

                         Git: Rev {master} 7105e37 


    D. G. A. Smith, L. A. Burns, A. C. Simmonett, R. M. Parrish,
    M. C. Schieber, R. Galvelis, P. Kraus, H. Kruse, R. Di Remigio,
    A. Alenaizan, A. M. James, S. Lehtola, J. P. Misiewicz, M. Scheurer,
    R. A. Shaw, J. B. Schriber, Y. Xie, Z. L. Glick, D. A. Sirianni,
    J. S. O'Brien, J. M. Waldrop, A. Kumar, E. G. Hohenstein,
    B. P. Pritchard, B. R. Brooks, H. F. Schaefer III, A. Yu. Sokolov,
    K. Patkowski, A. E. DePrince III, U. Bozkaya, R. A. King,
    F. A. Evangelista, J. M. Turney, T. D. Crawford, C. D. Sherrill,
    J. Chem. Phys. 152(18) 184108 (2020). https://doi.org/10.1063/5.0006002

                            Additional Code Authors
    E. T. Seidl, C. L. Janssen, E. F. Valeev, M. L. Leininger,
    J. F. Gonthier, R. M. Richard, H. R. McAlexander, M. Saitow, X. Wang,
    P. Verma, and M. H. Lechner

             Previous Authors, Complete List of Code Contributors,
                       and Citations for Specific Modules
    https://github.com/psi4/psi4/blob/master/codemeta.json
    https://github.com/psi4/psi4/graphs/contributors
    http://psicode.org/psi4manual/master/introduction.html#citing-psifour

    -----------------------------------------------------------------------


    Psi4 started on: Saturday, 27 February 2021 11:07PM

    Process ID: 9687
    Host:       c402-103.stampede2.tacc.utexas.edu
    PSIDATADIR: /home1/07844/xy3866/miniconda3/envs/p4env/share/psi4
    Memory:     500.0 MiB
    Threads:    32
    
  ==> Input File <==

--------------------------------------------------------------------------
#psi4
#
memory 32 gb

molecule  {
0 1
  O       -2.5655710    -0.4559810    -0.0273220
  C       -0.3219540     0.2014800    -0.4424590
  C        0.8011690     1.2489480    -0.2099430
  C        0.2481280    -1.1299970     0.0738820
  C        2.0095579     0.4697266     0.3314032
  C        1.7579830    -0.9743980    -0.1079500
  C       -1.6233710     0.5871250     0.2278630
  H       -0.5227930     0.1057830    -1.5165510
  H        0.4809950     2.0448300     0.4733970
  H        1.0672970     1.7363810    -1.1533330
  H       -0.1801860    -1.9933440    -0.4418670
  H        0.0160370    -1.2410800     1.1417000
  H        1.9867890     0.4940190     1.4519300
  H        2.9643500     0.8718720     0.0334030
  H        2.0194460    -1.0766330    -1.1687710
  H        2.3431410    -1.7133200     0.4495090
  H       -1.9840770     1.5507320    -0.1638540
  H       -1.4499160     0.7092340     1.3093790
  H       -3.3958760    -0.2202110     0.4192690
units angstrom
no_reorient  #important for SAPT in psi4, default
symmetry c1  #important for SAPT in psi4, default
}

set PROPERTIES_ORIGIN ["COM"]
properties('MP2/aug-cc-pvtz', properties = ['dipole'])
--------------------------------------------------------------------------

  Memory set to  29.802 GiB by Python driver.
    SCF Algorithm Type (re)set to DF.

*** tstart() called on c402-103.stampede2.tacc.utexas.edu
*** at Sat Feb 27 23:07:53 2021

   => Loading Basis Set <=

    Name: AUG-CC-PVTZ
    Role: ORBITAL
    Keyword: BASIS
    atoms 1    entry O          line   331 file /home1/07844/xy3866/miniconda3/envs/p4env/share/psi4/basis/aug-cc-pvtz.gbs 
    atoms 2-7  entry C          line   239 file /home1/07844/xy3866/miniconda3/envs/p4env/share/psi4/basis/aug-cc-pvtz.gbs 
    atoms 8-19 entry H          line    40 file /home1/07844/xy3866/miniconda3/envs/p4env/share/psi4/basis/aug-cc-pvtz.gbs 


         ---------------------------------------------------------
                                   SCF
               by Justin Turney, Rob Parrish, Andy Simmonett
                          and Daniel G. A. Smith
                              RHF Reference
                       32 Threads,  30517 MiB Core
         ---------------------------------------------------------

  ==> Geometry <==

    Molecular point group: c1
    Full point group: C1

    Geometry (in Angstrom), charge = 0, multiplicity = 1:

       Center              X                  Y                   Z               Mass       
    ------------   -----------------  -----------------  -----------------  -----------------
         O           -2.533533944285    -0.444185728328    -0.016104763297    15.994914619570
         C           -0.289916944285     0.213275271672    -0.431241763297    12.000000000000
         C            0.833206055715     1.260743271672    -0.198725763297    12.000000000000
         C            0.280165055715    -1.118201728328     0.085099236703    12.000000000000
         C            2.041594955715     0.481521871672     0.342620436703    12.000000000000
         C            1.790020055715    -0.962602728328    -0.096732763297    12.000000000000
         C           -1.591333944285     0.598920271672     0.239080236703    12.000000000000
         H           -0.490755944285     0.117578271672    -1.505333763297     1.007825032230
         H            0.513032055715     2.056625271672     0.484614236703     1.007825032230
         H            1.099334055715     1.748176271672    -1.142115763297     1.007825032230
         H           -0.148148944285    -1.981548728328    -0.430649763297     1.007825032230
         H            0.048074055715    -1.229284728328     1.152917236703     1.007825032230
         H            2.018826055715     0.505814271672     1.463147236703     1.007825032230
         H            2.996387055715     0.883667271672     0.044620236703     1.007825032230
         H            2.051483055715    -1.064837728328    -1.157553763297     1.007825032230
         H            2.375178055715    -1.701524728328     0.460726236703     1.007825032230
         H           -1.952039944285     1.562527271672    -0.152636763297     1.007825032230
         H           -1.417878944285     0.721029271672     1.320596236703     1.007825032230
         H           -3.363838944285    -0.208415728328     0.430486236703     1.007825032230

  Running in c1 symmetry.

  Rotational constants: A =      0.18133  B =      0.05813  C =      0.04805 [cm^-1]
  Rotational constants: A =   5436.20236  B =   1742.62393  C =   1440.36365 [MHz]
  Nuclear repulsion =  324.886665067577951

  Charge       = 0
  Multiplicity = 1
  Electrons    = 56
  Nalpha       = 28
  Nbeta        = 28

  ==> Algorithm <==

  SCF Algorithm Type is DF.
  DIIS enabled.
  MOM disabled.
  Fractional occupation disabled.
  Guess Type is SAD.
  Energy threshold   = 1.00e-10
  Density threshold  = 1.00e-10
  Integral threshold = 1.00e-12

  ==> Primary Basis <==

  Basis Set: AUG-CC-PVTZ
    Blend: AUG-CC-PVTZ
    Number of shells: 206
    Number of basis functions: 598
    Number of Cartesian functions: 685
    Spherical Harmonics?: true
    Max angular momentum: 3

   => Loading Basis Set <=

    Name: (AUG-CC-PVTZ AUX)
    Role: JKFIT
    Keyword: DF_BASIS_SCF
    atoms 1    entry O          line   286 file /home1/07844/xy3866/miniconda3/envs/p4env/share/psi4/basis/aug-cc-pvtz-jkfit.gbs 
    atoms 2-7  entry C          line   162 file /home1/07844/xy3866/miniconda3/envs/p4env/share/psi4/basis/aug-cc-pvtz-jkfit.gbs 
    atoms 8-19 entry H          line    70 file /home1/07844/xy3866/miniconda3/envs/p4env/share/psi4/basis/aug-cc-pvtz-jkfit.gbs 

  ==> Integral Setup <==

  DFHelper Memory: AOs need 3.414 GiB; user supplied 22.352 GiB. Using in-core AOs.

  ==> MemDFJK: Density-Fitted J/K Matrices <==

    J tasked:                   Yes
    K tasked:                   Yes
    wK tasked:                   No
    OpenMP threads:              32
    Memory [MiB]:             22888
    Algorithm:                 Core
    Schwarz Cutoff:           1E-12
    Mask sparsity (%):       4.8473
    Fitting Condition:        1E-10

   => Auxiliary Basis Set <=

  Basis Set: (AUG-CC-PVTZ AUX)
    Blend: AUG-CC-PVTZ-JKFIT
    Number of shells: 378
    Number of basis functions: 1280
    Number of Cartesian functions: 1577
    Spherical Harmonics?: true
    Max angular momentum: 4

  Minimum eigenvalue in the overlap matrix is 1.8865219685E-06.
  Reciprocal condition number of the overlap matrix is 8.3771518574E-08.
    Using symmetric orthogonalization.

  ==> Pre-Iterations <==

  SCF Guess: Superposition of Atomic Densities via on-the-fly atomic UHF (no occupation information).

   -------------------------
    Irrep   Nso     Nmo    
   -------------------------
     A        598     598 
   -------------------------
    Total     598     598
   -------------------------

  ==> Iterations <==

                           Total Energy        Delta E     RMS |[F,P]|

   @DF-RHF iter SAD:  -309.00098010425211   -3.09001e+02   0.00000e+00 
   @DF-RHF iter   1:  -308.83866236614602    1.62318e-01   1.24225e-03 DIIS
   @DF-RHF iter   2:  -309.07254595471920   -2.33884e-01   7.20859e-04 DIIS
   @DF-RHF iter   3:  -309.15704880536094   -8.45029e-02   1.11420e-04 DIIS
   @DF-RHF iter   4:  -309.16104090852684   -3.99210e-03   2.52936e-05 DIIS
   @DF-RHF iter   5:  -309.16121736962418   -1.76461e-04   8.01918e-06 DIIS
   @DF-RHF iter   6:  -309.16123392226984   -1.65526e-05   2.34073e-06 DIIS
   @DF-RHF iter   7:  -309.16123539416753   -1.47190e-06   6.53732e-07 DIIS
   @DF-RHF iter   8:  -309.16123550632994   -1.12162e-07   1.72506e-07 DIIS
   @DF-RHF iter   9:  -309.16123551676685   -1.04369e-08   4.08673e-08 DIIS
   @DF-RHF iter  10:  -309.16123551755311   -7.86258e-10   1.19960e-08 DIIS
   @DF-RHF iter  11:  -309.16123551760830   -5.51950e-11   3.28241e-09 DIIS
   @DF-RHF iter  12:  -309.16123551761234   -4.03588e-12   8.33313e-10 DIIS
   @DF-RHF iter  13:  -309.16123551761211    2.27374e-13   2.77236e-10 DIIS
   @DF-RHF iter  14:  -309.16123551761291   -7.95808e-13   8.64264e-11 DIIS
  Energy and wave function converged.


  ==> Post-Iterations <==

    Orbital Energies [Eh]
    ---------------------

    Doubly Occupied:                                                      

       1A    -20.556291     2A    -11.271532     3A    -11.217117  
       4A    -11.215247     5A    -11.213889     6A    -11.210954  
       7A    -11.207125     8A     -1.352959     9A     -1.122136  
      10A     -0.997408    11A     -0.957408    12A     -0.873871  
      13A     -0.777288    14A     -0.754634    15A     -0.687649  
      16A     -0.651435    17A     -0.634576    18A     -0.620565  
      19A     -0.568679    20A     -0.560251    21A     -0.523614  
      22A     -0.476161    23A     -0.472376    24A     -0.464685  
      25A     -0.460568    26A     -0.453019    27A     -0.447399  
      28A     -0.431673  

    Virtual:                                                              

      29A      0.029352    30A      0.034404    31A      0.037110  
      32A      0.039217    33A      0.049759    34A      0.054087  
      35A      0.056589    36A      0.056842    37A      0.059253  
      38A      0.075096    39A      0.078040    40A      0.079365  
      41A      0.107311    42A      0.118089    43A      0.120146  
      44A      0.124131    45A      0.124879    46A      0.126926  
      47A      0.129858    48A      0.133137    49A      0.136487  
      50A      0.143624    51A      0.146242    52A      0.151575  
      53A      0.156555    54A      0.161926    55A      0.164943  
      56A      0.168845    57A      0.171935    58A      0.177160  
      59A      0.191056    60A      0.197396    61A      0.202574  
      62A      0.209999    63A      0.219238    64A      0.229495  
      65A      0.234274    66A      0.239427    67A      0.261345  
      68A      0.266442    69A      0.277549    70A      0.286032  
      71A      0.292396    72A      0.297641    73A      0.302082  
      74A      0.303349    75A      0.305810    76A      0.313743  
      77A      0.319968    78A      0.329590    79A      0.332883  
      80A      0.336060    81A      0.341644    82A      0.346102  
      83A      0.349707    84A      0.356245    85A      0.359853  
      86A      0.365489    87A      0.372502    88A      0.374881  
      89A      0.381291    90A      0.387149    91A      0.391112  
      92A      0.393667    93A      0.404016    94A      0.410097  
      95A      0.411645    96A      0.415453    97A      0.419581  
      98A      0.422817    99A      0.427766   100A      0.429995  
     101A      0.436350   102A      0.439349   103A      0.446800  
     104A      0.450014   105A      0.462433   106A      0.467859  
     107A      0.470821   108A      0.476996   109A      0.479292  
     110A      0.482354   111A      0.495455   112A      0.503101  
     113A      0.504485   114A      0.516529   115A      0.522383  
     116A      0.526069   117A      0.534364   118A      0.539646  
     119A      0.542784   120A      0.547028   121A      0.550632  
     122A      0.556115   123A      0.561489   124A      0.562679  
     125A      0.567082   126A      0.571440   127A      0.576941  
     128A      0.582394   129A      0.585507   130A      0.589342  
     131A      0.597898   132A      0.604467   133A      0.609942  
     134A      0.617803   135A      0.624112   136A      0.635126  
     137A      0.643433   138A      0.645406   139A      0.651205  
     140A      0.662884   141A      0.666138   142A      0.669755  
     143A      0.681878   144A      0.684069   145A      0.692917  
     146A      0.698791   147A      0.715465   148A      0.723575  
     149A      0.734198   150A      0.736439   151A      0.748107  
     152A      0.755679   153A      0.760086   154A      0.775327  
     155A      0.791787   156A      0.804716   157A      0.815954  
     158A      0.817256   159A      0.841798   160A      0.848110  
     161A      0.851488   162A      0.863788   163A      0.872293  
     164A      0.882522   165A      0.885875   166A      0.887368  
     167A      0.894341   168A      0.898543   169A      0.903796  
     170A      0.915230   171A      0.918226   172A      0.924433  
     173A      0.935675   174A      0.937787   175A      0.943436  
     176A      0.949573   177A      0.959396   178A      0.972050  
     179A      0.977468   180A      0.979219   181A      0.985818  
     182A      0.995118   183A      1.000120   184A      1.005737  
     185A      1.006699   186A      1.013844   187A      1.028815  
     188A      1.031659   189A      1.041517   190A      1.049458  
     191A      1.052772   192A      1.059316   193A      1.066688  
     194A      1.077701   195A      1.080589   196A      1.086455  
     197A      1.088975   198A      1.093801   199A      1.101350  
     200A      1.113284   201A      1.117163   202A      1.128553  
     203A      1.134360   204A      1.138369   205A      1.147546  
     206A      1.157022   207A      1.161064   208A      1.166454  
     209A      1.176759   210A      1.181780   211A      1.189947  
     212A      1.196372   213A      1.200598   214A      1.210367  
     215A      1.220141   216A      1.226479   217A      1.228172  
     218A      1.240452   219A      1.250172   220A      1.252864  
     221A      1.264331   222A      1.275223   223A      1.277978  
     224A      1.286755   225A      1.300862   226A      1.309566  
     227A      1.317039   228A      1.319854   229A      1.322802  
     230A      1.345270   231A      1.356690   232A      1.364842  
     233A      1.370342   234A      1.382797   235A      1.390977  
     236A      1.401151   237A      1.412661   238A      1.418248  
     239A      1.422217   240A      1.444435   241A      1.448777  
     242A      1.458264   243A      1.469360   244A      1.481141  
     245A      1.489679   246A      1.499221   247A      1.507821  
     248A      1.524520   249A      1.526143   250A      1.530549  
     251A      1.535782   252A      1.546503   253A      1.558399  
     254A      1.562827   255A      1.570377   256A      1.580696  
     257A      1.590996   258A      1.594611   259A      1.602615  
     260A      1.615633   261A      1.621733   262A      1.633028  
     263A      1.641145   264A      1.644199   265A      1.657694  
     266A      1.659752   267A      1.669199   268A      1.677030  
     269A      1.691465   270A      1.699982   271A      1.713053  
     272A      1.718132   273A      1.728034   274A      1.743488  
     275A      1.755405   276A      1.760237   277A      1.768702  
     278A      1.776846   279A      1.778414   280A      1.787989  
     281A      1.803797   282A      1.812121   283A      1.819895  
     284A      1.827954   285A      1.836563   286A      1.845701  
     287A      1.857914   288A      1.866640   289A      1.873327  
     290A      1.877740   291A      1.878578   292A      1.897742  
     293A      1.902352   294A      1.909652   295A      1.927557  
     296A      1.942417   297A      1.942568   298A      1.965900  
     299A      1.969748   300A      1.980504   301A      1.983129  
     302A      1.997791   303A      2.004717   304A      2.013524  
     305A      2.015310   306A      2.026260   307A      2.037575  
     308A      2.040592   309A      2.046077   310A      2.060221  
     311A      2.066921   312A      2.076524   313A      2.079364  
     314A      2.086312   315A      2.105545   316A      2.128065  
     317A      2.136189   318A      2.143226   319A      2.158905  
     320A      2.166567   321A      2.185153   322A      2.201253  
     323A      2.214005   324A      2.220968   325A      2.232402  
     326A      2.237713   327A      2.264285   328A      2.272581  
     329A      2.285372   330A      2.291470   331A      2.304932  
     332A      2.312941   333A      2.325579   334A      2.338321  
     335A      2.354576   336A      2.371704   337A      2.393168  
     338A      2.402966   339A      2.414895   340A      2.427785  
     341A      2.439569   342A      2.452470   343A      2.470567  
     344A      2.480988   345A      2.495483   346A      2.499561  
     347A      2.504997   348A      2.539071   349A      2.542162  
     350A      2.547456   351A      2.576667   352A      2.589511  
     353A      2.599161   354A      2.618930   355A      2.632703  
     356A      2.661763   357A      2.673813   358A      2.689566  
     359A      2.712356   360A      2.731950   361A      2.736372  
     362A      2.774387   363A      2.792286   364A      2.837202  
     365A      2.897153   366A      2.926578   367A      2.968457  
     368A      2.999364   369A      3.013419   370A      3.044262  
     371A      3.049647   372A      3.088640   373A      3.096751  
     374A      3.142582   375A      3.160583   376A      3.169376  
     377A      3.262092   378A      3.295611   379A      3.339647  
     380A      3.395358   381A      3.419668   382A      3.444084  
     383A      3.461301   384A      3.477058   385A      3.498192  
     386A      3.502970   387A      3.538983   388A      3.544491  
     389A      3.553247   390A      3.572732   391A      3.605749  
     392A      3.608579   393A      3.629195   394A      3.643433  
     395A      3.653193   396A      3.655255   397A      3.692088  
     398A      3.704064   399A      3.717887   400A      3.730792  
     401A      3.747373   402A      3.752692   403A      3.756603  
     404A      3.763548   405A      3.782764   406A      3.787893  
     407A      3.810262   408A      3.827397   409A      3.842501  
     410A      3.854656   411A      3.867592   412A      3.891637  
     413A      3.901048   414A      3.914971   415A      3.919809  
     416A      3.928224   417A      3.932089   418A      3.948432  
     419A      3.957519   420A      3.974540   421A      3.977733  
     422A      3.997934   423A      4.003616   424A      4.016357  
     425A      4.023035   426A      4.030291   427A      4.042992  
     428A      4.059785   429A      4.068189   430A      4.083035  
     431A      4.093195   432A      4.102360   433A      4.118897  
     434A      4.124304   435A      4.134262   436A      4.138504  
     437A      4.148769   438A      4.177992   439A      4.185738  
     440A      4.200069   441A      4.212772   442A      4.234385  
     443A      4.243224   444A      4.264075   445A      4.276783  
     446A      4.282555   447A      4.293060   448A      4.308670  
     449A      4.332179   450A      4.352560   451A      4.359334  
     452A      4.370096   453A      4.388420   454A      4.401581  
     455A      4.411062   456A      4.427026   457A      4.437005  
     458A      4.454721   459A      4.461342   460A      4.470599  
     461A      4.484616   462A      4.490827   463A      4.506305  
     464A      4.528832   465A      4.545217   466A      4.571808  
     467A      4.581126   468A      4.591739   469A      4.607137  
     470A      4.627334   471A      4.636248   472A      4.658109  
     473A      4.663840   474A      4.674980   475A      4.684106  
     476A      4.697229   477A      4.720433   478A      4.732079  
     479A      4.746584   480A      4.757611   481A      4.780364  
     482A      4.792230   483A      4.807530   484A      4.829614  
     485A      4.862348   486A      4.883531   487A      4.904515  
     488A      4.926485   489A      4.936897   490A      4.940757  
     491A      4.958755   492A      4.970930   493A      4.980160  
     494A      4.986243   495A      5.008189   496A      5.015138  
     497A      5.025351   498A      5.034592   499A      5.048297  
     500A      5.060057   501A      5.084406   502A      5.111486  
     503A      5.115056   504A      5.141174   505A      5.144047  
     506A      5.160050   507A      5.176792   508A      5.183637  
     509A      5.209455   510A      5.216651   511A      5.228991  
     512A      5.259097   513A      5.269461   514A      5.274902  
     515A      5.300048   516A      5.305262   517A      5.323363  
     518A      5.330570   519A      5.363239   520A      5.382851  
     521A      5.415108   522A      5.431548   523A      5.449366  
     524A      5.455375   525A      5.461668   526A      5.483576  
     527A      5.492495   528A      5.508071   529A      5.512311  
     530A      5.530230   531A      5.545145   532A      5.572521  
     533A      5.579126   534A      5.588298   535A      5.607902  
     536A      5.638134   537A      5.655507   538A      5.682515  
     539A      5.686634   540A      5.690849   541A      5.707071  
     542A      5.733612   543A      5.780112   544A      5.804452  
     545A      5.809330   546A      5.838324   547A      5.846969  
     548A      5.879715   549A      5.921199   550A      5.929689  
     551A      5.945762   552A      5.966475   553A      6.015402  
     554A      6.027783   555A      6.042010   556A      6.050262  
     557A      6.088089   558A      6.120153   559A      6.149210  
     560A      6.196686   561A      6.209470   562A      6.261446  
     563A      6.294864   564A      6.316612   565A      6.349978  
     566A      6.373063   567A      6.406093   568A      6.495636  
     569A      6.556967   570A      6.615611   571A      6.694413  
     572A      6.770341   573A      6.785532   574A      6.796666  
     575A      6.905166   576A      6.927693   577A      6.947004  
     578A      6.967460   579A      6.989846   580A      7.052891  
     581A      7.083267   582A      7.148552   583A      7.345549  
     584A      7.404315   585A      7.537993   586A      7.584065  
     587A      7.644497   588A      7.841721   589A      8.012421  
     590A      8.268650   591A      8.623255   592A     15.809283  
     593A     18.056629   594A     18.380495   595A     18.921766  
     596A     19.065608   597A     19.786660   598A     20.413651  

    Final Occupation by Irrep:
              A 
    DOCC [    28 ]

  @DF-RHF Final Energy:  -309.16123551761291

   => Energetics <=

    Nuclear Repulsion Energy =            324.8866650675779510
    One-Electron Energy =               -1063.7347855030236587
    Two-Electron Energy =                 429.6868849178327991
    Total Energy =                       -309.1612355176129086

Computation Completed

*** tstop() called on c402-103.stampede2.tacc.utexas.edu at Sat Feb 27 23:08:19 2021
Module time:
	user time   =     416.75 seconds =       6.95 minutes
	system time =      27.35 seconds =       0.46 minutes
	total time  =         26 seconds =       0.43 minutes
Total time:
	user time   =     416.75 seconds =       6.95 minutes
	system time =      27.35 seconds =       0.46 minutes
	total time  =         26 seconds =       0.43 minutes
   => Loading Basis Set <=

    Name: (AUG-CC-PVTZ AUX)
    Role: RIFIT
    Keyword: DF_BASIS_MP2
    atoms 1    entry O          line   264 file /home1/07844/xy3866/miniconda3/envs/p4env/share/psi4/basis/aug-cc-pvtz-ri.gbs 
    atoms 2-7  entry C          line   148 file /home1/07844/xy3866/miniconda3/envs/p4env/share/psi4/basis/aug-cc-pvtz-ri.gbs 
    atoms 8-19 entry H          line    30 file /home1/07844/xy3866/miniconda3/envs/p4env/share/psi4/basis/aug-cc-pvtz-ri.gbs 


*** tstart() called on c402-103.stampede2.tacc.utexas.edu
*** at Sat Feb 27 23:08:20 2021


  //>>>>>>>>>>>>>>>>>>>>>>>>>>>>>>>>>>>//
  //               DFMP2               //
  //<<<<<<<<<<<<<<<<<<<<<<<<<<<<<<<<<<<//

	 --------------------------------------------------------
	                          DF-MP2                         
	      2nd-Order Density-Fitted Moller-Plesset Theory     
	              RMP2 Wavefunction,  32 Threads             
	                                                         
	        Rob Parrish, Justin Turney, Andy Simmonett,      
	           Ed Hohenstein, and C. David Sherrill          
	 --------------------------------------------------------

   => Auxiliary Basis Set <=

  Basis Set: (AUG-CC-PVTZ AUX)
    Blend: AUG-CC-PVTZ-RI
    Number of shells: 364
    Number of basis functions: 1294
    Number of Cartesian functions: 1612
    Spherical Harmonics?: true
    Max angular momentum: 4

	 --------------------------------------------------------
	                 NBF =   598, NAUX =  1294
	 --------------------------------------------------------
	   CLASS    FOCC     OCC    AOCC    AVIR     VIR    FVIR
	   PAIRS       0      28      28     570     570       0
	 --------------------------------------------------------

  DFHelper Memory: AOs need 3.482 GiB; user supplied 22.352 GiB. Using in-core AOs.


         ------------------------------------------------------------
                                     CPHF                           
                                  Rob Parrish                       
         ------------------------------------------------------------

  ==> Geometry <==

    Molecular point group: c1
    Full point group: C1

    Geometry (in Angstrom), charge = 0, multiplicity = 1:

       Center              X                  Y                   Z               Mass       
    ------------   -----------------  -----------------  -----------------  -----------------
         O           -2.533533944285    -0.444185728328    -0.016104763297    15.994914619570
         C           -0.289916944285     0.213275271672    -0.431241763297    12.000000000000
         C            0.833206055715     1.260743271672    -0.198725763297    12.000000000000
         C            0.280165055715    -1.118201728328     0.085099236703    12.000000000000
         C            2.041594955715     0.481521871672     0.342620436703    12.000000000000
         C            1.790020055715    -0.962602728328    -0.096732763297    12.000000000000
         C           -1.591333944285     0.598920271672     0.239080236703    12.000000000000
         H           -0.490755944285     0.117578271672    -1.505333763297     1.007825032230
         H            0.513032055715     2.056625271672     0.484614236703     1.007825032230
         H            1.099334055715     1.748176271672    -1.142115763297     1.007825032230
         H           -0.148148944285    -1.981548728328    -0.430649763297     1.007825032230
         H            0.048074055715    -1.229284728328     1.152917236703     1.007825032230
         H            2.018826055715     0.505814271672     1.463147236703     1.007825032230
         H            2.996387055715     0.883667271672     0.044620236703     1.007825032230
         H            2.051483055715    -1.064837728328    -1.157553763297     1.007825032230
         H            2.375178055715    -1.701524728328     0.460726236703     1.007825032230
         H           -1.952039944285     1.562527271672    -0.152636763297     1.007825032230
         H           -1.417878944285     0.721029271672     1.320596236703     1.007825032230
         H           -3.363838944285    -0.208415728328     0.430486236703     1.007825032230

  Nuclear repulsion =  324.886665067577951
  Reference energy  = -309.161235517612909

  ==> Basis Set <==

  Basis Set: AUG-CC-PVTZ
    Blend: AUG-CC-PVTZ
    Number of shells: 206
    Number of basis functions: 598
    Number of Cartesian functions: 685
    Spherical Harmonics?: true
    Max angular momentum: 3

  ==> CGRSolver (by Rob Parrish) <==

   Number of roots    =         1
   Preconditioning    =    JACOBI
   Convergence cutoff =     1E-06
   Maximum iterations =       100

  ==> CPHFRHamiltonian (by Rob Parrish) <== 

  ==> MemDFJK: Density-Fitted J/K Matrices <==

    J tasked:                   Yes
    K tasked:                   Yes
    wK tasked:                   No
    OpenMP threads:              32
    Memory [MiB]:             22888
    Algorithm:                 Core
    Schwarz Cutoff:           1E-12
    Mask sparsity (%):       2.8747
    Fitting Condition:        1E-10

   => Auxiliary Basis Set <=

  Basis Set: (AUG-CC-PVTZ AUX)
    Blend: AUG-CC-PVTZ-JKFIT
    Number of shells: 378
    Number of basis functions: 1280
    Number of Cartesian functions: 1577
    Spherical Harmonics?: true
    Max angular momentum: 4

  ==> CPHF Iterations <==

  => Iterations <=

             Iter  Converged  Remaining    Residual
  CGR           1          0          1   8.462E-02
  CGR           2          0          1   1.664E-02
  CGR           3          0          1   5.723E-03
  CGR           4          0          1   1.607E-03
  CGR           5          0          1   4.894E-04
  CGR           6          0          1   1.538E-04
  CGR           7          0          1   4.176E-05
  CGR           8          0          1   8.872E-06
  CGR           9          0          1   2.799E-06
  CGR          10          1          0   6.992E-07

    CGRSolver converged.

	-----------------------------------------------------------
	 ==================> DF-MP2 Energies <==================== 
	-----------------------------------------------------------
	 Reference Energy          =    -309.1612355176129086 [Eh]
	 Singles Energy            =      -0.0000000000000000 [Eh]
	 Same-Spin Energy          =      -0.3223888228512908 [Eh]
	 Opposite-Spin Energy      =      -1.1095235636151224 [Eh]
	 Correlation Energy        =      -1.4319123864664132 [Eh]
	 Total Energy              =    -310.5931479040793306 [Eh]
	-----------------------------------------------------------
	 ================> DF-SCS-MP2 Energies <================== 
	-----------------------------------------------------------
	 SCS Same-Spin Scale       =       0.3333333333333333 [-]
	 SCS Opposite-Spin Scale   =       1.2000000000000000 [-]
	 SCS Same-Spin Energy      =      -0.1074629409504303 [Eh]
	 SCS Opposite-Spin Energy  =      -1.3314282763381469 [Eh]
	 SCS Correlation Energy    =      -1.4388912172885771 [Eh]
	 SCS Total Energy          =    -310.6001267349014938 [Eh]
	-----------------------------------------------------------



Properties will be evaluated at   0.000000,   0.000000,  -0.000000 [a0]

Properties computed using the MP2 density matrix

  Nuclear Dipole Moment: [e a0]
     X:     3.4843      Y:     1.3195      Z:     0.9082

  Electronic Dipole Moment: [e a0]
     X:    -3.5611      Y:    -0.8579      Z:    -0.6209

  Dipole Moment: [e a0]
     X:    -0.0768      Y:     0.4616      Z:     0.2873     Total:     0.5491

  Dipole Moment: [D]
     X:    -0.1953      Y:     1.1733      Z:     0.7302     Total:     1.3956


*** tstop() called on c402-103.stampede2.tacc.utexas.edu at Sat Feb 27 23:10:37 2021
Module time:
	user time   =    1203.75 seconds =      20.06 minutes
	system time =      34.55 seconds =       0.58 minutes
	total time  =        137 seconds =       2.28 minutes
Total time:
	user time   =    1621.44 seconds =      27.02 minutes
	system time =      61.92 seconds =       1.03 minutes
	total time  =        164 seconds =       2.73 minutes

    Psi4 stopped on: Saturday, 27 February 2021 11:10PM
    Psi4 wall time for execution: 0:02:45.35

*** Psi4 exiting successfully. Buy a developer a beer!
