
    -----------------------------------------------------------------------
          Psi4: An Open-Source Ab Initio Electronic Structure Package
                               Psi4 1.4a3.dev225 

                         Git: Rev {master} 7105e37 


    D. G. A. Smith, L. A. Burns, A. C. Simmonett, R. M. Parrish,
    M. C. Schieber, R. Galvelis, P. Kraus, H. Kruse, R. Di Remigio,
    A. Alenaizan, A. M. James, S. Lehtola, J. P. Misiewicz, M. Scheurer,
    R. A. Shaw, J. B. Schriber, Y. Xie, Z. L. Glick, D. A. Sirianni,
    J. S. O'Brien, J. M. Waldrop, A. Kumar, E. G. Hohenstein,
    B. P. Pritchard, B. R. Brooks, H. F. Schaefer III, A. Yu. Sokolov,
    K. Patkowski, A. E. DePrince III, U. Bozkaya, R. A. King,
    F. A. Evangelista, J. M. Turney, T. D. Crawford, C. D. Sherrill,
    J. Chem. Phys. 152(18) 184108 (2020). https://doi.org/10.1063/5.0006002

                            Additional Code Authors
    E. T. Seidl, C. L. Janssen, E. F. Valeev, M. L. Leininger,
    J. F. Gonthier, R. M. Richard, H. R. McAlexander, M. Saitow, X. Wang,
    P. Verma, and M. H. Lechner

             Previous Authors, Complete List of Code Contributors,
                       and Citations for Specific Modules
    https://github.com/psi4/psi4/blob/master/codemeta.json
    https://github.com/psi4/psi4/graphs/contributors
    http://psicode.org/psi4manual/master/introduction.html#citing-psifour

    -----------------------------------------------------------------------


    Psi4 started on: Saturday, 27 February 2021 09:53PM

    Process ID: 268620
    Host:       c402-103.stampede2.tacc.utexas.edu
    PSIDATADIR: /home1/07844/xy3866/miniconda3/envs/p4env/share/psi4
    Memory:     500.0 MiB
    Threads:    32
    
  ==> Input File <==

--------------------------------------------------------------------------
#psi4
#
memory 32 gb

molecule  {
0 1
  O       -2.5655710    -0.4559810    -0.0273220
  C       -0.3219540     0.2014800    -0.4424590
  C        0.8011690     1.2489480    -0.2099430
  C        0.2481280    -1.1299970     0.0738820
  C        2.0012720     0.4634390     0.3560030
  C        1.7579830    -0.9743980    -0.1079500
  C       -1.6233710     0.5871250     0.2278630
  H       -0.5227930     0.1057830    -1.5165510
  H        0.4809950     2.0448300     0.4733970
  H        1.1159175     1.8254331    -1.3256866
  H       -0.1801860    -1.9933440    -0.4418670
  H        0.0160370    -1.2410800     1.1417000
  H        1.9867890     0.4940190     1.4519300
  H        2.9643500     0.8718720     0.0334030
  H        2.0194460    -1.0766330    -1.1687710
  H        2.3431410    -1.7133200     0.4495090
  H       -1.9840770     1.5507320    -0.1638540
  H       -1.4499160     0.7092340     1.3093790
  H       -3.3958760    -0.2202110     0.4192690
units angstrom
no_reorient  #important for SAPT in psi4, default
symmetry c1  #important for SAPT in psi4, default
}

set PROPERTIES_ORIGIN ["COM"]
properties('MP2/aug-cc-pvtz', properties = ['dipole'])
--------------------------------------------------------------------------

  Memory set to  29.802 GiB by Python driver.
    SCF Algorithm Type (re)set to DF.

*** tstart() called on c402-103.stampede2.tacc.utexas.edu
*** at Sat Feb 27 21:53:54 2021

   => Loading Basis Set <=

    Name: AUG-CC-PVTZ
    Role: ORBITAL
    Keyword: BASIS
    atoms 1    entry O          line   331 file /home1/07844/xy3866/miniconda3/envs/p4env/share/psi4/basis/aug-cc-pvtz.gbs 
    atoms 2-7  entry C          line   239 file /home1/07844/xy3866/miniconda3/envs/p4env/share/psi4/basis/aug-cc-pvtz.gbs 
    atoms 8-19 entry H          line    40 file /home1/07844/xy3866/miniconda3/envs/p4env/share/psi4/basis/aug-cc-pvtz.gbs 


         ---------------------------------------------------------
                                   SCF
               by Justin Turney, Rob Parrish, Andy Simmonett
                          and Daniel G. A. Smith
                              RHF Reference
                       32 Threads,  30517 MiB Core
         ---------------------------------------------------------

  ==> Geometry <==

    Molecular point group: c1
    Full point group: C1

    Geometry (in Angstrom), charge = 0, multiplicity = 1:

       Center              X                  Y                   Z               Mass       
    ------------   -----------------  -----------------  -----------------  -----------------
         O           -2.533030093350    -0.444328578811    -0.017318638469    15.994914619570
         C           -0.289413093350     0.213132421189    -0.432455638469    12.000000000000
         C            0.833709906650     1.260600421189    -0.199939638469    12.000000000000
         C            0.280668906650    -1.118344578811     0.083885361531    12.000000000000
         C            2.033812906650     0.475091421189     0.366006361531    12.000000000000
         C            1.790523906650    -0.962745578811    -0.097946638469    12.000000000000
         C           -1.590830093350     0.598777421189     0.237866361531    12.000000000000
         H           -0.490252093350     0.117435421189    -1.506547638469     1.007825032230
         H            0.513535906650     2.056482421189     0.483400361531     1.007825032230
         H            1.148458406650     1.837085521189    -1.315683238469     1.007825032230
         H           -0.147645093350    -1.981691578811    -0.431863638469     1.007825032230
         H            0.048577906650    -1.229427578811     1.151703361531     1.007825032230
         H            2.019329906650     0.505671421189     1.461933361531     1.007825032230
         H            2.996890906650     0.883524421189     0.043406361531     1.007825032230
         H            2.051986906650    -1.064980578811    -1.158767638469     1.007825032230
         H            2.375681906650    -1.701667578811     0.459512361531     1.007825032230
         H           -1.951536093350     1.562384421189    -0.153850638469     1.007825032230
         H           -1.417375093350     0.720886421189     1.319382361531     1.007825032230
         H           -3.363335093350    -0.208558578811     0.429272361531     1.007825032230

  Running in c1 symmetry.

  Rotational constants: A =      0.17962  B =      0.05806  C =      0.04805 [cm^-1]
  Rotational constants: A =   5385.01848  B =   1740.60210  C =   1440.52473 [MHz]
  Nuclear repulsion =  324.018504575891882

  Charge       = 0
  Multiplicity = 1
  Electrons    = 56
  Nalpha       = 28
  Nbeta        = 28

  ==> Algorithm <==

  SCF Algorithm Type is DF.
  DIIS enabled.
  MOM disabled.
  Fractional occupation disabled.
  Guess Type is SAD.
  Energy threshold   = 1.00e-10
  Density threshold  = 1.00e-10
  Integral threshold = 1.00e-12

  ==> Primary Basis <==

  Basis Set: AUG-CC-PVTZ
    Blend: AUG-CC-PVTZ
    Number of shells: 206
    Number of basis functions: 598
    Number of Cartesian functions: 685
    Spherical Harmonics?: true
    Max angular momentum: 3

   => Loading Basis Set <=

    Name: (AUG-CC-PVTZ AUX)
    Role: JKFIT
    Keyword: DF_BASIS_SCF
    atoms 1    entry O          line   286 file /home1/07844/xy3866/miniconda3/envs/p4env/share/psi4/basis/aug-cc-pvtz-jkfit.gbs 
    atoms 2-7  entry C          line   162 file /home1/07844/xy3866/miniconda3/envs/p4env/share/psi4/basis/aug-cc-pvtz-jkfit.gbs 
    atoms 8-19 entry H          line    70 file /home1/07844/xy3866/miniconda3/envs/p4env/share/psi4/basis/aug-cc-pvtz-jkfit.gbs 

  ==> Integral Setup <==

  DFHelper Memory: AOs need 3.413 GiB; user supplied 22.352 GiB. Using in-core AOs.

  ==> MemDFJK: Density-Fitted J/K Matrices <==

    J tasked:                   Yes
    K tasked:                   Yes
    wK tasked:                   No
    OpenMP threads:              32
    Memory [MiB]:             22888
    Algorithm:                 Core
    Schwarz Cutoff:           1E-12
    Mask sparsity (%):       4.8909
    Fitting Condition:        1E-10

   => Auxiliary Basis Set <=

  Basis Set: (AUG-CC-PVTZ AUX)
    Blend: AUG-CC-PVTZ-JKFIT
    Number of shells: 378
    Number of basis functions: 1280
    Number of Cartesian functions: 1577
    Spherical Harmonics?: true
    Max angular momentum: 4

  Minimum eigenvalue in the overlap matrix is 1.9856895740E-06.
  Reciprocal condition number of the overlap matrix is 8.8692150121E-08.
    Using symmetric orthogonalization.

  ==> Pre-Iterations <==

  SCF Guess: Superposition of Atomic Densities via on-the-fly atomic UHF (no occupation information).

   -------------------------
    Irrep   Nso     Nmo    
   -------------------------
     A        598     598 
   -------------------------
    Total     598     598
   -------------------------

  ==> Iterations <==

                           Total Energy        Delta E     RMS |[F,P]|

   @DF-RHF iter SAD:  -308.89576105990255   -3.08896e+02   0.00000e+00 
   @DF-RHF iter   1:  -308.81338401212423    8.23770e-02   1.24706e-03 DIIS
   @DF-RHF iter   2:  -309.04806192942976   -2.34678e-01   7.40166e-04 DIIS
   @DF-RHF iter   3:  -309.13791178316575   -8.98499e-02   1.11542e-04 DIIS
   @DF-RHF iter   4:  -309.14206142723401   -4.14964e-03   2.45239e-05 DIIS
   @DF-RHF iter   5:  -309.14223749713040   -1.76070e-04   7.49951e-06 DIIS
   @DF-RHF iter   6:  -309.14225362942437   -1.61323e-05   2.12845e-06 DIIS
   @DF-RHF iter   7:  -309.14225497600205   -1.34658e-06   6.56997e-07 DIIS
   @DF-RHF iter   8:  -309.14225508654721   -1.10545e-07   1.92306e-07 DIIS
   @DF-RHF iter   9:  -309.14225509918532   -1.26381e-08   4.56251e-08 DIIS
   @DF-RHF iter  10:  -309.14225510017013   -9.84812e-10   1.33105e-08 DIIS
   @DF-RHF iter  11:  -309.14225510023601   -6.58815e-11   3.61344e-09 DIIS
   @DF-RHF iter  12:  -309.14225510024085   -4.83169e-12   9.09758e-10 DIIS
   @DF-RHF iter  13:  -309.14225510024170   -8.52651e-13   3.04202e-10 DIIS
   @DF-RHF iter  14:  -309.14225510024130    3.97904e-13   9.57696e-11 DIIS
  Energy and wave function converged.


  ==> Post-Iterations <==

    Orbital Energies [Eh]
    ---------------------

    Doubly Occupied:                                                      

       1A    -20.557413     2A    -11.272847     3A    -11.239209  
       4A    -11.219183     5A    -11.216217     6A    -11.212088  
       7A    -11.208529     8A     -1.354051     9A     -1.122304  
      10A     -0.999040    11A     -0.951898    12A     -0.871987  
      13A     -0.776840    14A     -0.751854    15A     -0.684379  
      16A     -0.648616    17A     -0.636608    18A     -0.619949  
      19A     -0.563538    20A     -0.557296    21A     -0.522771  
      22A     -0.475533    23A     -0.471862    24A     -0.464574  
      25A     -0.461202    26A     -0.456348    27A     -0.441757  
      28A     -0.426358  

    Virtual:                                                              

      29A      0.029103    30A      0.034534    31A      0.037142  
      32A      0.039062    33A      0.049889    34A      0.053923  
      35A      0.056394    36A      0.056970    37A      0.059261  
      38A      0.075284    39A      0.077722    40A      0.079125  
      41A      0.107094    42A      0.117956    43A      0.119758  
      44A      0.123853    45A      0.125068    46A      0.126722  
      47A      0.129394    48A      0.132810    49A      0.135864  
      50A      0.142947    51A      0.146178    52A      0.151308  
      53A      0.156241    54A      0.161892    55A      0.164807  
      56A      0.168472    57A      0.171577    58A      0.177318  
      59A      0.190440    60A      0.195533    61A      0.202037  
      62A      0.207484    63A      0.219764    64A      0.229092  
      65A      0.233672    66A      0.237350    67A      0.260315  
      68A      0.264662    69A      0.274710    70A      0.284275  
      71A      0.292376    72A      0.295780    73A      0.300009  
      74A      0.302905    75A      0.304748    76A      0.312685  
      77A      0.320132    78A      0.328956    79A      0.331299  
      80A      0.335293    81A      0.340868    82A      0.345098  
      83A      0.349118    84A      0.353229    85A      0.357711  
      86A      0.363398    87A      0.371821    88A      0.374029  
      89A      0.379716    90A      0.382034    91A      0.390305  
      92A      0.392087    93A      0.401752    94A      0.407323  
      95A      0.409755    96A      0.413520    97A      0.417530  
      98A      0.420392    99A      0.422744   100A      0.427720  
     101A      0.433159   102A      0.439418   103A      0.444593  
     104A      0.447898   105A      0.461356   106A      0.467020  
     107A      0.469719   108A      0.476754   109A      0.479310  
     110A      0.481606   111A      0.495310   112A      0.500212  
     113A      0.503328   114A      0.515124   115A      0.519392  
     116A      0.523727   117A      0.531966   118A      0.538544  
     119A      0.540517   120A      0.546112   121A      0.547474  
     122A      0.551001   123A      0.559287   124A      0.561760  
     125A      0.566327   126A      0.571411   127A      0.574472  
     128A      0.581259   129A      0.583446   130A      0.588524  
     131A      0.594629   132A      0.603258   133A      0.610644  
     134A      0.617319   135A      0.622572   136A      0.634766  
     137A      0.638141   138A      0.645516   139A      0.650257  
     140A      0.658561   141A      0.665128   142A      0.670105  
     143A      0.679888   144A      0.682748   145A      0.690259  
     146A      0.699081   147A      0.713930   148A      0.724215  
     149A      0.734161   150A      0.737215   151A      0.740952  
     152A      0.754546   153A      0.759599   154A      0.772315  
     155A      0.783284   156A      0.802298   157A      0.809700  
     158A      0.815773   159A      0.837043   160A      0.842998  
     161A      0.849548   162A      0.859405   163A      0.869382  
     164A      0.881795   165A      0.883811   166A      0.887837  
     167A      0.893456   168A      0.898148   169A      0.902005  
     170A      0.911442   171A      0.913826   172A      0.922929  
     173A      0.935107   174A      0.936716   175A      0.940349  
     176A      0.949173   177A      0.960726   178A      0.969450  
     179A      0.973331   180A      0.977188   181A      0.984952  
     182A      0.994469   183A      0.997625   184A      1.003156  
     185A      1.005102   186A      1.015285   187A      1.028380  
     188A      1.029976   189A      1.041099   190A      1.049892  
     191A      1.054710   192A      1.059180   193A      1.063699  
     194A      1.075759   195A      1.076988   196A      1.083220  
     197A      1.088697   198A      1.091890   199A      1.097905  
     200A      1.111423   201A      1.112495   202A      1.126426  
     203A      1.129148   204A      1.132139   205A      1.142911  
     206A      1.153564   207A      1.159612   208A      1.163059  
     209A      1.172317   210A      1.175503   211A      1.185320  
     212A      1.194478   213A      1.197652   214A      1.206772  
     215A      1.214671   216A      1.223209   217A      1.225142  
     218A      1.236359   219A      1.248358   220A      1.248936  
     221A      1.262019   222A      1.268417   223A      1.277515  
     224A      1.291204   225A      1.296179   226A      1.306278  
     227A      1.310399   228A      1.315595   229A      1.320131  
     230A      1.344866   231A      1.352901   232A      1.359501  
     233A      1.366354   234A      1.378268   235A      1.386349  
     236A      1.396038   237A      1.412469   238A      1.414680  
     239A      1.417294   240A      1.441168   241A      1.441550  
     242A      1.453574   243A      1.468646   244A      1.479202  
     245A      1.486988   246A      1.495296   247A      1.507647  
     248A      1.509838   249A      1.518296   250A      1.529418  
     251A      1.534188   252A      1.544825   253A      1.549228  
     254A      1.555795   255A      1.564281   256A      1.575606  
     257A      1.584748   258A      1.592177   259A      1.603246  
     260A      1.606438   261A      1.620246   262A      1.624366  
     263A      1.632147   264A      1.638846   265A      1.654703  
     266A      1.658078   267A      1.665213   268A      1.671160  
     269A      1.685020   270A      1.689489   271A      1.712350  
     272A      1.714821   273A      1.721910   274A      1.738159  
     275A      1.746232   276A      1.755641   277A      1.765465  
     278A      1.767550   279A      1.773775   280A      1.782310  
     281A      1.790592   282A      1.809238   283A      1.815441  
     284A      1.822573   285A      1.833379   286A      1.838351  
     287A      1.848878   288A      1.853097   289A      1.853803  
     290A      1.872948   291A      1.873899   292A      1.887137  
     293A      1.896498   294A      1.899480   295A      1.915165  
     296A      1.929327   297A      1.936617   298A      1.952647  
     299A      1.963800   300A      1.981117   301A      1.981984  
     302A      1.984862   303A      1.993271   304A      2.006256  
     305A      2.010725   306A      2.022432   307A      2.028647  
     308A      2.035217   309A      2.041027   310A      2.045362  
     311A      2.060201   312A      2.065894   313A      2.073095  
     314A      2.085423   315A      2.094655   316A      2.125230  
     317A      2.130484   318A      2.136040   319A      2.154030  
     320A      2.157429   321A      2.175981   322A      2.189371  
     323A      2.198423   324A      2.204706   325A      2.228646  
     326A      2.230919   327A      2.250960   328A      2.265278  
     329A      2.271653   330A      2.287260   331A      2.304514  
     332A      2.305125   333A      2.323968   334A      2.325465  
     335A      2.356244   336A      2.362694   337A      2.379627  
     338A      2.395473   339A      2.414499   340A      2.424104  
     341A      2.435236   342A      2.453551   343A      2.465051  
     344A      2.476958   345A      2.487872   346A      2.499660  
     347A      2.503695   348A      2.525553   349A      2.537117  
     350A      2.541429   351A      2.576465   352A      2.578417  
     353A      2.603433   354A      2.617786   355A      2.631674  
     356A      2.652819   357A      2.674176   358A      2.681449  
     359A      2.700228   360A      2.726462   361A      2.737639  
     362A      2.754616   363A      2.780997   364A      2.837799  
     365A      2.892332   366A      2.925960   367A      2.970162  
     368A      2.990506   369A      3.013183   370A      3.041713  
     371A      3.051675   372A      3.086407   373A      3.094203  
     374A      3.132003   375A      3.151362   376A      3.172066  
     377A      3.262187   378A      3.287217   379A      3.326545  
     380A      3.389538   381A      3.424852   382A      3.441988  
     383A      3.460540   384A      3.463665   385A      3.499341  
     386A      3.502030   387A      3.532962   388A      3.535309  
     389A      3.547036   390A      3.574038   391A      3.595542  
     392A      3.604274   393A      3.628509   394A      3.632683  
     395A      3.639199   396A      3.647506   397A      3.668297  
     398A      3.687024   399A      3.706963   400A      3.717513  
     401A      3.736277   402A      3.741304   403A      3.747958  
     404A      3.766839   405A      3.775890   406A      3.781061  
     407A      3.810033   408A      3.820795   409A      3.830670  
     410A      3.843445   411A      3.861635   412A      3.872825  
     413A      3.890368   414A      3.901651   415A      3.905641  
     416A      3.920639   417A      3.923251   418A      3.943162  
     419A      3.946820   420A      3.955801   421A      3.973893  
     422A      3.997651   423A      4.004866   424A      4.006014  
     425A      4.022213   426A      4.032115   427A      4.035828  
     428A      4.050027   429A      4.064313   430A      4.069788  
     431A      4.071738   432A      4.097823   433A      4.117415  
     434A      4.122577   435A      4.129792   436A      4.134754  
     437A      4.146002   438A      4.159715   439A      4.181108  
     440A      4.183075   441A      4.199489   442A      4.210745  
     443A      4.235234   444A      4.246175   445A      4.261471  
     446A      4.275754   447A      4.290997   448A      4.306122  
     449A      4.324543   450A      4.330766   451A      4.343210  
     452A      4.365489   453A      4.376678   454A      4.379009  
     455A      4.393025   456A      4.405620   457A      4.421179  
     458A      4.430205   459A      4.447710   460A      4.450644  
     461A      4.460141   462A      4.468514   463A      4.487804  
     464A      4.504520   465A      4.523820   466A      4.547920  
     467A      4.551984   468A      4.574860   469A      4.589202  
     470A      4.609920   471A      4.618223   472A      4.641380  
     473A      4.657811   474A      4.669987   475A      4.673778  
     476A      4.680709   477A      4.698033   478A      4.723601  
     479A      4.731572   480A      4.746943   481A      4.772636  
     482A      4.781661   483A      4.805466   484A      4.824893  
     485A      4.828379   486A      4.844831   487A      4.867866  
     488A      4.893774   489A      4.903005   490A      4.927274  
     491A      4.937694   492A      4.947276   493A      4.953874  
     494A      4.972634   495A      4.977310   496A      4.983831  
     497A      5.006124   498A      5.020978   499A      5.027850  
     500A      5.037287   501A      5.053811   502A      5.072320  
     503A      5.097030   504A      5.107607   505A      5.120191  
     506A      5.136967   507A      5.148500   508A      5.162889  
     509A      5.191258   510A      5.209163   511A      5.220254  
     512A      5.226015   513A      5.246558   514A      5.255578  
     515A      5.278183   516A      5.281513   517A      5.297198  
     518A      5.303379   519A      5.318196   520A      5.352050  
     521A      5.372713   522A      5.387743   523A      5.405367  
     524A      5.414221   525A      5.434026   526A      5.448011  
     527A      5.471976   528A      5.477995   529A      5.480673  
     530A      5.500659   531A      5.521270   532A      5.550471  
     533A      5.565362   534A      5.569907   535A      5.584722  
     536A      5.586464   537A      5.635586   538A      5.645706  
     539A      5.668333   540A      5.672916   541A      5.690019  
     542A      5.702259   543A      5.734267   544A      5.770614  
     545A      5.802400   546A      5.809043   547A      5.812540  
     548A      5.835942   549A      5.852050   550A      5.914974  
     551A      5.930889   552A      5.932389   553A      5.980260  
     554A      5.991988   555A      6.017502   556A      6.027522  
     557A      6.061004   558A      6.081855   559A      6.108798  
     560A      6.161258   561A      6.183538   562A      6.263080  
     563A      6.277687   564A      6.289557   565A      6.316561  
     566A      6.336617   567A      6.376698   568A      6.469407  
     569A      6.551363   570A      6.610095   571A      6.694704  
     572A      6.716712   573A      6.781154   574A      6.798293  
     575A      6.840421   576A      6.907565   577A      6.932284  
     578A      6.966381   579A      6.972115   580A      7.007731  
     581A      7.076634   582A      7.146076   583A      7.343653  
     584A      7.403174   585A      7.536289   586A      7.582518  
     587A      7.642368   588A      7.838853   589A      8.010751  
     590A      8.264479   591A      8.620858   592A     15.795194  
     593A     17.990211   594A     18.203690   595A     18.776337  
     596A     19.000982   597A     19.656261   598A     20.192601  

    Final Occupation by Irrep:
              A 
    DOCC [    28 ]

  @DF-RHF Final Energy:  -309.14225510024130

   => Energetics <=

    Nuclear Repulsion Energy =            324.0185045758918818
    One-Electron Energy =               -1061.9530221193640500
    Two-Electron Energy =                 428.7922624432308112
    Total Energy =                       -309.1422551002413002

Computation Completed

*** tstop() called on c402-103.stampede2.tacc.utexas.edu at Sat Feb 27 21:54:20 2021
Module time:
	user time   =     421.08 seconds =       7.02 minutes
	system time =      32.65 seconds =       0.54 minutes
	total time  =         26 seconds =       0.43 minutes
Total time:
	user time   =     421.08 seconds =       7.02 minutes
	system time =      32.65 seconds =       0.54 minutes
	total time  =         26 seconds =       0.43 minutes
   => Loading Basis Set <=

    Name: (AUG-CC-PVTZ AUX)
    Role: RIFIT
    Keyword: DF_BASIS_MP2
    atoms 1    entry O          line   264 file /home1/07844/xy3866/miniconda3/envs/p4env/share/psi4/basis/aug-cc-pvtz-ri.gbs 
    atoms 2-7  entry C          line   148 file /home1/07844/xy3866/miniconda3/envs/p4env/share/psi4/basis/aug-cc-pvtz-ri.gbs 
    atoms 8-19 entry H          line    30 file /home1/07844/xy3866/miniconda3/envs/p4env/share/psi4/basis/aug-cc-pvtz-ri.gbs 


*** tstart() called on c402-103.stampede2.tacc.utexas.edu
*** at Sat Feb 27 21:54:21 2021


  //>>>>>>>>>>>>>>>>>>>>>>>>>>>>>>>>>>>//
  //               DFMP2               //
  //<<<<<<<<<<<<<<<<<<<<<<<<<<<<<<<<<<<//

	 --------------------------------------------------------
	                          DF-MP2                         
	      2nd-Order Density-Fitted Moller-Plesset Theory     
	              RMP2 Wavefunction,  32 Threads             
	                                                         
	        Rob Parrish, Justin Turney, Andy Simmonett,      
	           Ed Hohenstein, and C. David Sherrill          
	 --------------------------------------------------------

   => Auxiliary Basis Set <=

  Basis Set: (AUG-CC-PVTZ AUX)
    Blend: AUG-CC-PVTZ-RI
    Number of shells: 364
    Number of basis functions: 1294
    Number of Cartesian functions: 1612
    Spherical Harmonics?: true
    Max angular momentum: 4

	 --------------------------------------------------------
	                 NBF =   598, NAUX =  1294
	 --------------------------------------------------------
	   CLASS    FOCC     OCC    AOCC    AVIR     VIR    FVIR
	   PAIRS       0      28      28     570     570       0
	 --------------------------------------------------------

  DFHelper Memory: AOs need 3.481 GiB; user supplied 22.352 GiB. Using in-core AOs.


         ------------------------------------------------------------
                                     CPHF                           
                                  Rob Parrish                       
         ------------------------------------------------------------

  ==> Geometry <==

    Molecular point group: c1
    Full point group: C1

    Geometry (in Angstrom), charge = 0, multiplicity = 1:

       Center              X                  Y                   Z               Mass       
    ------------   -----------------  -----------------  -----------------  -----------------
         O           -2.533030093350    -0.444328578811    -0.017318638469    15.994914619570
         C           -0.289413093350     0.213132421189    -0.432455638469    12.000000000000
         C            0.833709906650     1.260600421189    -0.199939638469    12.000000000000
         C            0.280668906650    -1.118344578811     0.083885361531    12.000000000000
         C            2.033812906650     0.475091421189     0.366006361531    12.000000000000
         C            1.790523906650    -0.962745578811    -0.097946638469    12.000000000000
         C           -1.590830093350     0.598777421189     0.237866361531    12.000000000000
         H           -0.490252093350     0.117435421189    -1.506547638469     1.007825032230
         H            0.513535906650     2.056482421189     0.483400361531     1.007825032230
         H            1.148458406650     1.837085521189    -1.315683238469     1.007825032230
         H           -0.147645093350    -1.981691578811    -0.431863638469     1.007825032230
         H            0.048577906650    -1.229427578811     1.151703361531     1.007825032230
         H            2.019329906650     0.505671421189     1.461933361531     1.007825032230
         H            2.996890906650     0.883524421189     0.043406361531     1.007825032230
         H            2.051986906650    -1.064980578811    -1.158767638469     1.007825032230
         H            2.375681906650    -1.701667578811     0.459512361531     1.007825032230
         H           -1.951536093350     1.562384421189    -0.153850638469     1.007825032230
         H           -1.417375093350     0.720886421189     1.319382361531     1.007825032230
         H           -3.363335093350    -0.208558578811     0.429272361531     1.007825032230

  Nuclear repulsion =  324.018504575891996
  Reference energy  = -309.142255100241300

  ==> Basis Set <==

  Basis Set: AUG-CC-PVTZ
    Blend: AUG-CC-PVTZ
    Number of shells: 206
    Number of basis functions: 598
    Number of Cartesian functions: 685
    Spherical Harmonics?: true
    Max angular momentum: 3

  ==> CGRSolver (by Rob Parrish) <==

   Number of roots    =         1
   Preconditioning    =    JACOBI
   Convergence cutoff =     1E-06
   Maximum iterations =       100

  ==> CPHFRHamiltonian (by Rob Parrish) <== 

  ==> MemDFJK: Density-Fitted J/K Matrices <==

    J tasked:                   Yes
    K tasked:                   Yes
    wK tasked:                   No
    OpenMP threads:              32
    Memory [MiB]:             22888
    Algorithm:                 Core
    Schwarz Cutoff:           1E-12
    Mask sparsity (%):       2.8926
    Fitting Condition:        1E-10

   => Auxiliary Basis Set <=

  Basis Set: (AUG-CC-PVTZ AUX)
    Blend: AUG-CC-PVTZ-JKFIT
    Number of shells: 378
    Number of basis functions: 1280
    Number of Cartesian functions: 1577
    Spherical Harmonics?: true
    Max angular momentum: 4

  ==> CPHF Iterations <==

  => Iterations <=

             Iter  Converged  Remaining    Residual
  CGR           1          0          1   8.743E-02
  CGR           2          0          1   1.722E-02
  CGR           3          0          1   5.924E-03
  CGR           4          0          1   1.680E-03
  CGR           5          0          1   5.198E-04
  CGR           6          0          1   1.624E-04
  CGR           7          0          1   4.366E-05
  CGR           8          0          1   9.185E-06
  CGR           9          0          1   2.911E-06
  CGR          10          1          0   7.193E-07

    CGRSolver converged.

	-----------------------------------------------------------
	 ==================> DF-MP2 Energies <==================== 
	-----------------------------------------------------------
	 Reference Energy          =    -309.1422551002413002 [Eh]
	 Singles Energy            =      -0.0000000000000000 [Eh]
	 Same-Spin Energy          =      -0.3223505547447298 [Eh]
	 Opposite-Spin Energy      =      -1.1110818310689887 [Eh]
	 Correlation Energy        =      -1.4334323858137186 [Eh]
	 Total Energy              =    -310.5756874860550170 [Eh]
	-----------------------------------------------------------
	 ================> DF-SCS-MP2 Energies <================== 
	-----------------------------------------------------------
	 SCS Same-Spin Scale       =       0.3333333333333333 [-]
	 SCS Opposite-Spin Scale   =       1.2000000000000000 [-]
	 SCS Same-Spin Energy      =      -0.1074501849149099 [Eh]
	 SCS Opposite-Spin Energy  =      -1.3332981972827864 [Eh]
	 SCS Correlation Energy    =      -1.4407483821976963 [Eh]
	 SCS Total Energy          =    -310.5830034824389827 [Eh]
	-----------------------------------------------------------



Properties will be evaluated at   0.000000,  -0.000000,  -0.000000 [a0]

Properties computed using the MP2 density matrix

  Nuclear Dipole Moment: [e a0]
     X:     3.5355      Y:     1.4014      Z:     0.7329

  Electronic Dipole Moment: [e a0]
     X:    -3.6293      Y:    -0.9909      Z:    -0.3875

  Dipole Moment: [e a0]
     X:    -0.0938      Y:     0.4105      Z:     0.3454     Total:     0.5446

  Dipole Moment: [D]
     X:    -0.2384      Y:     1.0435      Z:     0.8779     Total:     1.3843


*** tstop() called on c402-103.stampede2.tacc.utexas.edu at Sat Feb 27 21:56:40 2021
Module time:
	user time   =    1226.40 seconds =      20.44 minutes
	system time =      46.98 seconds =       0.78 minutes
	total time  =        139 seconds =       2.32 minutes
Total time:
	user time   =    1648.42 seconds =      27.47 minutes
	system time =      79.65 seconds =       1.33 minutes
	total time  =        166 seconds =       2.77 minutes

    Psi4 stopped on: Saturday, 27 February 2021 09:56PM
    Psi4 wall time for execution: 0:02:47.01

*** Psi4 exiting successfully. Buy a developer a beer!
