57906630                                                                
Freq      RMP2-FC                                                     6-31G(d)            
Number of atoms                            I               21
Info1-9                                    I   N=           9
          33          31        1002           0           0         100
           6           2           1
Charge                                     I                0
Multiplicity                               I                1
Number of electrons                        I               72
Number of alpha electrons                  I               36
Number of beta electrons                   I               36
Number of basis functions                  I              172
Number of independent functions            I              172
Number of point charges in /Mol/           I                0
Number of translation vectors              I                0
Atomic numbers                             I   N=          21
           7           6           6           6           6           6
           6           6           6           6           1           1
           1           1           1           1           1           1
           1           1           1
Nuclear charges                            R   N=          21
  7.00000000E+00  6.00000000E+00  6.00000000E+00  6.00000000E+00  6.00000000E+00
  6.00000000E+00  6.00000000E+00  6.00000000E+00  6.00000000E+00  6.00000000E+00
  1.00000000E+00  1.00000000E+00  1.00000000E+00  1.00000000E+00  1.00000000E+00
  1.00000000E+00  1.00000000E+00  1.00000000E+00  1.00000000E+00  1.00000000E+00
  1.00000000E+00
Current cartesian coordinates              R   N=          63
  3.53717631E-01 -1.72188527E+00 -4.42241577E-06  3.93943795E+00  1.08341739E+00
 -6.51661564E-06  5.59948822E+00 -7.63486560E-01 -1.41242273E+00  5.59948657E+00
 -7.63471778E-01  1.41243212E+00  1.16764916E+00  6.92289541E-01 -5.22082552E-06
 -5.20144925E-01  2.73355206E+00 -2.97645595E-06 -3.10662134E+00  2.26507511E+00
  1.60699948E-06 -3.98469551E+00 -2.29701478E-01  5.50484514E-06 -2.15049066E+00
 -2.13272109E+00  1.63372065E-06 -6.76040404E+00 -8.41407785E-01  1.71778373E-07
  4.54229335E+00  3.04823378E+00 -1.65094353E-05  7.23343052E+00 -1.44746502E-02
 -2.40071013E+00  4.62090080E+00 -2.30303638E+00 -2.34698984E+00  4.62090175E+00
 -2.30301218E+00  2.34701761E+00  7.23342773E+00 -1.44480638E-02  2.40071286E+00
  1.96467379E-01  4.65998505E+00 -4.74680967E-06 -4.44274553E+00  3.83120471E+00
  2.82437589E-06 -2.72484010E+00 -4.11252091E+00  3.38985701E-06 -7.69705211E+00
 -5.73189489E-02  1.66917954E+00 -7.06402505E+00 -2.88523374E+00  7.86317247E-05
 -7.69701475E+00 -5.74542141E-02 -1.66926426E+00
Force Field                                I                0
Int Atom Types                             I   N=          21
           0           0           0           0           0           0
           0           0           0           0           0           0
           0           0           0           0           0           0
           0           0           0
MM charges                                 R   N=          21
  0.00000000E+00  0.00000000E+00  0.00000000E+00  0.00000000E+00  0.00000000E+00
  0.00000000E+00  0.00000000E+00  0.00000000E+00  0.00000000E+00  0.00000000E+00
  0.00000000E+00  0.00000000E+00  0.00000000E+00  0.00000000E+00  0.00000000E+00
  0.00000000E+00  0.00000000E+00  0.00000000E+00  0.00000000E+00  0.00000000E+00
  0.00000000E+00
Integer atomic weights                     I   N=          21
          14          12          12          12          12          12
          12          12          12          12           1           1
           1           1           1           1           1           1
           1           1           1
Real atomic weights                        R   N=          21
  1.40030740E+01  1.20000000E+01  1.20000000E+01  1.20000000E+01  1.20000000E+01
  1.20000000E+01  1.20000000E+01  1.20000000E+01  1.20000000E+01  1.20000000E+01
  1.00782504E+00  1.00782504E+00  1.00782504E+00  1.00782504E+00  1.00782504E+00
  1.00782504E+00  1.00782504E+00  1.00782504E+00  1.00782504E+00  1.00782504E+00
  1.00782504E+00
Atom fragment info                         I   N=          21
           0           0           0           0           0           0
           0           0           0           0           0           0
           0           0           0           0           0           0
           0           0           0
Atom residue num                           I   N=          21
           0           0           0           0           0           0
           0           0           0           0           0           0
           0           0           0           0           0           0
           0           0           0
Nuclear spins                              I   N=          21
           2           0           0           0           0           0
           0           0           0           0           1           1
           1           1           1           1           1           1
           1           1           1
Nuclear ZEff                               R   N=          21
 -4.55000000E+00 -3.60000000E+00 -3.60000000E+00 -3.60000000E+00 -3.60000000E+00
 -3.60000000E+00 -3.60000000E+00 -3.60000000E+00 -3.60000000E+00 -3.60000000E+00
 -1.00000000E+00 -1.00000000E+00 -1.00000000E+00 -1.00000000E+00 -1.00000000E+00
 -1.00000000E+00 -1.00000000E+00 -1.00000000E+00 -1.00000000E+00 -1.00000000E+00
 -1.00000000E+00
Nuclear QMom                               R   N=          21
  2.04400000E+00  0.00000000E+00  0.00000000E+00  0.00000000E+00  0.00000000E+00
  0.00000000E+00  0.00000000E+00  0.00000000E+00  0.00000000E+00  0.00000000E+00
  0.00000000E+00  0.00000000E+00  0.00000000E+00  0.00000000E+00  0.00000000E+00
  0.00000000E+00  0.00000000E+00  0.00000000E+00  0.00000000E+00  0.00000000E+00
  0.00000000E+00
Nuclear GFac                               R   N=          21
  4.03761000E-01  0.00000000E+00  0.00000000E+00  0.00000000E+00  0.00000000E+00
  0.00000000E+00  0.00000000E+00  0.00000000E+00  0.00000000E+00  0.00000000E+00
  2.79284600E+00  2.79284600E+00  2.79284600E+00  2.79284600E+00  2.79284600E+00
  2.79284600E+00  2.79284600E+00  2.79284600E+00  2.79284600E+00  2.79284600E+00
  2.79284600E+00
MicOpt                                     I   N=          21
          -1          -1          -1          -1          -1          -1
          -1          -1          -1          -1          -1          -1
          -1          -1          -1          -1          -1          -1
          -1          -1          -1
Number of contracted shells                I               62
Number of primitive shells                 I              154
Pure/Cartesian d shells                    I                1
Pure/Cartesian f shells                    I                0
Highest angular momentum                   I                2
Largest degree of contraction              I                6
Shell types                                I   N=          62
           0          -1          -1           2           0          -1
          -1           2           0          -1          -1           2
           0          -1          -1           2           0          -1
          -1           2           0          -1          -1           2
           0          -1          -1           2           0          -1
          -1           2           0          -1          -1           2
           0          -1          -1           2           0           0
           0           0           0           0           0           0
           0           0           0           0           0           0
           0           0           0           0           0           0
           0           0
Number of primitives per shell             I   N=          62
           6           3           1           1           6           3
           1           1           6           3           1           1
           6           3           1           1           6           3
           1           1           6           3           1           1
           6           3           1           1           6           3
           1           1           6           3           1           1
           6           3           1           1           3           1
           3           1           3           1           3           1
           3           1           3           1           3           1
           3           1           3           1           3           1
           3           1
Shell to atom map                          I   N=          62
           1           1           1           1           2           2
           2           2           3           3           3           3
           4           4           4           4           5           5
           5           5           6           6           6           6
           7           7           7           7           8           8
           8           8           9           9           9           9
          10          10          10          10          11          11
          12          12          13          13          14          14
          15          15          16          16          17          17
          18          18          19          19          20          20
          21          21
Primitive exponents                        R   N=         154
  4.17351146E+03  6.27457911E+02  1.42902093E+02  4.02343293E+01  1.28202129E+01
  4.39043701E+00  1.16263619E+01  2.71627981E+00  7.72218397E-01  2.12031498E-01
  8.00000000E-01  3.04752488E+03  4.57369518E+02  1.03948685E+02  2.92101553E+01
  9.28666296E+00  3.16392696E+00  7.86827235E+00  1.88128854E+00  5.44249258E-01
  1.68714478E-01  8.00000000E-01  3.04752488E+03  4.57369518E+02  1.03948685E+02
  2.92101553E+01  9.28666296E+00  3.16392696E+00  7.86827235E+00  1.88128854E+00
  5.44249258E-01  1.68714478E-01  8.00000000E-01  3.04752488E+03  4.57369518E+02
  1.03948685E+02  2.92101553E+01  9.28666296E+00  3.16392696E+00  7.86827235E+00
  1.88128854E+00  5.44249258E-01  1.68714478E-01  8.00000000E-01  3.04752488E+03
  4.57369518E+02  1.03948685E+02  2.92101553E+01  9.28666296E+00  3.16392696E+00
  7.86827235E+00  1.88128854E+00  5.44249258E-01  1.68714478E-01  8.00000000E-01
  3.04752488E+03  4.57369518E+02  1.03948685E+02  2.92101553E+01  9.28666296E+00
  3.16392696E+00  7.86827235E+00  1.88128854E+00  5.44249258E-01  1.68714478E-01
  8.00000000E-01  3.04752488E+03  4.57369518E+02  1.03948685E+02  2.92101553E+01
  9.28666296E+00  3.16392696E+00  7.86827235E+00  1.88128854E+00  5.44249258E-01
  1.68714478E-01  8.00000000E-01  3.04752488E+03  4.57369518E+02  1.03948685E+02
  2.92101553E+01  9.28666296E+00  3.16392696E+00  7.86827235E+00  1.88128854E+00
  5.44249258E-01  1.68714478E-01  8.00000000E-01  3.04752488E+03  4.57369518E+02
  1.03948685E+02  2.92101553E+01  9.28666296E+00  3.16392696E+00  7.86827235E+00
  1.88128854E+00  5.44249258E-01  1.68714478E-01  8.00000000E-01  3.04752488E+03
  4.57369518E+02  1.03948685E+02  2.92101553E+01  9.28666296E+00  3.16392696E+00
  7.86827235E+00  1.88128854E+00  5.44249258E-01  1.68714478E-01  8.00000000E-01
  1.87311370E+01  2.82539436E+00  6.40121692E-01  1.61277759E-01  1.87311370E+01
  2.82539436E+00  6.40121692E-01  1.61277759E-01  1.87311370E+01  2.82539436E+00
  6.40121692E-01  1.61277759E-01  1.87311370E+01  2.82539436E+00  6.40121692E-01
  1.61277759E-01  1.87311370E+01  2.82539436E+00  6.40121692E-01  1.61277759E-01
  1.87311370E+01  2.82539436E+00  6.40121692E-01  1.61277759E-01  1.87311370E+01
  2.82539436E+00  6.40121692E-01  1.61277759E-01  1.87311370E+01  2.82539436E+00
  6.40121692E-01  1.61277759E-01  1.87311370E+01  2.82539436E+00  6.40121692E-01
  1.61277759E-01  1.87311370E+01  2.82539436E+00  6.40121692E-01  1.61277759E-01
  1.87311370E+01  2.82539436E+00  6.40121692E-01  1.61277759E-01
Contraction coefficients                   R   N=         154
  1.83477216E-03  1.39946270E-02  6.85865518E-02  2.32240873E-01  4.69069948E-01
  3.60455199E-01 -1.14961182E-01 -1.69117479E-01  1.14585195E+00  1.00000000E+00
  1.00000000E+00  1.83473713E-03  1.40373228E-02  6.88426223E-02  2.32184443E-01
  4.67941348E-01  3.62311985E-01 -1.19332420E-01 -1.60854152E-01  1.14345644E+00
  1.00000000E+00  1.00000000E+00  1.83473713E-03  1.40373228E-02  6.88426223E-02
  2.32184443E-01  4.67941348E-01  3.62311985E-01 -1.19332420E-01 -1.60854152E-01
  1.14345644E+00  1.00000000E+00  1.00000000E+00  1.83473713E-03  1.40373228E-02
  6.88426223E-02  2.32184443E-01  4.67941348E-01  3.62311985E-01 -1.19332420E-01
 -1.60854152E-01  1.14345644E+00  1.00000000E+00  1.00000000E+00  1.83473713E-03
  1.40373228E-02  6.88426223E-02  2.32184443E-01  4.67941348E-01  3.62311985E-01
 -1.19332420E-01 -1.60854152E-01  1.14345644E+00  1.00000000E+00  1.00000000E+00
  1.83473713E-03  1.40373228E-02  6.88426223E-02  2.32184443E-01  4.67941348E-01
  3.62311985E-01 -1.19332420E-01 -1.60854152E-01  1.14345644E+00  1.00000000E+00
  1.00000000E+00  1.83473713E-03  1.40373228E-02  6.88426223E-02  2.32184443E-01
  4.67941348E-01  3.62311985E-01 -1.19332420E-01 -1.60854152E-01  1.14345644E+00
  1.00000000E+00  1.00000000E+00  1.83473713E-03  1.40373228E-02  6.88426223E-02
  2.32184443E-01  4.67941348E-01  3.62311985E-01 -1.19332420E-01 -1.60854152E-01
  1.14345644E+00  1.00000000E+00  1.00000000E+00  1.83473713E-03  1.40373228E-02
  6.88426223E-02  2.32184443E-01  4.67941348E-01  3.62311985E-01 -1.19332420E-01
 -1.60854152E-01  1.14345644E+00  1.00000000E+00  1.00000000E+00  1.83473713E-03
  1.40373228E-02  6.88426223E-02  2.32184443E-01  4.67941348E-01  3.62311985E-01
 -1.19332420E-01 -1.60854152E-01  1.14345644E+00  1.00000000E+00  1.00000000E+00
  3.34946043E-02  2.34726953E-01  8.13757326E-01  1.00000000E+00  3.34946043E-02
  2.34726953E-01  8.13757326E-01  1.00000000E+00  3.34946043E-02  2.34726953E-01
  8.13757326E-01  1.00000000E+00  3.34946043E-02  2.34726953E-01  8.13757326E-01
  1.00000000E+00  3.34946043E-02  2.34726953E-01  8.13757326E-01  1.00000000E+00
  3.34946043E-02  2.34726953E-01  8.13757326E-01  1.00000000E+00  3.34946043E-02
  2.34726953E-01  8.13757326E-01  1.00000000E+00  3.34946043E-02  2.34726953E-01
  8.13757326E-01  1.00000000E+00  3.34946043E-02  2.34726953E-01  8.13757326E-01
  1.00000000E+00  3.34946043E-02  2.34726953E-01  8.13757326E-01  1.00000000E+00
  3.34946043E-02  2.34726953E-01  8.13757326E-01  1.00000000E+00
P(S=P) Contraction coefficients            R   N=         154
  0.00000000E+00  0.00000000E+00  0.00000000E+00  0.00000000E+00  0.00000000E+00
  0.00000000E+00  6.75797439E-02  3.23907296E-01  7.40895140E-01  1.00000000E+00
  0.00000000E+00  0.00000000E+00  0.00000000E+00  0.00000000E+00  0.00000000E+00
  0.00000000E+00  0.00000000E+00  6.89990666E-02  3.16423961E-01  7.44308291E-01
  1.00000000E+00  0.00000000E+00  0.00000000E+00  0.00000000E+00  0.00000000E+00
  0.00000000E+00  0.00000000E+00  0.00000000E+00  6.89990666E-02  3.16423961E-01
  7.44308291E-01  1.00000000E+00  0.00000000E+00  0.00000000E+00  0.00000000E+00
  0.00000000E+00  0.00000000E+00  0.00000000E+00  0.00000000E+00  6.89990666E-02
  3.16423961E-01  7.44308291E-01  1.00000000E+00  0.00000000E+00  0.00000000E+00
  0.00000000E+00  0.00000000E+00  0.00000000E+00  0.00000000E+00  0.00000000E+00
  6.89990666E-02  3.16423961E-01  7.44308291E-01  1.00000000E+00  0.00000000E+00
  0.00000000E+00  0.00000000E+00  0.00000000E+00  0.00000000E+00  0.00000000E+00
  0.00000000E+00  6.89990666E-02  3.16423961E-01  7.44308291E-01  1.00000000E+00
  0.00000000E+00  0.00000000E+00  0.00000000E+00  0.00000000E+00  0.00000000E+00
  0.00000000E+00  0.00000000E+00  6.89990666E-02  3.16423961E-01  7.44308291E-01
  1.00000000E+00  0.00000000E+00  0.00000000E+00  0.00000000E+00  0.00000000E+00
  0.00000000E+00  0.00000000E+00  0.00000000E+00  6.89990666E-02  3.16423961E-01
  7.44308291E-01  1.00000000E+00  0.00000000E+00  0.00000000E+00  0.00000000E+00
  0.00000000E+00  0.00000000E+00  0.00000000E+00  0.00000000E+00  6.89990666E-02
  3.16423961E-01  7.44308291E-01  1.00000000E+00  0.00000000E+00  0.00000000E+00
  0.00000000E+00  0.00000000E+00  0.00000000E+00  0.00000000E+00  0.00000000E+00
  6.89990666E-02  3.16423961E-01  7.44308291E-01  1.00000000E+00  0.00000000E+00
  0.00000000E+00  0.00000000E+00  0.00000000E+00  0.00000000E+00  0.00000000E+00
  0.00000000E+00  0.00000000E+00  0.00000000E+00  0.00000000E+00  0.00000000E+00
  0.00000000E+00  0.00000000E+00  0.00000000E+00  0.00000000E+00  0.00000000E+00
  0.00000000E+00  0.00000000E+00  0.00000000E+00  0.00000000E+00  0.00000000E+00
  0.00000000E+00  0.00000000E+00  0.00000000E+00  0.00000000E+00  0.00000000E+00
  0.00000000E+00  0.00000000E+00  0.00000000E+00  0.00000000E+00  0.00000000E+00
  0.00000000E+00  0.00000000E+00  0.00000000E+00  0.00000000E+00  0.00000000E+00
  0.00000000E+00  0.00000000E+00  0.00000000E+00  0.00000000E+00  0.00000000E+00
  0.00000000E+00  0.00000000E+00  0.00000000E+00  0.00000000E+00
Coordinates of each shell                  R   N=         186
  3.53717631E-01 -1.72188527E+00 -4.42241577E-06  3.53717631E-01 -1.72188527E+00
 -4.42241577E-06  3.53717631E-01 -1.72188527E+00 -4.42241577E-06  3.53717631E-01
 -1.72188527E+00 -4.42241577E-06  3.93943795E+00  1.08341739E+00 -6.51661564E-06
  3.93943795E+00  1.08341739E+00 -6.51661564E-06  3.93943795E+00  1.08341739E+00
 -6.51661564E-06  3.93943795E+00  1.08341739E+00 -6.51661564E-06  5.59948822E+00
 -7.63486560E-01 -1.41242273E+00  5.59948822E+00 -7.63486560E-01 -1.41242273E+00
  5.59948822E+00 -7.63486560E-01 -1.41242273E+00  5.59948822E+00 -7.63486560E-01
 -1.41242273E+00  5.59948657E+00 -7.63471778E-01  1.41243212E+00  5.59948657E+00
 -7.63471778E-01  1.41243212E+00  5.59948657E+00 -7.63471778E-01  1.41243212E+00
  5.59948657E+00 -7.63471778E-01  1.41243212E+00  1.16764916E+00  6.92289541E-01
 -5.22082552E-06  1.16764916E+00  6.92289541E-01 -5.22082552E-06  1.16764916E+00
  6.92289541E-01 -5.22082552E-06  1.16764916E+00  6.92289541E-01 -5.22082552E-06
 -5.20144925E-01  2.73355206E+00 -2.97645595E-06 -5.20144925E-01  2.73355206E+00
 -2.97645595E-06 -5.20144925E-01  2.73355206E+00 -2.97645595E-06 -5.20144925E-01
  2.73355206E+00 -2.97645595E-06 -3.10662134E+00  2.26507511E+00  1.60699948E-06
 -3.10662134E+00  2.26507511E+00  1.60699948E-06 -3.10662134E+00  2.26507511E+00
  1.60699948E-06 -3.10662134E+00  2.26507511E+00  1.60699948E-06 -3.98469551E+00
 -2.29701478E-01  5.50484514E-06 -3.98469551E+00 -2.29701478E-01  5.50484514E-06
 -3.98469551E+00 -2.29701478E-01  5.50484514E-06 -3.98469551E+00 -2.29701478E-01
  5.50484514E-06 -2.15049066E+00 -2.13272109E+00  1.63372065E-06 -2.15049066E+00
 -2.13272109E+00  1.63372065E-06 -2.15049066E+00 -2.13272109E+00  1.63372065E-06
 -2.15049066E+00 -2.13272109E+00  1.63372065E-06 -6.76040404E+00 -8.41407785E-01
  1.71778373E-07 -6.76040404E+00 -8.41407785E-01  1.71778373E-07 -6.76040404E+00
 -8.41407785E-01  1.71778373E-07 -6.76040404E+00 -8.41407785E-01  1.71778373E-07
  4.54229335E+00  3.04823378E+00 -1.65094353E-05  4.54229335E+00  3.04823378E+00
 -1.65094353E-05  7.23343052E+00 -1.44746502E-02 -2.40071013E+00  7.23343052E+00
 -1.44746502E-02 -2.40071013E+00  4.62090080E+00 -2.30303638E+00 -2.34698984E+00
  4.62090080E+00 -2.30303638E+00 -2.34698984E+00  4.62090175E+00 -2.30301218E+00
  2.34701761E+00  4.62090175E+00 -2.30301218E+00  2.34701761E+00  7.23342773E+00
 -1.44480638E-02  2.40071286E+00  7.23342773E+00 -1.44480638E-02  2.40071286E+00
  1.96467379E-01  4.65998505E+00 -4.74680967E-06  1.96467379E-01  4.65998505E+00
 -4.74680967E-06 -4.44274553E+00  3.83120471E+00  2.82437589E-06 -4.44274553E+00
  3.83120471E+00  2.82437589E-06 -2.72484010E+00 -4.11252091E+00  3.38985701E-06
 -2.72484010E+00 -4.11252091E+00  3.38985701E-06 -7.69705211E+00 -5.73189489E-02
  1.66917954E+00 -7.69705211E+00 -5.73189489E-02  1.66917954E+00 -7.06402505E+00
 -2.88523374E+00  7.86317247E-05 -7.06402505E+00 -2.88523374E+00  7.86317247E-05
 -7.69701475E+00 -5.74542141E-02 -1.66926426E+00 -7.69701475E+00 -5.74542141E-02
 -1.66926426E+00
Constraint Structure                       R   N=          63
  3.53717631E-01 -1.72188527E+00 -4.42241577E-06  3.93943795E+00  1.08341739E+00
 -6.51661564E-06  5.59948822E+00 -7.63486560E-01 -1.41242273E+00  5.59948657E+00
 -7.63471778E-01  1.41243212E+00  1.16764916E+00  6.92289541E-01 -5.22082552E-06
 -5.20144925E-01  2.73355206E+00 -2.97645595E-06 -3.10662134E+00  2.26507511E+00
  1.60699948E-06 -3.98469551E+00 -2.29701478E-01  5.50484514E-06 -2.15049066E+00
 -2.13272109E+00  1.63372065E-06 -6.76040404E+00 -8.41407785E-01  1.71778373E-07
  4.54229335E+00  3.04823378E+00 -1.65094353E-05  7.23343052E+00 -1.44746502E-02
 -2.40071013E+00  4.62090080E+00 -2.30303638E+00 -2.34698984E+00  4.62090175E+00
 -2.30301218E+00  2.34701761E+00  7.23342773E+00 -1.44480638E-02  2.40071286E+00
  1.96467379E-01  4.65998505E+00 -4.74680967E-06 -4.44274553E+00  3.83120471E+00
  2.82437589E-06 -2.72484010E+00 -4.11252091E+00  3.38985701E-06 -7.69705211E+00
 -5.73189489E-02  1.66917954E+00 -7.06402505E+00 -2.88523374E+00  7.86317247E-05
 -7.69701475E+00 -5.74542141E-02 -1.66926426E+00
Num ILSW                                   I              100
ILSW                                       I   N=         100
           0           1           0           0           2           0
           0           0           0           0           0          -1
           0           0           0           0           0           0
           0           0           0           0           1           0
           1           0           0           0           0           0
           0           0      100000           0          -1           0
           0           0           0           0           0           0
           0           0           0           1           1           0
           0           0           1           0           0           0
           0           0           4          40           0           0
           0           0           0           0           0           0
           0           0           0           0           0           0
           0           0           0           0           0           0
           0           0           0           0           0           0
           0           0           0           0           0           0
           0           0           0           0           0           0
           0           0           0           0
Num RLSW                                   I               40
RLSW                                       R   N=          40
  1.00000000E+00  1.00000000E+00  1.00000000E+00  1.00000000E+00  1.00000000E+00
  0.00000000E+00  0.00000000E+00  1.00000000E+00  0.00000000E+00  0.00000000E+00
  0.00000000E+00  0.00000000E+00  1.00000000E+00  0.00000000E+00  0.00000000E+00
  0.00000000E+00  0.00000000E+00  1.00000000E+00  0.00000000E+00  0.00000000E+00
  0.00000000E+00  0.00000000E+00  1.00000000E+00  0.00000000E+00  0.00000000E+00
  0.00000000E+00  0.00000000E+00  1.00000000E+00  0.00000000E+00  0.00000000E+00
  0.00000000E+00  0.00000000E+00  0.00000000E+00  0.00000000E+00  0.00000000E+00
  0.00000000E+00  0.00000000E+00  0.00000000E+00  1.00000000E+00  1.00000000E+00
MxBond                                     I                4
NBond                                      I   N=          21
           2           4           4           4           3           3
           3           3           3           4           1           1
           1           1           1           1           1           1
           1           1           1
IBond                                      I   N=          84
           5           9           0           0           3           4
           5          11           2           4          12          13
           2           3          14          15           1           2
           6           0           5           7          16           0
           6           8          17           0           7           9
          10           0           1           8          18           0
           8          19          20          21           2           0
           0           0           3           0           0           0
           3           0           0           0           4           0
           0           0           4           0           0           0
           6           0           0           0           7           0
           0           0           9           0           0           0
          10           0           0           0          10           0
           0           0          10           0           0           0
RBond                                      R   N=          84
  1.50000000E+00  1.50000000E+00  0.00000000E+00  0.00000000E+00  1.00000000E+00
  1.00000000E+00  1.00000000E+00  1.00000000E+00  1.00000000E+00  1.00000000E+00
  1.00000000E+00  1.00000000E+00  1.00000000E+00  1.00000000E+00  1.00000000E+00
  1.00000000E+00  1.50000000E+00  1.00000000E+00  1.50000000E+00  0.00000000E+00
  1.50000000E+00  1.50000000E+00  1.00000000E+00  0.00000000E+00  1.50000000E+00
  1.50000000E+00  1.00000000E+00  0.00000000E+00  1.50000000E+00  1.50000000E+00
  1.00000000E+00  0.00000000E+00  1.50000000E+00  1.50000000E+00  1.00000000E+00
  0.00000000E+00  1.00000000E+00  1.00000000E+00  1.00000000E+00  1.00000000E+00
  1.00000000E+00  0.00000000E+00  0.00000000E+00  0.00000000E+00  1.00000000E+00
  0.00000000E+00  0.00000000E+00  0.00000000E+00  1.00000000E+00  0.00000000E+00
  0.00000000E+00  0.00000000E+00  1.00000000E+00  0.00000000E+00  0.00000000E+00
  0.00000000E+00  1.00000000E+00  0.00000000E+00  0.00000000E+00  0.00000000E+00
  1.00000000E+00  0.00000000E+00  0.00000000E+00  0.00000000E+00  1.00000000E+00
  0.00000000E+00  0.00000000E+00  0.00000000E+00  1.00000000E+00  0.00000000E+00
  0.00000000E+00  0.00000000E+00  1.00000000E+00  0.00000000E+00  0.00000000E+00
  0.00000000E+00  1.00000000E+00  0.00000000E+00  0.00000000E+00  0.00000000E+00
  1.00000000E+00  0.00000000E+00  0.00000000E+00  0.00000000E+00
Virial Ratio                               R      2.001910616297585E+00
SCF Energy                                 R     -4.016408188513267E+02
MP2 Energy                                 R     -4.029564192152199E+02
Total Energy                               R     -4.029564192152199E+02
Post-SCF wavefunction norm                 R      1.712214650962124E+00
RMS Force                                  R      1.141286485026425E-07
RMS Density                                R      1.346441428224492E-09
External E-field                           R   N=          35
  0.00000000E+00  0.00000000E+00  0.00000000E+00  0.00000000E+00  0.00000000E+00
  0.00000000E+00  0.00000000E+00  0.00000000E+00  0.00000000E+00  0.00000000E+00
  0.00000000E+00  0.00000000E+00  0.00000000E+00  0.00000000E+00  0.00000000E+00
  0.00000000E+00  0.00000000E+00  0.00000000E+00  0.00000000E+00  0.00000000E+00
  0.00000000E+00  0.00000000E+00  0.00000000E+00  0.00000000E+00  0.00000000E+00
  0.00000000E+00  0.00000000E+00  0.00000000E+00  0.00000000E+00  0.00000000E+00
  0.00000000E+00  0.00000000E+00  0.00000000E+00  0.00000000E+00  0.00000000E+00
IOpCl                                      I                0
IROHF                                      I                0
Alpha Orbital Energies                     R   N=         172
 -1.55575967E+01 -1.12745774E+01 -1.12673866E+01 -1.12514089E+01 -1.12391966E+01
 -1.12334397E+01 -1.12293364E+01 -1.12292426E+01 -1.12199664E+01 -1.12192920E+01
 -1.24833978E+00 -1.13837626E+00 -1.08892684E+00 -1.03990589E+00 -9.49128892E-01
 -8.64361505E-01 -8.37185928E-01 -8.12154812E-01 -7.78228490E-01 -6.98039652E-01
 -6.63368530E-01 -6.36285828E-01 -6.23963537E-01 -5.98253621E-01 -5.81897888E-01
 -5.61831394E-01 -5.48323540E-01 -5.31524634E-01 -5.25903577E-01 -5.01609146E-01
 -4.95907381E-01 -4.25454098E-01 -4.23025982E-01 -4.01280973E-01 -3.67670760E-01
 -3.08679502E-01  1.20598135E-01  1.48961386E-01  2.38504164E-01  2.47041076E-01
  2.73626454E-01  2.81314067E-01  2.95260597E-01  3.00095224E-01  3.16582912E-01
  3.16976059E-01  3.33490657E-01  3.45315083E-01  3.55923593E-01  3.83225048E-01
  3.96383614E-01  4.01218412E-01  4.11452562E-01  4.53277708E-01  4.55062693E-01
  4.76425460E-01  5.09941167E-01  5.45220491E-01  5.65866842E-01  6.28590631E-01
  6.66285125E-01  7.09763017E-01  7.31456290E-01  7.45211062E-01  7.64829455E-01
  7.76980870E-01  7.78428824E-01  8.03342638E-01  8.07949763E-01  8.33027996E-01
  8.45406662E-01  8.59724239E-01  8.84214840E-01  8.89369079E-01  9.00051500E-01
  9.02191318E-01  9.25263238E-01  9.37029013E-01  9.61391917E-01  9.78460400E-01
  9.97399688E-01  1.01237897E+00  1.01903473E+00  1.09533046E+00  1.09778497E+00
  1.10851777E+00  1.11855975E+00  1.12702828E+00  1.13644701E+00  1.13954569E+00
  1.16690008E+00  1.17041760E+00  1.19697696E+00  1.19874589E+00  1.22664119E+00
  1.24189313E+00  1.24418495E+00  1.26063259E+00  1.28859620E+00  1.29169814E+00
  1.30951430E+00  1.34457331E+00  1.40722842E+00  1.43816752E+00  1.47160039E+00
  1.50197456E+00  1.55862651E+00  1.59541454E+00  1.62750917E+00  1.65164412E+00
  1.68769957E+00  1.74025507E+00  1.75078626E+00  1.77871329E+00  1.79028957E+00
  1.81458312E+00  1.85658282E+00  1.94593197E+00  1.98456139E+00  2.07371079E+00
  2.10779830E+00  2.14746489E+00  2.15760878E+00  2.16929398E+00  2.17539175E+00
  2.17889413E+00  2.18785999E+00  2.22226685E+00  2.24833117E+00  2.27559024E+00
  2.34394661E+00  2.35073778E+00  2.42742261E+00  2.44663567E+00  2.46032926E+00
  2.48261698E+00  2.52238398E+00  2.52870161E+00  2.57985674E+00  2.62446081E+00