13134                                                                   
Freq      RMP2-FC                                                     6-31G(d)            
Number of atoms                            I               14
Info1-9                                    I   N=           9
          26          24        1002           0           0         100
           6           2           1
Charge                                     I                0
Multiplicity                               I                1
Number of electrons                        I               66
Number of alpha electrons                  I               33
Number of beta electrons                   I               33
Number of basis functions                  I              123
Number of independent functions            I              123
Number of point charges in /Mol/           I                0
Number of translation vectors              I                0
Atomic numbers                             I   N=          14
          15           8           8           8           8           6
           6           1           1           1           1           1
           1           1
Nuclear charges                            R   N=          14
  1.50000000E+01  8.00000000E+00  8.00000000E+00  8.00000000E+00  8.00000000E+00
  6.00000000E+00  6.00000000E+00  1.00000000E+00  1.00000000E+00  1.00000000E+00
  1.00000000E+00  1.00000000E+00  1.00000000E+00  1.00000000E+00
Current cartesian coordinates              R   N=          42
 -8.45594837E-02 -9.56148646E-01 -2.01219509E-01  1.99299615E+00  7.55958430E-01
 -1.58968191E+00 -1.75108270E+00  9.84282962E-01  1.47819354E+00  1.57850274E+00
 -2.29795123E+00  1.98285093E+00 -1.54077393E+00 -2.60782846E+00 -1.92037620E+00
  3.63432414E+00  2.34375285E+00 -9.15220845E-02 -3.79171354E+00  2.24606560E+00
  1.65030953E-01  2.52344633E+00  3.54967207E+00  1.16084140E+00  4.68186346E+00
  3.49052860E+00 -1.44008124E+00  4.92520240E+00  1.17454826E+00  1.01053274E+00
 -5.08662030E+00  8.58162177E-01 -6.37856130E-01 -3.04155005E+00  3.45535698E+00
 -1.33176748E+00 -4.74469835E+00  3.39294304E+00  1.58206357E+00  7.17947099E-01
 -3.79358570E+00  2.62561569E+00
Force Field                                I                0
Int Atom Types                             I   N=          14
           0           0           0           0           0           0
           0           0           0           0           0           0
           0           0
MM charges                                 R   N=          14
  0.00000000E+00  0.00000000E+00  0.00000000E+00  0.00000000E+00  0.00000000E+00
  0.00000000E+00  0.00000000E+00  0.00000000E+00  0.00000000E+00  0.00000000E+00
  0.00000000E+00  0.00000000E+00  0.00000000E+00  0.00000000E+00
Integer atomic weights                     I   N=          14
          31          16          16          16          16          12
          12           1           1           1           1           1
           1           1
Real atomic weights                        R   N=          14
  3.09737634E+01  1.59949146E+01  1.59949146E+01  1.59949146E+01  1.59949146E+01
  1.20000000E+01  1.20000000E+01  1.00782504E+00  1.00782504E+00  1.00782504E+00
  1.00782504E+00  1.00782504E+00  1.00782504E+00  1.00782504E+00
Atom fragment info                         I   N=          14
           0           0           0           0           0           0
           0           0           0           0           0           0
           0           0
Atom residue num                           I   N=          14
           0           0           0           0           0           0
           0           0           0           0           0           0
           0           0
Nuclear spins                              I   N=          14
           1           0           0           0           0           0
           0           1           1           1           1           1
           1           1
Nuclear ZEff                               R   N=          14
 -1.29400000E+01 -5.60000000E+00 -5.60000000E+00 -5.60000000E+00 -5.60000000E+00
 -3.60000000E+00 -3.60000000E+00 -1.00000000E+00 -1.00000000E+00 -1.00000000E+00
 -1.00000000E+00 -1.00000000E+00 -1.00000000E+00 -1.00000000E+00
Nuclear QMom                               R   N=          14
  0.00000000E+00  0.00000000E+00  0.00000000E+00  0.00000000E+00  0.00000000E+00
  0.00000000E+00  0.00000000E+00  0.00000000E+00  0.00000000E+00  0.00000000E+00
  0.00000000E+00  0.00000000E+00  0.00000000E+00  0.00000000E+00
Nuclear GFac                               R   N=          14
  1.13160000E+00  0.00000000E+00  0.00000000E+00  0.00000000E+00  0.00000000E+00
  0.00000000E+00  0.00000000E+00  2.79284600E+00  2.79284600E+00  2.79284600E+00
  2.79284600E+00  2.79284600E+00  2.79284600E+00  2.79284600E+00
MicOpt                                     I   N=          14
          -1          -1          -1          -1          -1          -1
          -1          -1          -1          -1          -1          -1
          -1          -1
Number of contracted shells                I               43
Number of primitive shells                 I              111
Pure/Cartesian d shells                    I                1
Pure/Cartesian f shells                    I                0
Highest angular momentum                   I                2
Largest degree of contraction              I                6
Shell types                                I   N=          43
           0          -1          -1          -1           2           0
          -1          -1           2           0          -1          -1
           2           0          -1          -1           2           0
          -1          -1           2           0          -1          -1
           2           0          -1          -1           2           0
           0           0           0           0           0           0
           0           0           0           0           0           0
           0
Number of primitives per shell             I   N=          43
           6           6           3           1           1           6
           3           1           1           6           3           1
           1           6           3           1           1           6
           3           1           1           6           3           1
           1           6           3           1           1           3
           1           3           1           3           1           3
           1           3           1           3           1           3
           1
Shell to atom map                          I   N=          43
           1           1           1           1           1           2
           2           2           2           3           3           3
           3           4           4           4           4           5
           5           5           5           6           6           6
           6           7           7           7           7           8
           8           9           9          10          10          11
          11          12          12          13          13          14
          14
Primitive exponents                        R   N=         111
  1.94133000E+04  2.90942000E+03  6.61364000E+02  1.85759000E+02  5.91943000E+01
  2.00310000E+01  3.39478000E+02  8.10101000E+01  2.58780000E+01  9.45221000E+00
  3.66566000E+00  1.46746000E+00  2.15623000E+00  7.48997000E-01  2.83145000E-01
  9.98317000E-02  5.50000000E-01  5.48467166E+03  8.25234946E+02  1.88046958E+02
  5.29645000E+01  1.68975704E+01  5.79963534E+00  1.55396162E+01  3.59993359E+00
  1.01376175E+00  2.70005823E-01  8.00000000E-01  5.48467166E+03  8.25234946E+02
  1.88046958E+02  5.29645000E+01  1.68975704E+01  5.79963534E+00  1.55396162E+01
  3.59993359E+00  1.01376175E+00  2.70005823E-01  8.00000000E-01  5.48467166E+03
  8.25234946E+02  1.88046958E+02  5.29645000E+01  1.68975704E+01  5.79963534E+00
  1.55396162E+01  3.59993359E+00  1.01376175E+00  2.70005823E-01  8.00000000E-01
  5.48467166E+03  8.25234946E+02  1.88046958E+02  5.29645000E+01  1.68975704E+01
  5.79963534E+00  1.55396162E+01  3.59993359E+00  1.01376175E+00  2.70005823E-01
  8.00000000E-01  3.04752488E+03  4.57369518E+02  1.03948685E+02  2.92101553E+01
  9.28666296E+00  3.16392696E+00  7.86827235E+00  1.88128854E+00  5.44249258E-01
  1.68714478E-01  8.00000000E-01  3.04752488E+03  4.57369518E+02  1.03948685E+02
  2.92101553E+01  9.28666296E+00  3.16392696E+00  7.86827235E+00  1.88128854E+00
  5.44249258E-01  1.68714478E-01  8.00000000E-01  1.87311370E+01  2.82539436E+00
  6.40121692E-01  1.61277759E-01  1.87311370E+01  2.82539436E+00  6.40121692E-01
  1.61277759E-01  1.87311370E+01  2.82539436E+00  6.40121692E-01  1.61277759E-01
  1.87311370E+01  2.82539436E+00  6.40121692E-01  1.61277759E-01  1.87311370E+01
  2.82539436E+00  6.40121692E-01  1.61277759E-01  1.87311370E+01  2.82539436E+00
  6.40121692E-01  1.61277759E-01  1.87311370E+01  2.82539436E+00  6.40121692E-01
  1.61277759E-01
Contraction coefficients                   R   N=         111
  1.85159892E-03  1.42061917E-02  6.99994593E-02  2.40078860E-01  4.84761718E-01
  3.35199805E-01 -2.78217010E-03 -3.60499014E-02 -1.16631004E-01  9.68328036E-02
  6.14418023E-01  4.03798015E-01 -2.52924114E-01  3.28518447E-02  1.08125476E+00
  1.00000000E+00  1.00000000E+00  1.83107443E-03  1.39501722E-02  6.84450781E-02
  2.32714336E-01  4.70192898E-01  3.58520853E-01 -1.10777550E-01 -1.48026263E-01
  1.13076702E+00  1.00000000E+00  1.00000000E+00  1.83107443E-03  1.39501722E-02
  6.84450781E-02  2.32714336E-01  4.70192898E-01  3.58520853E-01 -1.10777550E-01
 -1.48026263E-01  1.13076702E+00  1.00000000E+00  1.00000000E+00  1.83107443E-03
  1.39501722E-02  6.84450781E-02  2.32714336E-01  4.70192898E-01  3.58520853E-01
 -1.10777550E-01 -1.48026263E-01  1.13076702E+00  1.00000000E+00  1.00000000E+00
  1.83107443E-03  1.39501722E-02  6.84450781E-02  2.32714336E-01  4.70192898E-01
  3.58520853E-01 -1.10777550E-01 -1.48026263E-01  1.13076702E+00  1.00000000E+00
  1.00000000E+00  1.83473713E-03  1.40373228E-02  6.88426223E-02  2.32184443E-01
  4.67941348E-01  3.62311985E-01 -1.19332420E-01 -1.60854152E-01  1.14345644E+00
  1.00000000E+00  1.00000000E+00  1.83473713E-03  1.40373228E-02  6.88426223E-02
  2.32184443E-01  4.67941348E-01  3.62311985E-01 -1.19332420E-01 -1.60854152E-01
  1.14345644E+00  1.00000000E+00  1.00000000E+00  3.34946043E-02  2.34726953E-01
  8.13757326E-01  1.00000000E+00  3.34946043E-02  2.34726953E-01  8.13757326E-01
  1.00000000E+00  3.34946043E-02  2.34726953E-01  8.13757326E-01  1.00000000E+00
  3.34946043E-02  2.34726953E-01  8.13757326E-01  1.00000000E+00  3.34946043E-02
  2.34726953E-01  8.13757326E-01  1.00000000E+00  3.34946043E-02  2.34726953E-01
  8.13757326E-01  1.00000000E+00  3.34946043E-02  2.34726953E-01  8.13757326E-01
  1.00000000E+00
P(S=P) Contraction coefficients            R   N=         111
  0.00000000E+00  0.00000000E+00  0.00000000E+00  0.00000000E+00  0.00000000E+00
  0.00000000E+00  4.56461619E-03  3.36935719E-02  1.39754883E-01  3.39361717E-01
  4.50920624E-01  2.38585801E-01 -1.77653127E-02  2.74058196E-01  7.85421563E-01
  1.00000000E+00  0.00000000E+00  0.00000000E+00  0.00000000E+00  0.00000000E+00
  0.00000000E+00  0.00000000E+00  0.00000000E+00  7.08742682E-02  3.39752839E-01
  7.27158577E-01  1.00000000E+00  0.00000000E+00  0.00000000E+00  0.00000000E+00
  0.00000000E+00  0.00000000E+00  0.00000000E+00  0.00000000E+00  7.08742682E-02
  3.39752839E-01  7.27158577E-01  1.00000000E+00  0.00000000E+00  0.00000000E+00
  0.00000000E+00  0.00000000E+00  0.00000000E+00  0.00000000E+00  0.00000000E+00
  7.08742682E-02  3.39752839E-01  7.27158577E-01  1.00000000E+00  0.00000000E+00
  0.00000000E+00  0.00000000E+00  0.00000000E+00  0.00000000E+00  0.00000000E+00
  0.00000000E+00  7.08742682E-02  3.39752839E-01  7.27158577E-01  1.00000000E+00
  0.00000000E+00  0.00000000E+00  0.00000000E+00  0.00000000E+00  0.00000000E+00
  0.00000000E+00  0.00000000E+00  6.89990666E-02  3.16423961E-01  7.44308291E-01
  1.00000000E+00  0.00000000E+00  0.00000000E+00  0.00000000E+00  0.00000000E+00
  0.00000000E+00  0.00000000E+00  0.00000000E+00  6.89990666E-02  3.16423961E-01
  7.44308291E-01  1.00000000E+00  0.00000000E+00  0.00000000E+00  0.00000000E+00
  0.00000000E+00  0.00000000E+00  0.00000000E+00  0.00000000E+00  0.00000000E+00
  0.00000000E+00  0.00000000E+00  0.00000000E+00  0.00000000E+00  0.00000000E+00
  0.00000000E+00  0.00000000E+00  0.00000000E+00  0.00000000E+00  0.00000000E+00
  0.00000000E+00  0.00000000E+00  0.00000000E+00  0.00000000E+00  0.00000000E+00
  0.00000000E+00  0.00000000E+00  0.00000000E+00  0.00000000E+00  0.00000000E+00
  0.00000000E+00
Coordinates of each shell                  R   N=         129
 -8.45594837E-02 -9.56148646E-01 -2.01219509E-01 -8.45594837E-02 -9.56148646E-01
 -2.01219509E-01 -8.45594837E-02 -9.56148646E-01 -2.01219509E-01 -8.45594837E-02
 -9.56148646E-01 -2.01219509E-01 -8.45594837E-02 -9.56148646E-01 -2.01219509E-01
  1.99299615E+00  7.55958430E-01 -1.58968191E+00  1.99299615E+00  7.55958430E-01
 -1.58968191E+00  1.99299615E+00  7.55958430E-01 -1.58968191E+00  1.99299615E+00
  7.55958430E-01 -1.58968191E+00 -1.75108270E+00  9.84282962E-01  1.47819354E+00
 -1.75108270E+00  9.84282962E-01  1.47819354E+00 -1.75108270E+00  9.84282962E-01
  1.47819354E+00 -1.75108270E+00  9.84282962E-01  1.47819354E+00  1.57850274E+00
 -2.29795123E+00  1.98285093E+00  1.57850274E+00 -2.29795123E+00  1.98285093E+00
  1.57850274E+00 -2.29795123E+00  1.98285093E+00  1.57850274E+00 -2.29795123E+00
  1.98285093E+00 -1.54077393E+00 -2.60782846E+00 -1.92037620E+00 -1.54077393E+00
 -2.60782846E+00 -1.92037620E+00 -1.54077393E+00 -2.60782846E+00 -1.92037620E+00
 -1.54077393E+00 -2.60782846E+00 -1.92037620E+00  3.63432414E+00  2.34375285E+00
 -9.15220845E-02  3.63432414E+00  2.34375285E+00 -9.15220845E-02  3.63432414E+00
  2.34375285E+00 -9.15220845E-02  3.63432414E+00  2.34375285E+00 -9.15220845E-02
 -3.79171354E+00  2.24606560E+00  1.65030953E-01 -3.79171354E+00  2.24606560E+00
  1.65030953E-01 -3.79171354E+00  2.24606560E+00  1.65030953E-01 -3.79171354E+00
  2.24606560E+00  1.65030953E-01  2.52344633E+00  3.54967207E+00  1.16084140E+00
  2.52344633E+00  3.54967207E+00  1.16084140E+00  4.68186346E+00  3.49052860E+00
 -1.44008124E+00  4.68186346E+00  3.49052860E+00 -1.44008124E+00  4.92520240E+00
  1.17454826E+00  1.01053274E+00  4.92520240E+00  1.17454826E+00  1.01053274E+00
 -5.08662030E+00  8.58162177E-01 -6.37856130E-01 -5.08662030E+00  8.58162177E-01
 -6.37856130E-01 -3.04155005E+00  3.45535698E+00 -1.33176748E+00 -3.04155005E+00
  3.45535698E+00 -1.33176748E+00 -4.74469835E+00  3.39294304E+00  1.58206357E+00
 -4.74469835E+00  3.39294304E+00  1.58206357E+00  7.17947099E-01 -3.79358570E+00
  2.62561569E+00  7.17947099E-01 -3.79358570E+00  2.62561569E+00
Constraint Structure                       R   N=          42
 -8.45594837E-02 -9.56148646E-01 -2.01219509E-01  1.99299615E+00  7.55958430E-01
 -1.58968191E+00 -1.75108270E+00  9.84282962E-01  1.47819354E+00  1.57850274E+00
 -2.29795123E+00  1.98285093E+00 -1.54077393E+00 -2.60782846E+00 -1.92037620E+00
  3.63432414E+00  2.34375285E+00 -9.15220845E-02 -3.79171354E+00  2.24606560E+00
  1.65030953E-01  2.52344633E+00  3.54967207E+00  1.16084140E+00  4.68186346E+00
  3.49052860E+00 -1.44008124E+00  4.92520240E+00  1.17454826E+00  1.01053274E+00
 -5.08662030E+00  8.58162177E-01 -6.37856130E-01 -3.04155005E+00  3.45535698E+00
 -1.33176748E+00 -4.74469835E+00  3.39294304E+00  1.58206357E+00  7.17947099E-01
 -3.79358570E+00  2.62561569E+00
Num ILSW                                   I              100
ILSW                                       I   N=         100
           0           1           0           1           2           0
           0           0           0           0           0          -1
           0           0           0           0           0           0
           0           0           0           0           1           0
           1           0           0           0           0           0
           0           0      100000           0          -1           0
           0           0           0           0           0           0
           0           0           0           1           1           0
           0           0           1           0           0           0
           0           0           4          40           0           0
           0           0           0           0           0           0
           0           0           0           0           0           0
           0           0           0           0           0           0
           0           0           0           0           0           0
           0           0           0           0           0           0
           0           0           0           0           0           0
           0           0           0           0
Num RLSW                                   I               40
RLSW                                       R   N=          40
  1.00000000E+00  1.00000000E+00  1.00000000E+00  1.00000000E+00  1.00000000E+00
  0.00000000E+00  0.00000000E+00  1.00000000E+00  0.00000000E+00  0.00000000E+00
  0.00000000E+00  0.00000000E+00  1.00000000E+00  0.00000000E+00  0.00000000E+00
  0.00000000E+00  0.00000000E+00  1.00000000E+00  0.00000000E+00  0.00000000E+00
  0.00000000E+00  0.00000000E+00  1.00000000E+00  0.00000000E+00  0.00000000E+00
  0.00000000E+00  0.00000000E+00  1.00000000E+00  0.00000000E+00  0.00000000E+00
  0.00000000E+00  0.00000000E+00  0.00000000E+00  0.00000000E+00  0.00000000E+00
  0.00000000E+00  0.00000000E+00  0.00000000E+00  1.00000000E+00  1.00000000E+00
MxBond                                     I                4
NBond                                      I   N=          14
           4           2           2           2           1           4
           4           1           1           1           1           1
           1           1
IBond                                      I   N=          56
           2           3           4           5           1           6
           0           0           1           7           0           0
           1          14           0           0           1           0
           0           0           2           8           9          10
           3          11          12          13           6           0
           0           0           6           0           0           0
           6           0           0           0           7           0
           0           0           7           0           0           0
           7           0           0           0           4           0
           0           0
RBond                                      R   N=          56
  1.00000000E+00  1.00000000E+00  1.00000000E+00  2.00000000E+00  1.00000000E+00
  1.00000000E+00  0.00000000E+00  0.00000000E+00  1.00000000E+00  1.00000000E+00
  0.00000000E+00  0.00000000E+00  1.00000000E+00  1.00000000E+00  0.00000000E+00
  0.00000000E+00  2.00000000E+00  0.00000000E+00  0.00000000E+00  0.00000000E+00
  1.00000000E+00  1.00000000E+00  1.00000000E+00  1.00000000E+00  1.00000000E+00
  1.00000000E+00  1.00000000E+00  1.00000000E+00  1.00000000E+00  0.00000000E+00
  0.00000000E+00  0.00000000E+00  1.00000000E+00  0.00000000E+00  0.00000000E+00
  0.00000000E+00  1.00000000E+00  0.00000000E+00  0.00000000E+00  0.00000000E+00
  1.00000000E+00  0.00000000E+00  0.00000000E+00  0.00000000E+00  1.00000000E+00
  0.00000000E+00  0.00000000E+00  0.00000000E+00  1.00000000E+00  0.00000000E+00
  0.00000000E+00  0.00000000E+00  1.00000000E+00  0.00000000E+00  0.00000000E+00
  0.00000000E+00
Virial Ratio                               R      2.002429164976134E+00
SCF Energy                                 R     -7.200621265169701E+02
MP2 Energy                                 R     -7.211490190277824E+02
Total Energy                               R     -7.211490190277824E+02
Post-SCF wavefunction norm                 R      1.625049550143445E+00
RMS Force                                  R      3.128243329142558E-07
RMS Density                                R      1.673047242997798E-09
External E-field                           R   N=          35
  0.00000000E+00  0.00000000E+00  0.00000000E+00  0.00000000E+00  0.00000000E+00
  0.00000000E+00  0.00000000E+00  0.00000000E+00  0.00000000E+00  0.00000000E+00
  0.00000000E+00  0.00000000E+00  0.00000000E+00  0.00000000E+00  0.00000000E+00
  0.00000000E+00  0.00000000E+00  0.00000000E+00  0.00000000E+00  0.00000000E+00
  0.00000000E+00  0.00000000E+00  0.00000000E+00  0.00000000E+00  0.00000000E+00
  0.00000000E+00  0.00000000E+00  0.00000000E+00  0.00000000E+00  0.00000000E+00
  0.00000000E+00  0.00000000E+00  0.00000000E+00  0.00000000E+00  0.00000000E+00
IOpCl                                      I                0
IROHF                                      I                0
Alpha Orbital Energies                     R   N=         123
 -8.01193294E+01 -2.06168161E+01 -2.06048944E+01 -2.06041871E+01 -2.05229745E+01
 -1.12991405E+01 -1.12984751E+01 -7.64006031E+00 -5.53877245E+00 -5.53827062E+00
 -5.53766178E+00 -1.45066984E+00 -1.38084999E+00 -1.38000707E+00 -1.29345026E+00
 -9.72460396E-01 -9.56381763E-01 -8.20169835E-01 -7.33512077E-01 -7.07155665E-01
 -6.74391095E-01 -6.54161374E-01 -6.42734522E-01 -6.30166409E-01 -6.25102348E-01
 -5.68558267E-01 -5.56353208E-01 -5.39336037E-01 -5.15228178E-01 -4.96655675E-01
 -4.84113275E-01 -4.63533718E-01 -4.58553173E-01  1.90392970E-01  2.28755601E-01
  2.52566616E-01  2.74106387E-01  2.78008611E-01  2.86152810E-01  3.00582041E-01
  3.05063691E-01  3.25641185E-01  3.49365028E-01  3.61227234E-01  3.75166290E-01
  4.20454605E-01  5.12437467E-01  5.30649439E-01  5.73451470E-01  6.02222841E-01
  6.99267625E-01  7.38490338E-01  7.56029993E-01  7.92299391E-01  8.00004006E-01
  8.48354589E-01  8.62299755E-01  9.45221023E-01  1.03134933E+00  1.05344175E+00
  1.07160875E+00  1.09364196E+00  1.10279906E+00  1.11881169E+00  1.15004997E+00
  1.16873480E+00  1.18313955E+00  1.20066984E+00  1.22338470E+00  1.25647352E+00
  1.27086075E+00  1.28870783E+00  1.31068670E+00  1.33538196E+00  1.36512998E+00
  1.39337496E+00  1.42443386E+00  1.46344986E+00  1.51669684E+00  1.53271672E+00
  1.55479743E+00  1.63105021E+00  1.70916755E+00  1.75009746E+00  1.76916315E+00
  1.78033963E+00  1.81548626E+00  1.83594508E+00  1.93943407E+00  1.96053423E+00
  2.00210487E+00  2.03796902E+00  2.12179565E+00  2.12507540E+00  2.19181494E+00
  2.21863896E+00  2.30379187E+00  2.32699703E+00  2.33594939E+00  2.39027225E+00
  2.43090432E+00  2.44536882E+00  2.46341907E+00  2.53119444E+00  2.54451045E+00
  2.66019711E+00  2.66679570E+00  2.68269686E+00  2.70521651E+00  2.71841672E+00
  2.84460558E+00  2.95753484E+00  3.03526737E+00  3.10264039E+00  3.14019716E+00
  3.23357060E+00  3.87144454E+00  4.08202766E+00  4.25832431E+00  4.37260029E+00
  4.46658623E+00  4.66086016E+00  4.66956208E+00
Alpha MO coefficients                      R   N=       15129
  9.96426396E-01  1.34954543E-02  2.48532465E-05  2.92244884E-05  3.00360312E-05
 -2.20330168E-02  1.27207603E-06 -2.26133543E-05  4.71577375E-06  2.22984449E-03
 -4.47283608E-05  1.24326678E-04  6.20106283E-05  7.46888689E-03  7.46956050E-03
  7.49263576E-03 -2.41228178E-05 -2.57598732E-05 -9.23919118E-06 -1.52690453E-05
 -9.22052313E-05  5.03087323E-05  4.58812541E-05 -6.14430051E-05  7.77748463E-04
 -2.12018445E-04 -1.93735924E-04  2.78259097E-04 -1.18152415E-04 -9.32048281E-05
 -6.83749159E-05 -5.32168661E-05  7.17124148E-05  6.20868235E-05 -7.73020880E-06
 -5.69602021E-05 -1.98410013E-05  3.80233033E-05  6.72946870E-05  5.97384427E-04
  9.11911587E-05 -1.77303942E-04 -2.98680600E-04 -5.20619478E-05 -8.87119893E-05
 -6.70402868E-05  4.50143756E-05  7.66346223E-05 -7.21187474E-05 -1.73132564E-05
 -9.24687913E-05  5.59902651E-05 -9.96377505E-06  5.78294435E-05  8.08474084E-04
 -2.79855397E-04  3.33331690E-05 -2.65502282E-04 -9.91877753E-05 -6.21529736E-05
 -1.34401273E-04  7.10562951E-05 -7.24756864E-05  3.87134425E-05 -9.24429220E-06
 -1.19045861E-04 -9.02856092E-05 -9.49472737E-05 -1.04469484E-04  7.60958853E-04
  2.75179289E-04  2.76543516E-04  3.13756667E-04 -5.51140193E-05 -6.77159854E-05
 -6.64532088E-05 -4.88412948E-05 -4.45288211E-05 -5.34918688E-05 -7.79377113E-06
 -4.21474108E-05  2.26897272E-05  2.37069224E-05 -1.17419372E-05  4.64745959E-05
  8.90462609E-05  8.10927740E-05  7.13982310E-05 -2.44311089E-05 -2.72645683E-05
  1.44067516E-05  1.47019056E-06 -1.17640344E-05 -4.55530818E-06 -1.41589767E-05
 -6.41802613E-05 -3.67749355E-05  2.99611667E-05  1.33747541E-05  1.20236316E-04
 -7.33444000E-05  3.85343343E-05 -1.18400168E-04 -3.68218848E-05 -3.00246285E-05
 -7.16104692E-06 -2.05325060E-06 -8.70025902E-06  1.82254101E-05  1.09448663E-05
 -1.55270834E-04 -1.33991332E-05  8.01445880E-07  1.65245078E-05 -1.37359107E-04
  7.40643571E-06 -1.84073821E-04  3.75707287E-06 -1.82720972E-04 -1.30791097E-05
  3.01439465E-05 -7.15629749E-05 -1.82313827E-04  1.22982220E-05 -5.39754087E-05
 -3.47377101E-05  3.11552042E-05 -4.79267831E-05  2.93715820E-04  2.01301351E-04
 -1.99361366E-04  2.67091908E-04 -4.61184062E-04 -5.48192368E-04 -2.44238534E-04
 -3.04180387E-04 -3.67423345E-05 -3.05632805E-05  5.84292600E-05 -8.71868885E-05
  1.31544879E-04 -1.26263940E-04 -5.33403623E-04 -5.89817189E-05  4.18891243E-06
 -1.06743824E-06  2.12100242E-06  3.51806769E-04 -7.77225034E-05 -7.82215166E-06
  2.61295719E-05 -1.31511852E-05 -3.88072785E-05 -4.97190525E-05 -8.66375239E-07
 -1.71702612E-05  3.43334923E-05 -5.47735668E-04 -6.17199090E-05 -2.06749268E-05
 -5.80075298E-06  3.31989042E-06  3.00456123E-04  1.01346480E-04  5.10409888E-05
 -5.12902555E-05 -5.14863469E-05 -6.99668912E-05 -2.76551324E-05  2.37348922E-05
 -2.48894318E-05  1.09108568E-05  9.94594929E-01  2.11223494E-02 -1.05258487E-03
 -4.34557382E-04 -3.23534261E-04  4.53738162E-03  5.21531338E-04  3.01622628E-04
  1.21496361E-04 -4.17113172E-03 -4.20718040E-03 -4.17884231E-03 -3.50880258E-05
 -7.34426641E-05  1.39606792E-04 -5.90629889E-05  9.21065768E-05 -1.10150166E-05
  1.13474893E-05  4.87999107E-06 -4.46983651E-04  3.76982604E-05 -1.16911861E-05
 -4.71855321E-05  7.94705928E-05  8.01544245E-05  6.20477197E-05  1.13263575E-05
 -9.03013258E-06  1.01704212E-05 -2.24325324E-06 -1.95372395E-05 -1.84519829E-05
 -1.32748546E-05  2.09661496E-05  1.57878431E-04  7.57357877E-05 -4.08959375E-05
 -4.44457490E-05  3.47709150E-06 -2.75349854E-06  2.15811444E-06  6.36556384E-06
 -1.54504945E-05 -4.46677401E-06  1.44696522E-06  1.56758968E-06  7.07032972E-06
 -1.00871435E-05  1.36402244E-06 -3.00793783E-05 -5.93396753E-05  2.73519201E-05
  3.65880083E-05  7.43388659E-06  1.24031944E-06  1.22356435E-05 -6.12682315E-06
  7.49896685E-06 -8.08176757E-06 -5.77400505E-06  1.30040975E-04 -1.50588412E-05
 -5.17397983E-05  5.32368755E-05 -1.67395685E-04  1.82654228E-05 -7.51387503E-05
  5.02567698E-06  2.90105807E-05 -4.85507458E-06 -2.88992254E-05  4.07807388E-04
 -2.27293880E-04  1.40326502E-05 -3.05882690E-05  4.11385652E-05 -4.36229307E-05
 -3.58812046E-05  3.92705076E-04 -2.48159148E-04  2.58904020E-04  2.07558786E-04
 -9.37957761E-04 -1.56177068E-04 -3.74562465E-04 -5.61667595E-04  1.44883631E-05
  5.40338692E-05 -2.61202559E-05 -1.54634511E-04 -1.08605100E-04  1.12445335E-04
 -1.07127542E-02 -2.76197279E-04  8.24375791E-06 -3.22608349E-06 -2.60781685E-05
  2.27104913E-04 -4.28488669E-05 -6.03548776E-05  7.95762438E-05  1.38285698E-06
  2.45306370E-05  8.37240735E-06  1.46971603E-05  1.18002459E-05 -2.10612007E-05
  9.94551600E-01  2.11179629E-02 -2.21715330E-04 -1.62837900E-04 -1.10261018E-03
  4.48073012E-03  3.04218819E-04  1.35605714E-05  6.37808795E-04 -4.20881137E-03
 -4.14136668E-03 -4.18209081E-03  1.97929071E-04 -6.51946999E-05 -2.27075828E-05
  5.12517515E-04 -5.34056299E-05 -8.51670990E-06 -1.12174754E-05  3.33424831E-06
  4.49465345E-04  2.08791137E-05  9.89044090E-05 -8.02627186E-05 -6.67272910E-05
 -6.05047899E-05 -2.42565945E-05  3.64560621E-05  1.93309428E-06 -7.29735156E-06
 -8.44751002E-05  5.15005890E-05  1.05986073E-05  1.99362898E-06 -1.41276850E-05
 -2.34702316E-04  6.16912872E-06 -1.12723893E-05  5.67749089E-05  4.86404092E-05
  3.50322325E-05  4.83412184E-05  1.41757513E-05  1.42386226E-05 -1.15786814E-05
 -1.01658463E-05 -5.05938745E-05  1.90261374E-05  1.01763811E-05 -1.08377009E-06
  2.09278557E-04 -1.40102920E-04 -5.77996027E-05  6.77127981E-05 -1.15738644E-05
 -1.53874306E-05 -1.49067572E-05  1.73007885E-06 -4.80456147E-06 -5.95606915E-06
 -1.82585420E-05  1.62594736E-04  2.80495435E-04 -1.73725858E-04  1.87061808E-04
  1.16439685E-04  2.07634545E-06 -7.23374475E-05 -1.82637799E-04  8.59031001E-05
  1.31133544E-05 -2.40420392E-05 -8.90607325E-05  7.60627495E-05 -6.04278350E-05
  5.61079936E-06 -8.23598350E-05  6.19466256E-07  5.40282503E-05 -2.31041334E-05
  5.55033752E-05 -3.47326401E-05 -9.72743671E-05 -4.26795112E-05 -3.54976581E-05
  1.33505599E-05 -1.86910962E-05  2.78038420E-07  9.92981082E-05  1.35514242E-05
 -4.61811919E-05 -4.83197534E-05 -4.53262612E-05  2.26805618E-05  3.48902899E-04
  3.04691810E-04  3.03141000E-04 -1.33331985E-04 -7.37121569E-04 -1.12681961E-04
 -2.67298003E-04  4.38590146E-04  8.08955660E-05  2.60010317E-05 -7.09993497E-05
  1.43227823E-04 -1.01031613E-04 -9.78155491E-05  9.94546093E-01  2.11574948E-02
 -1.07417263E-04  2.30863215E-05  1.12993378E-03  4.42441840E-03 -4.66830317E-05
 -6.91979102E-05 -6.63359164E-04 -4.19143495E-03 -4.15897682E-03 -4.18979283E-03
 -2.06181372E-04 -2.73441851E-05 -4.20808182E-05  1.07031391E-02  2.31814872E-04
 -1.15832112E-05 -1.39050746E-05  1.69288336E-06  4.39657645E-05  2.73469524E-05
  5.41229058E-06 -1.97125746E-05 -5.76905202E-05 -2.88684032E-05 -5.03254907E-05