12565107                                                                
Freq      RMP2-FC                                                     6-31G(d)            
Number of atoms                            I               11
Info1-9                                    I   N=           9
          23          21        1002           0           0         100
           6           2           1
Charge                                     I                0
Multiplicity                               I                1
Number of electrons                        I              128
Number of alpha electrons                  I               64
Number of beta electrons                   I               64
Number of basis functions                  I              145
Number of independent functions            I              145
Number of point charges in /Mol/           I                0
Number of translation vectors              I                0
Atomic numbers                             I   N=          11
          35          35          35           6           6           6
           1           1           1           1           1
Nuclear charges                            R   N=          11
  3.50000000E+01  3.50000000E+01  3.50000000E+01  6.00000000E+00  6.00000000E+00
  6.00000000E+00  1.00000000E+00  1.00000000E+00  1.00000000E+00  1.00000000E+00
  1.00000000E+00
Current cartesian coordinates              R   N=          33
 -3.68996610E+00 -2.35081780E-05  3.59078357E-01  1.28403850E+00 -3.00528826E+00
 -1.13900709E+00  1.28399931E+00  3.00531214E+00 -1.13899486E+00  7.80616792E-01
 -1.99324635E-06  3.37401515E+00  5.84655970E-03 -9.96809679E-08  6.01254850E-01
  3.62418267E+00  7.68763546E-07  3.82829452E+00 -9.51452317E-02  1.66992176E+00
  4.22871731E+00 -9.51399255E-02 -1.66993098E+00  4.22871254E+00  4.50442154E+00
  1.67676481E+00  3.01048781E+00  3.98505174E+00 -3.10791633E-06  5.86254049E+00
  4.50442572E+00 -1.67675769E+00  3.01048067E+00
Force Field                                I                0
Int Atom Types                             I   N=          11
           0           0           0           0           0           0
           0           0           0           0           0
MM charges                                 R   N=          11
  0.00000000E+00  0.00000000E+00  0.00000000E+00  0.00000000E+00  0.00000000E+00
  0.00000000E+00  0.00000000E+00  0.00000000E+00  0.00000000E+00  0.00000000E+00
  0.00000000E+00
Integer atomic weights                     I   N=          11
          79          79          79          12          12          12
           1           1           1           1           1
Real atomic weights                        R   N=          11
  7.89183361E+01  7.89183361E+01  7.89183361E+01  1.20000000E+01  1.20000000E+01
  1.20000000E+01  1.00782504E+00  1.00782504E+00  1.00782504E+00  1.00782504E+00
  1.00782504E+00
Atom fragment info                         I   N=          11
           0           0           0           0           0           0
           0           0           0           0           0
Atom residue num                           I   N=          11
           0           0           0           0           0           0
           0           0           0           0           0
Nuclear spins                              I   N=          11
           3           3           3           0           0           0
           1           1           1           1           1
Nuclear ZEff                               R   N=          11
 -2.45000000E+01 -2.45000000E+01 -2.45000000E+01 -3.60000000E+00 -3.60000000E+00
 -3.60000000E+00 -1.00000000E+00 -1.00000000E+00 -1.00000000E+00 -1.00000000E+00
 -1.00000000E+00
Nuclear QMom                               R   N=          11
  3.13000000E+01  3.13000000E+01  3.13000000E+01  0.00000000E+00  0.00000000E+00
  0.00000000E+00  0.00000000E+00  0.00000000E+00  0.00000000E+00  0.00000000E+00
  0.00000000E+00
Nuclear GFac                               R   N=          11
  2.10639900E+00  2.10639900E+00  2.10639900E+00  0.00000000E+00  0.00000000E+00
  0.00000000E+00  2.79284600E+00  2.79284600E+00  2.79284600E+00  2.79284600E+00
  2.79284600E+00
MicOpt                                     I   N=          11
          -1          -1          -1          -1          -1          -1
          -1          -1          -1          -1          -1
Number of contracted shells                I               58
Number of primitive shells                 I              146
Pure/Cartesian d shells                    I                1
Pure/Cartesian f shells                    I                0
Highest angular momentum                   I                2
Largest degree of contraction              I                8
Shell types                                I   N=          58
           0           0           0           0           0           0
           1           1           1           1           2           2
           0           0           0           0           0           0
           1           1           1           1           2           2
           0           0           0           0           0           0
           1           1           1           1           2           2
           0          -1          -1           2           0          -1
          -1           2           0          -1          -1           2
           0           0           0           0           0           0
           0           0           0           0
Number of primitives per shell             I   N=          58
           8           2           1           1           1           1
           6           3           1           1           5           1
           8           2           1           1           1           1
           6           3           1           1           5           1
           8           2           1           1           1           1
           6           3           1           1           5           1
           6           3           1           1           6           3
           1           1           6           3           1           1
           3           1           3           1           3           1
           3           1           3           1
Shell to atom map                          I   N=          58
           1           1           1           1           1           1
           1           1           1           1           1           1
           2           2           2           2           2           2
           2           2           2           2           2           2
           3           3           3           3           3           3
           3           3           3           3           3           3
           4           4           4           4           5           5
           5           5           6           6           6           6
           7           7           8           8           9           9
          10          10          11          11
Primitive exponents                        R   N=         146
  5.74300000E+05  8.90700000E+04  2.02100000E+04  5.73600000E+03  1.89900000E+03
  6.98700000E+02  2.77800000E+02  1.15200000E+02  3.59700000E+01  1.55000000E+01
  4.77100000E+00  2.07700000E+00  4.21100000E-01  1.61000000E-01  4.40600000E+03
  1.04200000E+03  3.32100000E+02  1.21900000E+02  4.92400000E+01  2.11600000E+01
  8.83600000E+00  3.82900000E+00  1.64300000E+00  4.65000000E-01  1.42700000E-01
  1.08400000E+02  3.07100000E+01  1.06600000E+01  3.85100000E+00  1.31700000E+00
  3.38000000E-01  5.74300000E+05  8.90700000E+04  2.02100000E+04  5.73600000E+03
  1.89900000E+03  6.98700000E+02  2.77800000E+02  1.15200000E+02  3.59700000E+01
  1.55000000E+01  4.77100000E+00  2.07700000E+00  4.21100000E-01  1.61000000E-01
  4.40600000E+03  1.04200000E+03  3.32100000E+02  1.21900000E+02  4.92400000E+01
  2.11600000E+01  8.83600000E+00  3.82900000E+00  1.64300000E+00  4.65000000E-01
  1.42700000E-01  1.08400000E+02  3.07100000E+01  1.06600000E+01  3.85100000E+00
  1.31700000E+00  3.38000000E-01  5.74300000E+05  8.90700000E+04  2.02100000E+04
  5.73600000E+03  1.89900000E+03  6.98700000E+02  2.77800000E+02  1.15200000E+02
  3.59700000E+01  1.55000000E+01  4.77100000E+00  2.07700000E+00  4.21100000E-01
  1.61000000E-01  4.40600000E+03  1.04200000E+03  3.32100000E+02  1.21900000E+02
  4.92400000E+01  2.11600000E+01  8.83600000E+00  3.82900000E+00  1.64300000E+00
  4.65000000E-01  1.42700000E-01  1.08400000E+02  3.07100000E+01  1.06600000E+01
  3.85100000E+00  1.31700000E+00  3.38000000E-01  3.04752488E+03  4.57369518E+02
  1.03948685E+02  2.92101553E+01  9.28666296E+00  3.16392696E+00  7.86827235E+00
  1.88128854E+00  5.44249258E-01  1.68714478E-01  8.00000000E-01  3.04752488E+03
  4.57369518E+02  1.03948685E+02  2.92101553E+01  9.28666296E+00  3.16392696E+00
  7.86827235E+00  1.88128854E+00  5.44249258E-01  1.68714478E-01  8.00000000E-01
  3.04752488E+03  4.57369518E+02  1.03948685E+02  2.92101553E+01  9.28666296E+00
  3.16392696E+00  7.86827235E+00  1.88128854E+00  5.44249258E-01  1.68714478E-01
  8.00000000E-01  1.87311370E+01  2.82539436E+00  6.40121692E-01  1.61277759E-01
  1.87311370E+01  2.82539436E+00  6.40121692E-01  1.61277759E-01  1.87311370E+01
  2.82539436E+00  6.40121692E-01  1.61277759E-01  1.87311370E+01  2.82539436E+00
  6.40121692E-01  1.61277759E-01  1.87311370E+01  2.82539436E+00  6.40121692E-01
  1.61277759E-01
Contraction coefficients                   R   N=         146
  2.10682753E-04  1.61271721E-03  8.36010959E-03  3.40275588E-02  1.08515001E-01
  2.67396944E-01  4.29567221E-01  2.86993117E-01  2.77772914E-01  7.47057636E-01
  1.00000000E+00  1.00000000E+00  1.00000000E+00  1.00000000E+00  1.39552623E-03
  1.23748283E-02  6.10175241E-02  2.26775547E-01  4.05975875E-01  4.50692322E-01
  2.92018585E-01  5.30220862E-01  2.75287404E-01  1.00000000E+00  1.00000000E+00
  2.15879371E-02  1.34176036E-01  3.67870647E-01  4.91895206E-01  2.68321979E-01
  1.00000000E+00  2.10682753E-04  1.61271721E-03  8.36010959E-03  3.40275588E-02
  1.08515001E-01  2.67396944E-01  4.29567221E-01  2.86993117E-01  2.77772914E-01
  7.47057636E-01  1.00000000E+00  1.00000000E+00  1.00000000E+00  1.00000000E+00
  1.39552623E-03  1.23748283E-02  6.10175241E-02  2.26775547E-01  4.05975875E-01
  4.50692322E-01  2.92018585E-01  5.30220862E-01  2.75287404E-01  1.00000000E+00
  1.00000000E+00  2.15879371E-02  1.34176036E-01  3.67870647E-01  4.91895206E-01
  2.68321979E-01  1.00000000E+00  2.10682753E-04  1.61271721E-03  8.36010959E-03
  3.40275588E-02  1.08515001E-01  2.67396944E-01  4.29567221E-01  2.86993117E-01
  2.77772914E-01  7.47057636E-01  1.00000000E+00  1.00000000E+00  1.00000000E+00
  1.00000000E+00  1.39552623E-03  1.23748283E-02  6.10175241E-02  2.26775547E-01
  4.05975875E-01  4.50692322E-01  2.92018585E-01  5.30220862E-01  2.75287404E-01
  1.00000000E+00  1.00000000E+00  2.15879371E-02  1.34176036E-01  3.67870647E-01
  4.91895206E-01  2.68321979E-01  1.00000000E+00  1.83473713E-03  1.40373228E-02
  6.88426223E-02  2.32184443E-01  4.67941348E-01  3.62311985E-01 -1.19332420E-01
 -1.60854152E-01  1.14345644E+00  1.00000000E+00  1.00000000E+00  1.83473713E-03
  1.40373228E-02  6.88426223E-02  2.32184443E-01  4.67941348E-01  3.62311985E-01
 -1.19332420E-01 -1.60854152E-01  1.14345644E+00  1.00000000E+00  1.00000000E+00
  1.83473713E-03  1.40373228E-02  6.88426223E-02  2.32184443E-01  4.67941348E-01
  3.62311985E-01 -1.19332420E-01 -1.60854152E-01  1.14345644E+00  1.00000000E+00
  1.00000000E+00  3.34946043E-02  2.34726953E-01  8.13757326E-01  1.00000000E+00
  3.34946043E-02  2.34726953E-01  8.13757326E-01  1.00000000E+00  3.34946043E-02
  2.34726953E-01  8.13757326E-01  1.00000000E+00  3.34946043E-02  2.34726953E-01
  8.13757326E-01  1.00000000E+00  3.34946043E-02  2.34726953E-01  8.13757326E-01
  1.00000000E+00
P(S=P) Contraction coefficients            R   N=         146
  0.00000000E+00  0.00000000E+00  0.00000000E+00  0.00000000E+00  0.00000000E+00
  0.00000000E+00  0.00000000E+00  0.00000000E+00  0.00000000E+00  0.00000000E+00
  0.00000000E+00  0.00000000E+00  0.00000000E+00  0.00000000E+00  0.00000000E+00
  0.00000000E+00  0.00000000E+00  0.00000000E+00  0.00000000E+00  0.00000000E+00
  0.00000000E+00  0.00000000E+00  0.00000000E+00  0.00000000E+00  0.00000000E+00
  0.00000000E+00  0.00000000E+00  0.00000000E+00  0.00000000E+00  0.00000000E+00
  0.00000000E+00  0.00000000E+00  0.00000000E+00  0.00000000E+00  0.00000000E+00
  0.00000000E+00  0.00000000E+00  0.00000000E+00  0.00000000E+00  0.00000000E+00
  0.00000000E+00  0.00000000E+00  0.00000000E+00  0.00000000E+00  0.00000000E+00
  0.00000000E+00  0.00000000E+00  0.00000000E+00  0.00000000E+00  0.00000000E+00
  0.00000000E+00  0.00000000E+00  0.00000000E+00  0.00000000E+00  0.00000000E+00
  0.00000000E+00  0.00000000E+00  0.00000000E+00  0.00000000E+00  0.00000000E+00
  0.00000000E+00  0.00000000E+00  0.00000000E+00  0.00000000E+00  0.00000000E+00
  0.00000000E+00  0.00000000E+00  0.00000000E+00  0.00000000E+00  0.00000000E+00
  0.00000000E+00  0.00000000E+00  0.00000000E+00  0.00000000E+00  0.00000000E+00
  0.00000000E+00  0.00000000E+00  0.00000000E+00  0.00000000E+00  0.00000000E+00
  0.00000000E+00  0.00000000E+00  0.00000000E+00  0.00000000E+00  0.00000000E+00
  0.00000000E+00  0.00000000E+00  0.00000000E+00  0.00000000E+00  0.00000000E+00
  0.00000000E+00  0.00000000E+00  0.00000000E+00  0.00000000E+00  0.00000000E+00
  0.00000000E+00  0.00000000E+00  0.00000000E+00  0.00000000E+00  6.89990666E-02
  3.16423961E-01  7.44308291E-01  1.00000000E+00  0.00000000E+00  0.00000000E+00
  0.00000000E+00  0.00000000E+00  0.00000000E+00  0.00000000E+00  0.00000000E+00
  6.89990666E-02  3.16423961E-01  7.44308291E-01  1.00000000E+00  0.00000000E+00
  0.00000000E+00  0.00000000E+00  0.00000000E+00  0.00000000E+00  0.00000000E+00
  0.00000000E+00  6.89990666E-02  3.16423961E-01  7.44308291E-01  1.00000000E+00
  0.00000000E+00  0.00000000E+00  0.00000000E+00  0.00000000E+00  0.00000000E+00
  0.00000000E+00  0.00000000E+00  0.00000000E+00  0.00000000E+00  0.00000000E+00
  0.00000000E+00  0.00000000E+00  0.00000000E+00  0.00000000E+00  0.00000000E+00
  0.00000000E+00  0.00000000E+00  0.00000000E+00  0.00000000E+00  0.00000000E+00
  0.00000000E+00
Coordinates of each shell                  R   N=         174
 -3.68996610E+00 -2.35081780E-05  3.59078357E-01 -3.68996610E+00 -2.35081780E-05
  3.59078357E-01 -3.68996610E+00 -2.35081780E-05  3.59078357E-01 -3.68996610E+00
 -2.35081780E-05  3.59078357E-01 -3.68996610E+00 -2.35081780E-05  3.59078357E-01
 -3.68996610E+00 -2.35081780E-05  3.59078357E-01 -3.68996610E+00 -2.35081780E-05
  3.59078357E-01 -3.68996610E+00 -2.35081780E-05  3.59078357E-01 -3.68996610E+00
 -2.35081780E-05  3.59078357E-01 -3.68996610E+00 -2.35081780E-05  3.59078357E-01
 -3.68996610E+00 -2.35081780E-05  3.59078357E-01 -3.68996610E+00 -2.35081780E-05
  3.59078357E-01  1.28403850E+00 -3.00528826E+00 -1.13900709E+00  1.28403850E+00
 -3.00528826E+00 -1.13900709E+00  1.28403850E+00 -3.00528826E+00 -1.13900709E+00
  1.28403850E+00 -3.00528826E+00 -1.13900709E+00  1.28403850E+00 -3.00528826E+00
 -1.13900709E+00  1.28403850E+00 -3.00528826E+00 -1.13900709E+00  1.28403850E+00
 -3.00528826E+00 -1.13900709E+00  1.28403850E+00 -3.00528826E+00 -1.13900709E+00
  1.28403850E+00 -3.00528826E+00 -1.13900709E+00  1.28403850E+00 -3.00528826E+00
 -1.13900709E+00  1.28403850E+00 -3.00528826E+00 -1.13900709E+00  1.28403850E+00
 -3.00528826E+00 -1.13900709E+00  1.28399931E+00  3.00531214E+00 -1.13899486E+00
  1.28399931E+00  3.00531214E+00 -1.13899486E+00  1.28399931E+00  3.00531214E+00
 -1.13899486E+00  1.28399931E+00  3.00531214E+00 -1.13899486E+00  1.28399931E+00
  3.00531214E+00 -1.13899486E+00  1.28399931E+00  3.00531214E+00 -1.13899486E+00
  1.28399931E+00  3.00531214E+00 -1.13899486E+00  1.28399931E+00  3.00531214E+00
 -1.13899486E+00  1.28399931E+00  3.00531214E+00 -1.13899486E+00  1.28399931E+00
  3.00531214E+00 -1.13899486E+00  1.28399931E+00  3.00531214E+00 -1.13899486E+00
  1.28399931E+00  3.00531214E+00 -1.13899486E+00  7.80616792E-01 -1.99324635E-06
  3.37401515E+00  7.80616792E-01 -1.99324635E-06  3.37401515E+00  7.80616792E-01
 -1.99324635E-06  3.37401515E+00  7.80616792E-01 -1.99324635E-06  3.37401515E+00
  5.84655970E-03 -9.96809679E-08  6.01254850E-01  5.84655970E-03 -9.96809679E-08
  6.01254850E-01  5.84655970E-03 -9.96809679E-08  6.01254850E-01  5.84655970E-03
 -9.96809679E-08  6.01254850E-01  3.62418267E+00  7.68763546E-07  3.82829452E+00
  3.62418267E+00  7.68763546E-07  3.82829452E+00  3.62418267E+00  7.68763546E-07
  3.82829452E+00  3.62418267E+00  7.68763546E-07  3.82829452E+00 -9.51452317E-02
  1.66992176E+00  4.22871731E+00 -9.51452317E-02  1.66992176E+00  4.22871731E+00
 -9.51399255E-02 -1.66993098E+00  4.22871254E+00 -9.51399255E-02 -1.66993098E+00
  4.22871254E+00  4.50442154E+00  1.67676481E+00  3.01048781E+00  4.50442154E+00
  1.67676481E+00  3.01048781E+00  3.98505174E+00 -3.10791633E-06  5.86254049E+00
  3.98505174E+00 -3.10791633E-06  5.86254049E+00  4.50442572E+00 -1.67675769E+00
  3.01048067E+00  4.50442572E+00 -1.67675769E+00  3.01048067E+00
Constraint Structure                       R   N=          33
 -3.68996610E+00 -2.35081780E-05  3.59078357E-01  1.28403850E+00 -3.00528826E+00
 -1.13900709E+00  1.28399931E+00  3.00531214E+00 -1.13899486E+00  7.80616792E-01
 -1.99324635E-06  3.37401515E+00  5.84655970E-03 -9.96809679E-08  6.01254850E-01
  3.62418267E+00  7.68763546E-07  3.82829452E+00 -9.51452317E-02  1.66992176E+00
  4.22871731E+00 -9.51399255E-02 -1.66993098E+00  4.22871254E+00  4.50442154E+00
  1.67676481E+00  3.01048781E+00  3.98505174E+00 -3.10791633E-06  5.86254049E+00
  4.50442572E+00 -1.67675769E+00  3.01048067E+00
Num ILSW                                   I              100
ILSW                                       I   N=         100
           0           1           0           0           2           0
           0           0           0           0           0          -1
           0           0           0           0           0           0
           0           0           0           0           1           0
           1           0           0           0           0           0
           0           0      100000           0          -1           0
           0           0           0           0           0           0
           0           0           0           1           1           0
           0           0           1           0           0           0
           0           0           4          40           0           0
           0           0           0           0           0           0
           0           0           0           0           0           0
           0           0           0           0           0           0
           0           0           0           0           0           0
           0           0           0           0           0           0
           0           0           0           0           0           0
           0           0           0           0
Num RLSW                                   I               40
RLSW                                       R   N=          40
  1.00000000E+00  1.00000000E+00  1.00000000E+00  1.00000000E+00  1.00000000E+00
  0.00000000E+00  0.00000000E+00  1.00000000E+00  0.00000000E+00  0.00000000E+00
  0.00000000E+00  0.00000000E+00  1.00000000E+00  0.00000000E+00  0.00000000E+00
  0.00000000E+00  0.00000000E+00  1.00000000E+00  0.00000000E+00  0.00000000E+00
  0.00000000E+00  0.00000000E+00  1.00000000E+00  0.00000000E+00  0.00000000E+00
  0.00000000E+00  0.00000000E+00  1.00000000E+00  0.00000000E+00  0.00000000E+00
  0.00000000E+00  0.00000000E+00  0.00000000E+00  0.00000000E+00  0.00000000E+00
  0.00000000E+00  0.00000000E+00  0.00000000E+00  1.00000000E+00  1.00000000E+00
MxBond                                     I                4
NBond                                      I   N=          11
           1           1           1           4           4           4
           1           1           1           1           1
IBond                                      I   N=          44
           5           0           0           0           5           0
           0           0           5           0           0           0
           5           6           7           8           1           2
           3           4           4           9          10          11
           4           0           0           0           4           0
           0           0           6           0           0           0
           6           0           0           0           6           0
           0           0
RBond                                      R   N=          44
  1.00000000E+00  0.00000000E+00  0.00000000E+00  0.00000000E+00  1.00000000E+00
  0.00000000E+00  0.00000000E+00  0.00000000E+00  1.00000000E+00  0.00000000E+00
  0.00000000E+00  0.00000000E+00  1.00000000E+00  1.00000000E+00  1.00000000E+00
  1.00000000E+00  1.00000000E+00  1.00000000E+00  1.00000000E+00  1.00000000E+00
  1.00000000E+00  1.00000000E+00  1.00000000E+00  1.00000000E+00  1.00000000E+00
  0.00000000E+00  0.00000000E+00  0.00000000E+00  1.00000000E+00  0.00000000E+00
  0.00000000E+00  0.00000000E+00  1.00000000E+00  0.00000000E+00  0.00000000E+00
  0.00000000E+00  1.00000000E+00  0.00000000E+00  0.00000000E+00  0.00000000E+00
  1.00000000E+00  0.00000000E+00  0.00000000E+00  0.00000000E+00
Virial Ratio                               R      2.004491400840200E+00
SCF Energy                                 R     -7.826169022702527E+03
MP2 Energy                                 R     -7.826916268834013E+03
Total Energy                               R     -7.826916268834013E+03
Post-SCF wavefunction norm                 R      1.615763560045138E+00
RMS Force                                  R      1.197487010412383E-06
RMS Density                                R      1.006881322437514E-09
External E-field                           R   N=          35
  0.00000000E+00  0.00000000E+00  0.00000000E+00  0.00000000E+00  0.00000000E+00
  0.00000000E+00  0.00000000E+00  0.00000000E+00  0.00000000E+00  0.00000000E+00
  0.00000000E+00  0.00000000E+00  0.00000000E+00  0.00000000E+00  0.00000000E+00
  0.00000000E+00  0.00000000E+00  0.00000000E+00  0.00000000E+00  0.00000000E+00
  0.00000000E+00  0.00000000E+00  0.00000000E+00  0.00000000E+00  0.00000000E+00
  0.00000000E+00  0.00000000E+00  0.00000000E+00  0.00000000E+00  0.00000000E+00
  0.00000000E+00  0.00000000E+00  0.00000000E+00  0.00000000E+00  0.00000000E+00
IOpCl                                      I                0
IROHF                                      I                0
Alpha Orbital Energies                     R   N=         145
 -4.90083376E+02 -4.90083261E+02 -4.90082576E+02 -6.44952927E+01 -6.44948957E+01
 -6.44935548E+01 -5.86335586E+01 -5.86335032E+01 -5.86330945E+01 -5.86315937E+01
 -5.86315700E+01 -5.86315391E+01 -5.86314267E+01 -5.86310582E+01 -5.86310568E+01
 -1.14225110E+01 -1.12680527E+01 -1.12343035E+01 -9.74258926E+00 -9.74239068E+00
 -9.74189946E+00 -7.49176382E+00 -7.49176086E+00 -7.49145444E+00 -7.48213569E+00
 -7.48213094E+00 -7.48209359E+00 -7.48209044E+00 -7.48177467E+00 -7.48176762E+00
 -3.23072642E+00 -3.23071340E+00 -3.23043172E+00 -3.22624569E+00 -3.22623788E+00
 -3.22620541E+00 -3.22620334E+00 -3.22592116E+00 -3.22591680E+00 -3.21493967E+00
 -3.21493668E+00 -3.21493540E+00 -3.21493097E+00 -3.21458205E+00 -3.21457924E+00
 -1.16617370E+00 -1.04128180E+00 -1.00809624E+00 -1.00750571E+00 -9.01388453E-01
 -7.62632834E-01 -6.55116651E-01 -6.29672297E-01 -5.89409971E-01 -5.61317010E-01
 -5.32133370E-01 -5.14757508E-01 -4.99488902E-01 -4.43515449E-01 -4.42267412E-01
 -4.28242447E-01 -4.07367606E-01 -4.06940358E-01 -3.95455428E-01  8.26579489E-02
  1.45357052E-01  1.49375335E-01  2.38485450E-01  2.84182656E-01  2.84294889E-01
  3.06358008E-01  3.25972790E-01  3.30198128E-01  3.61068787E-01  4.08696034E-01
  4.37431461E-01  4.51877525E-01  5.37020619E-01  5.44230063E-01  5.64741932E-01
  5.73230412E-01  5.78238512E-01  6.01819776E-01  6.18816281E-01  6.21768739E-01
  6.39364047E-01  6.44142224E-01  6.50396387E-01  6.54801283E-01  6.63586434E-01
  6.65847060E-01  6.76264607E-01  7.08681640E-01  7.27573239E-01  7.36790031E-01
  8.11223025E-01  8.32712801E-01  8.38090217E-01  8.57981620E-01  8.58915634E-01
  9.38714813E-01  9.45785807E-01  1.00731661E+00  1.01007273E+00  1.03616512E+00
  1.07950774E+00  1.10102818E+00  1.14466393E+00  1.16603873E+00  1.18128828E+00
  1.19110104E+00  1.24701174E+00  1.26942590E+00  1.32491916E+00  1.34976325E+00
  1.43018982E+00  1.68008125E+00  1.77729620E+00  1.79909754E+00  1.84392702E+00
  1.88580853E+00  1.89770814E+00  1.93665293E+00  1.99638628E+00  2.16983698E+00
  2.21008796E+00  2.23881341E+00  2.30103732E+00  2.35350171E+00  2.42225174E+00
  2.48219668E+00  2.64246705E+00  2.66598521E+00  2.69439810E+00  2.90131968E+00
  3.00316956E+00  4.48156656E+00  4.66375070E+00  4.86541615E+00  9.25846138E+00
  9.32929733E+00  9.34104708E+00  7.40743846E+01  7.59121154E+01  7.61471449E+01
Alpha MO coefficients                      R   N=       21025
 -4.96908110E-06 -1.72825844E-07  2.49478212E-07  2.73205126E-07  1.16186139E-07
  2.01344089E-07 -4.92982533E-11 -2.69058877E-06  5.81082095E-11  1.21988294E-10
  1.01830089E-05 -2.24677164E-10 -3.57273262E-09 -9.60669634E-05  1.99466990E-09
  2.72159951E-08  4.04959333E-04 -8.56541809E-09 -2.54095167E-07 -2.53919059E-07
 -2.53320017E-07 -1.97982525E-05  3.33905531E-10  9.53400130E-06 -7.49390982E-08
 -7.91007783E-08 -8.52920974E-08  2.02280910E-04 -3.66207531E-09 -8.46100938E-05
 -7.03541873E-01 -2.34419248E-02  3.20668408E-02  3.45569784E-02  1.82938988E-02
  1.62435584E-02  4.23075425E-06 -1.82004006E-05 -1.02402615E-05 -1.18662795E-05
  5.87004475E-05  3.25145516E-05  4.98210322E-05 -3.17461284E-04 -1.52184331E-04
 -9.14594596E-05  8.25810835E-04  3.02983494E-04 -3.20269548E-02 -3.20518283E-02
 -3.20308061E-02  6.06036526E-07 -7.00840700E-07 -3.98442612E-06 -8.55314536E-03
 -8.31473698E-03 -8.52316253E-03 -3.32513764E-06  3.90672627E-06  2.78648184E-05
  7.03610700E-01  2.34442004E-02 -3.20699214E-02 -3.45602895E-02 -1.82957298E-02
 -1.62449069E-02 -4.23121771E-06 -1.82022485E-05  1.02413864E-05  1.18677466E-05
  5.87063140E-05 -3.25182126E-05 -4.98277522E-05 -3.17483603E-04  1.52201082E-04
  9.14660337E-05  8.25813681E-04 -3.03005153E-04  3.20300230E-02  3.20548941E-02
  3.20338738E-02  6.05923307E-07  7.00955480E-07 -3.98476372E-06  8.55390875E-03
  8.31552714E-03  8.52393018E-03 -3.32210460E-06 -3.90792271E-06  2.78643345E-05
  2.85344883E-10 -3.97663340E-09 -2.49167625E-09 -3.98060908E-05 -1.50702223E-09
 -7.24300160E-09  1.03238415E-08  6.93794467E-04 -2.07265476E-08  4.38579723E-10
  3.05316442E-09  5.82108317E-09 -1.27298440E-05 -1.22437794E-10 -5.47411278E-05
  2.66709612E-09  1.12664518E-08 -3.00405116E-09 -2.29582725E-04  4.83719998E-09
 -4.09316099E-08 -5.31587468E-09  1.01292268E-04  6.27764003E-09  2.19913899E-09
 -4.20394216E-09 -2.37803860E-10 -4.29884541E-05  4.08106592E-10  4.67502051E-05
 -2.36044297E-10 -1.72186710E-09  2.74692651E-09  3.94525406E-05  3.57519427E-09
 -1.77527478E-08 -1.38208489E-08 -5.49178170E-04 -1.25863923E-08  6.95884651E-10
 -6.08235806E-10 -4.99285602E-10 -1.35933407E-05  6.23844817E-10 -3.10332818E-05
 -1.16449563E-04 -7.45131716E-05  1.16448797E-04  7.45427361E-05 -3.24621558E-05
  6.47384581E-04  2.45931128E-09  9.81032099E-09  3.24560878E-05 -6.47353799E-04
 -1.20015843E-01 -4.14530594E-03  5.93395600E-03  6.48327344E-03  2.86828845E-03
  4.49888396E-03 -1.91296335E-06  1.20466915E-10  1.15287287E-06  5.58092626E-06
 -4.66635190E-10 -4.50913869E-06 -9.27005989E-05  4.11602278E-09  4.31055681E-05
  6.20304337E-04 -1.57650631E-08 -1.94063641E-04 -6.03110372E-03 -6.01787195E-03
 -6.01128093E-03  8.80627541E-10  9.45047739E-06 -4.33350728E-10 -1.69885395E-03
 -1.88059918E-03 -1.95009123E-03 -8.57733013E-09 -9.91813353E-05  3.75735991E-09
  6.98442342E-01  2.31039974E-02 -3.13005194E-02 -3.36432734E-02 -1.85638957E-02
 -1.38290674E-02 -6.77737446E-06  1.75643610E-05  1.25902500E-05  2.13337308E-05
 -5.58660604E-05 -4.11883191E-05 -1.04011335E-04  2.10685500E-04  1.92069139E-04
  1.68646009E-04 -1.65052886E-05 -2.86716743E-04  3.11798287E-02  3.11550332E-02
  3.11755811E-02 -2.95649448E-06  1.56126919E-06  5.11596273E-06  7.78391459E-03
  8.06052207E-03  7.82314002E-03  8.93917623E-06 -1.33445614E-05 -1.28925108E-05
  6.98373167E-01  2.31016916E-02 -3.12973633E-02 -3.36398725E-02 -1.85621004E-02
 -1.38274547E-02 -6.77675455E-06 -1.75626768E-05  1.25891109E-05  2.13319369E-05
  5.58606049E-05 -4.11846636E-05 -1.04004223E-04 -2.10655580E-04  1.92051980E-04
  1.68638122E-04  1.64253772E-05 -2.86683767E-04  3.11766763E-02  3.11518784E-02
  3.11724281E-02  2.95679986E-06  1.56118067E-06 -5.11555687E-06  7.78306901E-03
  8.05969999E-03  7.82229837E-03 -8.94298796E-06 -1.33437054E-05  1.28901041E-05
  6.33789872E-06 -7.53651488E-05 -4.45571399E-05  2.33609437E-09 -3.64924620E-05
 -1.67123927E-04  2.45031540E-04 -3.57654182E-08 -3.39681020E-04  7.74468900E-06
  6.32282834E-05  1.16645184E-04  3.94461770E-10 -9.55165490E-06  2.13997578E-09
  5.01565773E-05  2.08808100E-04 -9.60820005E-05  1.02856803E-08  1.08671624E-04
 -6.93353908E-04 -4.56120011E-05 -5.22723633E-09  1.65795661E-04  3.33588155E-05
 -7.58119722E-05 -1.04378443E-05  2.86871250E-09  2.19389318E-05 -2.12214800E-09
 -2.95623683E-06 -4.89047716E-05  4.78754646E-05 -2.15579065E-09  6.88684444E-05
 -4.17748130E-04 -2.88322549E-04  2.86431479E-08 -3.07497755E-04  1.53432252E-05
 -2.95914172E-06  1.67212242E-05  9.49754598E-10  1.94478186E-05  1.51716497E-09
 -9.06471027E-06  2.57325856E-04 -9.07680535E-06  2.57314064E-04 -5.97375200E-05