11575                                                                   
Freq      RMP2-FC                                                     Gen                 
Number of atoms                            I               12
Info1-9                                    I   N=           9
          91          89        1002           0           0         100
           6           2           1
Charge                                     I                0
Multiplicity                               I                1
Number of electrons                        I               94
Number of alpha electrons                  I               47
Number of beta electrons                   I               47
Number of basis functions                  I              200
Number of independent functions            I              200
Number of point charges in /Mol/           I                0
Number of translation vectors              I                0
Atomic numbers                             I   N=          12
          53           6           6           6           6           6
           6           1           1           1           1           1
Nuclear charges                            R   N=          12
  5.30000000E+01  6.00000000E+00  6.00000000E+00  6.00000000E+00  6.00000000E+00
  6.00000000E+00  6.00000000E+00  1.00000000E+00  1.00000000E+00  1.00000000E+00
  1.00000000E+00  1.00000000E+00
Current cartesian coordinates              R   N=          36
  2.93739030E+00  1.59014835E-09 -1.05824663E-04 -1.05333713E+00  2.03622249E-11
  3.77945227E-05 -2.35756563E+00 -2.30184517E+00  9.25965805E-05 -2.35756563E+00
  2.30184517E+00  7.55890453E-05 -5.00132084E+00 -2.28485275E+00  1.87082887E-04
 -5.00132084E+00  2.28485275E+00  1.70075352E-04 -6.32923895E+00 -2.05495804E-09
  2.26767136E-04 -1.33218322E+00 -4.07771152E+00  6.42506885E-05 -1.33218322E+00
  4.07771152E+00  3.21253443E-05 -6.01698438E+00 -4.06920775E+00  2.30546588E-04
 -6.01698438E+00  4.06920775E+00  1.98421244E-04 -8.38121697E+00 -2.86212082E-09
  3.00466455E-04
Force Field                                I                0
Int Atom Types                             I   N=          12
           0           0           0           0           0           0
           0           0           0           0           0           0
MM charges                                 R   N=          12
  0.00000000E+00  0.00000000E+00  0.00000000E+00  0.00000000E+00  0.00000000E+00
  0.00000000E+00  0.00000000E+00  0.00000000E+00  0.00000000E+00  0.00000000E+00
  0.00000000E+00  0.00000000E+00
Integer atomic weights                     I   N=          12
         127          12          12          12          12          12
          12           1           1           1           1           1
Real atomic weights                        R   N=          12
  1.26900400E+02  1.20000000E+01  1.20000000E+01  1.20000000E+01  1.20000000E+01
  1.20000000E+01  1.20000000E+01  1.00782504E+00  1.00782504E+00  1.00782504E+00
  1.00782504E+00  1.00782504E+00
Atom fragment info                         I   N=          12
           0           0           0           0           0           0
           0           0           0           0           0           0
Atom residue num                           I   N=          12
           0           0           0           0           0           0
           0           0           0           0           0           0
Nuclear spins                              I   N=          12
           5           0           0           0           0           0
           0           1           1           1           1           1
Nuclear ZEff                               R   N=          12
 -6.57200000E+01 -3.60000000E+00 -3.60000000E+00 -3.60000000E+00 -3.60000000E+00
 -3.60000000E+00 -3.60000000E+00 -1.00000000E+00 -1.00000000E+00 -1.00000000E+00
 -1.00000000E+00 -1.00000000E+00
Nuclear QMom                               R   N=          12
 -7.10000000E+01  0.00000000E+00  0.00000000E+00  0.00000000E+00  0.00000000E+00
  0.00000000E+00  0.00000000E+00  0.00000000E+00  0.00000000E+00  0.00000000E+00
  0.00000000E+00  0.00000000E+00
Nuclear GFac                               R   N=          12
  2.81328000E+00  0.00000000E+00  0.00000000E+00  0.00000000E+00  0.00000000E+00
  0.00000000E+00  0.00000000E+00  2.79284600E+00  2.79284600E+00  2.79284600E+00
  2.79284600E+00  2.79284600E+00
MicOpt                                     I   N=          12
          -1          -1          -1          -1          -1          -1
          -1          -1          -1          -1          -1          -1
Number of contracted shells                I               74
Number of primitive shells                 I              136
Pure/Cartesian d shells                    I                0
Pure/Cartesian f shells                    I                0
Highest angular momentum                   I                2
Largest degree of contraction              I                6
Shell types                                I   N=          74
           0           0           0           0           0           0
           0           0           0           0           1           1
           1           1           1           1           1           1
           1          -2          -2          -2          -2          -2
           0          -1          -1          -1          -2           0
          -1          -1          -1          -2           0          -1
          -1          -1          -2           0          -1          -1
          -1          -2           0          -1          -1          -1
          -2           0          -1          -1          -1          -2
           0           0           0           1           0           0
           0           1           0           0           0           1
           0           0           0           1           0           0
           0           1
Number of primitives per shell             I   N=          74
           5           2           1           1           1           1
           1           1           1           1           4           1
           1           1           1           1           1           1
           1           3           1           1           1           1
           6           3           1           1           1           6
           3           1           1           1           6           3
           1           1           1           6           3           1
           1           1           6           3           1           1
           1           6           3           1           1           1
           3           1           1           1           3           1
           1           1           3           1           1           1
           3           1           1           1           3           1
           1           1
Shell to atom map                          I   N=          74
           1           1           1           1           1           1
           1           1           1           1           1           1
           1           1           1           1           1           1
           1           1           1           1           1           1
           2           2           2           2           2           3
           3           3           3           3           4           4
           4           4           4           5           5           5
           5           5           6           6           6           6
           6           7           7           7           7           7
           8           8           8           8           9           9
           9           9          10          10          10          10
          11          11          11          11          12          12
          12          12
Primitive exponents                        R   N=         136
  4.44750000E+05  6.61270000E+04  1.48150000E+04  4.14490000E+03  1.36120000E+03
  5.08440000E+02  2.09590000E+02  8.19590000E+01  3.68050000E+01  1.34950000E+01
  6.88590000E+00  2.55200000E+00  1.20880000E+00  2.73400000E-01  1.00900000E-01
  2.95360000E+03  7.12610000E+02  2.36710000E+02  9.26310000E+01  3.97320000E+01
  1.72730000E+01  7.95700000E+00  3.15290000E+00  1.33280000E+00  4.94700000E-01
  2.16000000E-01  8.29300000E-02  2.61950000E+02  7.67340000E+01  2.75510000E+01
  1.06060000E+01  3.42170000E+00  1.13700000E+00  3.02000000E-01  4.56324000E+03
  6.82024000E+02  1.54973000E+02  4.44553000E+01  1.30290000E+01  1.82773000E+00
  2.09642000E+01  4.80331000E+00  1.45933000E+00  4.83456000E-01  1.45585000E-01
  6.26000000E-01  4.56324000E+03  6.82024000E+02  1.54973000E+02  4.44553000E+01
  1.30290000E+01  1.82773000E+00  2.09642000E+01  4.80331000E+00  1.45933000E+00
  4.83456000E-01  1.45585000E-01  6.26000000E-01  4.56324000E+03  6.82024000E+02
  1.54973000E+02  4.44553000E+01  1.30290000E+01  1.82773000E+00  2.09642000E+01
  4.80331000E+00  1.45933000E+00  4.83456000E-01  1.45585000E-01  6.26000000E-01
  4.56324000E+03  6.82024000E+02  1.54973000E+02  4.44553000E+01  1.30290000E+01
  1.82773000E+00  2.09642000E+01  4.80331000E+00  1.45933000E+00  4.83456000E-01
  1.45585000E-01  6.26000000E-01  4.56324000E+03  6.82024000E+02  1.54973000E+02
  4.44553000E+01  1.30290000E+01  1.82773000E+00  2.09642000E+01  4.80331000E+00
  1.45933000E+00  4.83456000E-01  1.45585000E-01  6.26000000E-01  4.56324000E+03
  6.82024000E+02  1.54973000E+02  4.44553000E+01  1.30290000E+01  1.82773000E+00
  2.09642000E+01  4.80331000E+00  1.45933000E+00  4.83456000E-01  1.45585000E-01
  6.26000000E-01  3.38650000E+01  5.09479000E+00  1.15879000E+00  3.25840000E-01
  1.02741000E-01  7.50000000E-01  3.38650000E+01  5.09479000E+00  1.15879000E+00
  3.25840000E-01  1.02741000E-01  7.50000000E-01  3.38650000E+01  5.09479000E+00
  1.15879000E+00  3.25840000E-01  1.02741000E-01  7.50000000E-01  3.38650000E+01
  5.09479000E+00  1.15879000E+00  3.25840000E-01  1.02741000E-01  7.50000000E-01
  3.38650000E+01  5.09479000E+00  1.15879000E+00  3.25840000E-01  1.02741000E-01
  7.50000000E-01
Contraction coefficients                   R   N=         136
  1.86636799E-03  1.45534763E-02  7.56822706E-02  2.84526752E-01  7.10436122E-01
  7.24149751E-01  3.04776831E-01  1.00000000E+00  1.00000000E+00  1.00000000E+00
  1.00000000E+00  1.00000000E+00  1.00000000E+00  1.00000000E+00  1.00000000E+00
  1.56939495E-02  1.10371781E-01  3.79084072E-01  6.15020301E-01  1.00000000E+00
  1.00000000E+00  1.00000000E+00  1.00000000E+00  1.00000000E+00  1.00000000E+00
  1.00000000E+00  1.00000000E+00  5.05248223E-02  3.05784452E-01  7.59270445E-01
  1.00000000E+00  1.00000000E+00  1.00000000E+00  1.00000000E+00  1.96665025E-03
  1.52306019E-02  7.61269097E-02  2.60801033E-01  6.16462078E-01  2.21006028E-01
  1.14660081E-01  9.19999648E-01 -3.03068213E-03  1.00000000E+00  1.00000000E+00
  1.00000000E+00  1.96665025E-03  1.52306019E-02  7.61269097E-02  2.60801033E-01
  6.16462078E-01  2.21006028E-01  1.14660081E-01  9.19999648E-01 -3.03068213E-03
  1.00000000E+00  1.00000000E+00  1.00000000E+00  1.96665025E-03  1.52306019E-02
  7.61269097E-02  2.60801033E-01  6.16462078E-01  2.21006028E-01  1.14660081E-01
  9.19999648E-01 -3.03068213E-03  1.00000000E+00  1.00000000E+00  1.00000000E+00
  1.96665025E-03  1.52306019E-02  7.61269097E-02  2.60801033E-01  6.16462078E-01
  2.21006028E-01  1.14660081E-01  9.19999648E-01 -3.03068213E-03  1.00000000E+00
  1.00000000E+00  1.00000000E+00  1.96665025E-03  1.52306019E-02  7.61269097E-02
  2.60801033E-01  6.16462078E-01  2.21006028E-01  1.14660081E-01  9.19999648E-01
 -3.03068213E-03  1.00000000E+00  1.00000000E+00  1.00000000E+00  1.96665025E-03
  1.52306019E-02  7.61269097E-02  2.60801033E-01  6.16462078E-01  2.21006028E-01
  1.14660081E-01  9.19999648E-01 -3.03068213E-03  1.00000000E+00  1.00000000E+00
  1.00000000E+00  2.54938145E-02  1.90373109E-01  8.52161486E-01  1.00000000E+00
  1.00000000E+00  1.00000000E+00  2.54938145E-02  1.90373109E-01  8.52161486E-01
  1.00000000E+00  1.00000000E+00  1.00000000E+00  2.54938145E-02  1.90373109E-01
  8.52161486E-01  1.00000000E+00  1.00000000E+00  1.00000000E+00  2.54938145E-02
  1.90373109E-01  8.52161486E-01  1.00000000E+00  1.00000000E+00  1.00000000E+00
  2.54938145E-02  1.90373109E-01  8.52161486E-01  1.00000000E+00  1.00000000E+00
  1.00000000E+00
P(S=P) Contraction coefficients            R   N=         136
  0.00000000E+00  0.00000000E+00  0.00000000E+00  0.00000000E+00  0.00000000E+00
  0.00000000E+00  0.00000000E+00  0.00000000E+00  0.00000000E+00  0.00000000E+00
  0.00000000E+00  0.00000000E+00  0.00000000E+00  0.00000000E+00  0.00000000E+00
  0.00000000E+00  0.00000000E+00  0.00000000E+00  0.00000000E+00  0.00000000E+00
  0.00000000E+00  0.00000000E+00  0.00000000E+00  0.00000000E+00  0.00000000E+00
  0.00000000E+00  0.00000000E+00  0.00000000E+00  0.00000000E+00  0.00000000E+00
  0.00000000E+00  0.00000000E+00  0.00000000E+00  0.00000000E+00  0.00000000E+00
  0.00000000E+00  0.00000000E+00  0.00000000E+00  0.00000000E+00  0.00000000E+00
  4.02486927E-02  2.37593957E-01  8.15853851E-01  1.00000000E+00  1.00000000E+00
  0.00000000E+00  0.00000000E+00  0.00000000E+00  0.00000000E+00  0.00000000E+00
  0.00000000E+00  0.00000000E+00  4.02486927E-02  2.37593957E-01  8.15853851E-01
  1.00000000E+00  1.00000000E+00  0.00000000E+00  0.00000000E+00  0.00000000E+00
  0.00000000E+00  0.00000000E+00  0.00000000E+00  0.00000000E+00  4.02486927E-02
  2.37593957E-01  8.15853851E-01  1.00000000E+00  1.00000000E+00  0.00000000E+00
  0.00000000E+00  0.00000000E+00  0.00000000E+00  0.00000000E+00  0.00000000E+00
  0.00000000E+00  4.02486927E-02  2.37593957E-01  8.15853851E-01  1.00000000E+00
  1.00000000E+00  0.00000000E+00  0.00000000E+00  0.00000000E+00  0.00000000E+00
  0.00000000E+00  0.00000000E+00  0.00000000E+00  4.02486927E-02  2.37593957E-01
  8.15853851E-01  1.00000000E+00  1.00000000E+00  0.00000000E+00  0.00000000E+00
  0.00000000E+00  0.00000000E+00  0.00000000E+00  0.00000000E+00  0.00000000E+00
  4.02486927E-02  2.37593957E-01  8.15853851E-01  1.00000000E+00  1.00000000E+00
  0.00000000E+00  0.00000000E+00  0.00000000E+00  0.00000000E+00  0.00000000E+00
  0.00000000E+00  0.00000000E+00  0.00000000E+00  0.00000000E+00  0.00000000E+00
  0.00000000E+00  0.00000000E+00  0.00000000E+00  0.00000000E+00  0.00000000E+00
  0.00000000E+00  0.00000000E+00  0.00000000E+00  0.00000000E+00  0.00000000E+00
  0.00000000E+00  0.00000000E+00  0.00000000E+00  0.00000000E+00  0.00000000E+00
  0.00000000E+00  0.00000000E+00  0.00000000E+00  0.00000000E+00  0.00000000E+00
  0.00000000E+00
Coordinates of each shell                  R   N=         222
  2.93738988E+00  0.00000000E+00 -1.05362284E-04  2.93738988E+00  0.00000000E+00
 -1.05362284E-04  2.93738988E+00  0.00000000E+00 -1.05362284E-04  2.93738988E+00
  0.00000000E+00 -1.05362284E-04  2.93738988E+00  0.00000000E+00 -1.05362284E-04
  2.93738988E+00  0.00000000E+00 -1.05362284E-04  2.93738988E+00  0.00000000E+00
 -1.05362284E-04  2.93738988E+00  0.00000000E+00 -1.05362284E-04  2.93738988E+00
  0.00000000E+00 -1.05362284E-04  2.93738988E+00  0.00000000E+00 -1.05362284E-04
  2.93738988E+00  0.00000000E+00 -1.05362284E-04  2.93738988E+00  0.00000000E+00
 -1.05362284E-04  2.93738988E+00  0.00000000E+00 -1.05362284E-04  2.93738988E+00
  0.00000000E+00 -1.05362284E-04  2.93738988E+00  0.00000000E+00 -1.05362284E-04
  2.93738988E+00  0.00000000E+00 -1.05362284E-04  2.93738988E+00  0.00000000E+00
 -1.05362284E-04  2.93738988E+00  0.00000000E+00 -1.05362284E-04  2.93738988E+00
  0.00000000E+00 -1.05362284E-04  2.93738988E+00  0.00000000E+00 -1.05362284E-04
  2.93738988E+00  0.00000000E+00 -1.05362284E-04  2.93738988E+00  0.00000000E+00
 -1.05362284E-04  2.93738988E+00  0.00000000E+00 -1.05362284E-04  2.93738988E+00
  0.00000000E+00 -1.05362284E-04 -1.05333755E+00  0.00000000E+00  3.82569025E-05
 -1.05333755E+00  0.00000000E+00  3.82569025E-05 -1.05333755E+00  0.00000000E+00
  3.82569025E-05 -1.05333755E+00  0.00000000E+00  3.82569025E-05 -1.05333755E+00
  0.00000000E+00  3.82569025E-05 -2.35756605E+00 -2.30184517E+00  9.30589603E-05
 -2.35756605E+00 -2.30184517E+00  9.30589603E-05 -2.35756605E+00 -2.30184517E+00
  9.30589603E-05 -2.35756605E+00 -2.30184517E+00  9.30589603E-05 -2.35756605E+00
 -2.30184517E+00  9.30589603E-05 -2.35756605E+00  2.30184517E+00  7.60514251E-05
 -2.35756605E+00  2.30184517E+00  7.60514251E-05 -2.35756605E+00  2.30184517E+00
  7.60514251E-05 -2.35756605E+00  2.30184517E+00  7.60514251E-05 -2.35756605E+00
  2.30184517E+00  7.60514251E-05 -5.00132126E+00 -2.28485275E+00  1.87545267E-04
 -5.00132126E+00 -2.28485275E+00  1.87545267E-04 -5.00132126E+00 -2.28485275E+00
  1.87545267E-04 -5.00132126E+00 -2.28485275E+00  1.87545267E-04 -5.00132126E+00
 -2.28485275E+00  1.87545267E-04 -5.00132126E+00  2.28485275E+00  1.70537732E-04
 -5.00132126E+00  2.28485275E+00  1.70537732E-04 -5.00132126E+00  2.28485275E+00
  1.70537732E-04 -5.00132126E+00  2.28485275E+00  1.70537732E-04 -5.00132126E+00
  2.28485275E+00  1.70537732E-04 -6.32923937E+00  0.00000000E+00  2.27229516E-04
 -6.32923937E+00  0.00000000E+00  2.27229516E-04 -6.32923937E+00  0.00000000E+00
  2.27229516E-04 -6.32923937E+00  0.00000000E+00  2.27229516E-04 -6.32923937E+00
  0.00000000E+00  2.27229516E-04 -1.33218365E+00 -4.07771152E+00  6.47130683E-05
 -1.33218365E+00 -4.07771152E+00  6.47130683E-05 -1.33218365E+00 -4.07771152E+00
  6.47130683E-05 -1.33218365E+00 -4.07771152E+00  6.47130683E-05 -1.33218364E+00
  4.07771152E+00  3.25877241E-05 -1.33218364E+00  4.07771152E+00  3.25877241E-05
 -1.33218364E+00  4.07771152E+00  3.25877241E-05 -1.33218364E+00  4.07771152E+00
  3.25877241E-05 -6.01698481E+00 -4.06920775E+00  2.31008968E-04 -6.01698481E+00
 -4.06920775E+00  2.31008968E-04 -6.01698481E+00 -4.06920775E+00  2.31008968E-04
 -6.01698481E+00 -4.06920775E+00  2.31008968E-04 -6.01698480E+00  4.06920776E+00
  1.98883624E-04 -6.01698480E+00  4.06920776E+00  1.98883624E-04 -6.01698480E+00
  4.06920776E+00  1.98883624E-04 -6.01698480E+00  4.06920776E+00  1.98883624E-04
 -8.38121739E+00  0.00000000E+00  3.00928835E-04 -8.38121739E+00  0.00000000E+00
  3.00928835E-04 -8.38121739E+00  0.00000000E+00  3.00928835E-04 -8.38121739E+00
  0.00000000E+00  3.00928835E-04
Constraint Structure                       R   N=          36
  2.93738988E+00  0.00000000E+00 -1.05362284E-04 -1.05333755E+00  0.00000000E+00
  3.82569025E-05 -2.35756605E+00 -2.30184517E+00  9.30589603E-05 -2.35756605E+00
  2.30184517E+00  7.60514251E-05 -5.00132126E+00 -2.28485275E+00  1.87545267E-04
 -5.00132126E+00  2.28485275E+00  1.70537732E-04 -6.32923937E+00  0.00000000E+00
  2.27229516E-04 -1.33218365E+00 -4.07771152E+00  6.47130683E-05 -1.33218364E+00
  4.07771152E+00  3.25877241E-05 -6.01698481E+00 -4.06920775E+00  2.31008968E-04
 -6.01698480E+00  4.06920776E+00  1.98883624E-04 -8.38121739E+00  0.00000000E+00
  3.00928835E-04
Num ILSW                                   I              100
ILSW                                       I   N=         100
           0           0           0           0           2           0
           0           0           0           0           0          -1
           0           0           0           0           0           0
           0           0           0           0           1           0
           1           0           0           0           0           0
           0           0      100000           0          -1           0
           0           0           0           0           0           0
           0           0           0           1           1           0
           0           0           1           0           0           0
           0           0           4          40           0           0
           0           0           0           0           0           0
           0           0           0           0           0           0
           0           0           0           0           0           0
           0           0           0           0           0           0
           0           0           0           0           0           0
           0           0           0           0           0           0
           0           0           0           0
Num RLSW                                   I               40
RLSW                                       R   N=          40
  1.00000000E+00  1.00000000E+00  1.00000000E+00  1.00000000E+00  1.00000000E+00
  0.00000000E+00  0.00000000E+00  1.00000000E+00  0.00000000E+00  0.00000000E+00
  0.00000000E+00  0.00000000E+00  1.00000000E+00  0.00000000E+00  0.00000000E+00
  0.00000000E+00  0.00000000E+00  1.00000000E+00  0.00000000E+00  0.00000000E+00
  0.00000000E+00  0.00000000E+00  1.00000000E+00  0.00000000E+00  0.00000000E+00
  0.00000000E+00  0.00000000E+00  1.00000000E+00  0.00000000E+00  0.00000000E+00
  0.00000000E+00  0.00000000E+00  0.00000000E+00  0.00000000E+00  0.00000000E+00
  0.00000000E+00  0.00000000E+00  0.00000000E+00  1.00000000E+00  1.00000000E+00
MxBond                                     I                3
NBond                                      I   N=          12
           1           3           3           3           3           3
           3           1           1           1           1           1
IBond                                      I   N=          36
           2           0           0           1           3           4
           2           5           8           2           6           9
           3           7          10           4           7          11
           5           6          12           3           0           0
           4           0           0           5           0           0
           6           0           0           7           0           0
RBond                                      R   N=          36
  1.00000000E+00  0.00000000E+00  0.00000000E+00  1.00000000E+00  1.50000000E+00
  1.50000000E+00  1.50000000E+00  1.50000000E+00  1.00000000E+00  1.50000000E+00
  1.50000000E+00  1.00000000E+00  1.50000000E+00  1.50000000E+00  1.00000000E+00
  1.50000000E+00  1.50000000E+00  1.00000000E+00  1.50000000E+00  1.50000000E+00
  1.00000000E+00  1.00000000E+00  0.00000000E+00  0.00000000E+00  1.00000000E+00
  0.00000000E+00  0.00000000E+00  1.00000000E+00  0.00000000E+00  0.00000000E+00
  1.00000000E+00  0.00000000E+00  0.00000000E+00  1.00000000E+00  0.00000000E+00
  0.00000000E+00
Virial Ratio                               R      1.999585545435663E+00
SCF Energy                                 R     -7.146977479999940E+03
MP2 Energy                                 R     -7.148009010545268E+03
Total Energy                               R     -7.148009010545268E+03
Post-SCF wavefunction norm                 R      1.659015568126050E+00
RMS Force                                  R      8.798727744467971E-07
RMS Density                                R      1.344526754126049E-09
External E-field                           R   N=          35
  0.00000000E+00  0.00000000E+00  0.00000000E+00  0.00000000E+00  0.00000000E+00
  0.00000000E+00  0.00000000E+00  0.00000000E+00  0.00000000E+00  0.00000000E+00
  0.00000000E+00  0.00000000E+00  0.00000000E+00  0.00000000E+00  0.00000000E+00
  0.00000000E+00  0.00000000E+00  0.00000000E+00  0.00000000E+00  0.00000000E+00
  0.00000000E+00  0.00000000E+00  0.00000000E+00  0.00000000E+00  0.00000000E+00
  0.00000000E+00  0.00000000E+00  0.00000000E+00  0.00000000E+00  0.00000000E+00
  0.00000000E+00  0.00000000E+00  0.00000000E+00  0.00000000E+00  0.00000000E+00
IOpCl                                      I                0
IROHF                                      I                0
Alpha Orbital Energies                     R   N=         200
 -1.17715317E+03 -1.80860563E+02 -1.69667108E+02 -1.69666250E+02 -1.69666249E+02
 -3.79145284E+01 -3.31025512E+01 -3.30985112E+01 -3.30984846E+01 -2.42866769E+01
 -2.42852788E+01 -2.42852399E+01 -2.42814446E+01 -2.42814432E+01 -1.12960320E+01
 -1.12569612E+01 -1.12569279E+01 -1.12530027E+01 -1.12525449E+01 -1.12510367E+01
 -7.23158156E+00 -5.46474930E+00 -5.45425517E+00 -5.45395007E+00 -2.38841734E+00
 -2.38312364E+00 -2.38292826E+00 -2.37098799E+00 -2.37098255E+00 -1.16734244E+00
 -1.03593498E+00 -1.03129387E+00 -8.71105308E-01 -8.43469564E-01 -7.95096045E-01
 -7.04986109E-01 -6.40901290E-01 -6.40817251E-01 -6.04267751E-01 -5.62536145E-01
 -5.24485575E-01 -5.14292795E-01 -4.62018317E-01 -4.02732774E-01 -3.71776458E-01
 -3.51294815E-01 -3.25396967E-01  9.90238905E-02  1.10105596E-01  1.15648376E-01
  1.57640005E-01  1.77387333E-01  1.93722857E-01  2.20794568E-01  2.25228158E-01
  2.98502321E-01  3.11883267E-01  3.33814358E-01  3.47379724E-01  3.69450991E-01
  4.06920882E-01  4.23218602E-01  4.47854243E-01  4.48287843E-01  4.75072418E-01
  4.95693990E-01  5.48119894E-01  5.70744150E-01  5.72213595E-01  5.78118417E-01
  5.82140872E-01  6.01752791E-01  6.11229816E-01  6.19790330E-01  6.25657611E-01
  6.25769765E-01  6.78922074E-01  7.13305632E-01  7.25820180E-01  7.69997455E-01
  7.70047872E-01  7.75513390E-01  8.03942523E-01  8.09853252E-01  8.34598269E-01
  8.35793539E-01  8.66609467E-01  8.67138760E-01  8.93810359E-01  9.21267171E-01
  9.33849031E-01  9.93360853E-01  1.04990995E+00  1.05043438E+00  1.07221643E+00
  1.09730280E+00  1.11976971E+00  1.18950731E+00  1.21962460E+00  1.22136054E+00
  1.23003096E+00  1.30676709E+00  1.33727476E+00  1.37163534E+00  1.43650154E+00
  1.44745178E+00  1.50511422E+00  1.57869524E+00  1.59789314E+00  1.66445308E+00
  1.67376104E+00  1.69953538E+00  1.72095766E+00  1.74105786E+00  1.80204767E+00
  1.81072420E+00  1.85978445E+00  1.86145238E+00  1.86714484E+00  1.92420213E+00
  1.94898516E+00  1.99841452E+00  2.04003191E+00  2.04094395E+00  2.05258664E+00
  2.17500186E+00  2.18620216E+00  2.19172568E+00  2.20335182E+00  2.20668637E+00
  2.23816981E+00  2.27059753E+00  2.29162004E+00  2.31716340E+00  2.35647519E+00
  2.56997653E+00  2.57027052E+00  2.59886763E+00  2.63579668E+00  2.64371105E+00
  2.67662964E+00  2.80853962E+00  2.89107264E+00  2.90372310E+00  2.91531756E+00
  2.92350986E+00  2.93525774E+00  2.93547382E+00  2.94357854E+00  2.96698748E+00
  3.04712141E+00  3.09288603E+00  3.09327647E+00  3.15928573E+00  3.22339500E+00
  3.22641473E+00  3.24945958E+00  3.41993843E+00  3.43104823E+00  3.50210187E+00
  3.72723356E+00  3.73595930E+00  3.86175720E+00  3.86777162E+00  3.97445351E+00
  4.07807542E+00  4.34911996E+00  4.42207889E+00  4.48395409E+00  4.49919501E+00
  4.50816757E+00  4.52211130E+00  4.55704460E+00  4.65858177E+00  4.74565443E+00
  4.88740359E+00  5.24069126E+00  6.53321547E+00  6.57076201E+00  6.64086391E+00
  2.46051551E+01  2.50234847E+01  2.50764901E+01  2.51941902E+01  2.52228821E+01
  2.53154751E+01  2.88847024E+01  2.95333140E+01  2.95593896E+01  2.95978174E+01
  2.98915853E+01  2.99032748E+01  2.99166293E+01  2.99648664E+01  3.00540546E+01
  1.30596701E+02  1.30618783E+02  1.30656719E+02  1.54284338E+02  1.91220174E+03
Alpha MO coefficients                      R   N=       40000
  4.76852221E-01  6.02917166E-01  9.14100773E-03 -1.29820824E-04 -1.23714224E-04
  4.46887321E-05 -1.78843857E-05  1.14772453E-05 -3.17900795E-06  5.39587934E-07
 -2.08741577E-06  1.45911713E-12  7.59715657E-11  2.05527476E-06 -1.12332149E-12
 -7.46660683E-11 -1.97296328E-06  1.07930022E-12  7.16932276E-11  1.34357646E-06
 -7.17382691E-13 -4.88222588E-11 -7.66828019E-07  3.66511203E-13  2.78529378E-11
  5.25659573E-07 -2.05289308E-13 -1.90833278E-11 -6.16507505E-07  1.13317361E-13
  2.23198312E-11  1.15323407E-06 -5.90303117E-14 -4.16043104E-11 -2.39199821E-07
  1.55262939E-14  8.47611988E-12 -9.21702244E-08 -1.14988480E-11 -9.02359427E-15
  1.57537632E-07 -1.25953693E-13  2.19330964E-08  2.20553815E-12  5.39036198E-14
 -2.31522262E-08  2.82051371E-14  2.31539090E-08  4.19668700E-12 -1.26444671E-13
 -7.49291205E-08  3.27521984E-14 -1.76205202E-08 -4.52113264E-12  2.28950710E-13
  9.29542687E-08 -1.90683910E-14  6.90470085E-08  1.28666587E-11 -4.22444012E-13
 -2.34041756E-07 -4.34589180E-15 -1.11908172E-09  3.90552208E-09 -3.24802606E-08
  4.17018298E-16  1.15808346E-12  3.22795537E-08 -1.27863382E-08 -1.76026624E-15
  4.92778471E-13 -2.33171557E-06  2.73598532E-06  1.57670640E-14 -9.77266096E-11
 -3.01429186E-09 -5.53100102E-12  4.94285057E-13  1.45223049E-07 -2.40612009E-15
 -3.63395311E-09  8.54561475E-09 -9.42119909E-09 -3.66421484E-08  4.54447943E-13
 -1.14433266E-07  5.37514908E-08  2.03907903E-07 -2.65454023E-12  2.73017862E-06
 -1.53978058E-06  1.37465140E-06  4.96628280E-11 -8.39879543E-09 -1.36269594E-12
 -2.33079157E-12  1.45019014E-08  6.87076597E-08 -3.63395311E-09  8.54561473E-09
 -9.42119945E-09  3.66421467E-08  2.04665818E-13 -1.14433266E-07  5.37514909E-08
 -2.03907895E-07 -1.17096391E-12  2.73017859E-06 -1.53978061E-06 -1.37465142E-06
  6.03920584E-11 -8.39879559E-09 -7.77818632E-13  2.45305455E-12  1.45019025E-08
 -6.87076593E-08  1.30559680E-09 -3.01587223E-09  1.69621247E-08  7.78291936E-09
 -6.24737467E-13  5.86197926E-08 -8.12172084E-08 -4.10532743E-08  3.01482195E-12
 -2.50875350E-06 -7.88659334E-07 -7.13859906E-07  3.09546193E-11  8.62934806E-09
  8.05420945E-13 -5.44061561E-13 -8.98035465E-09  1.57661767E-08  1.30559680E-09
 -3.01587227E-09  1.69621247E-08 -7.78291928E-09 -5.74742509E-13  5.86197933E-08
 -8.12172096E-08  4.10532740E-08  2.73674904E-12 -2.50875352E-06 -7.88659336E-07
  7.13859924E-07  2.52862130E-11  8.62934805E-09  9.07494772E-13  5.92267102E-13
 -8.98035515E-09 -1.57661771E-08 -3.07821108E-09  7.67989287E-09 -4.29389709E-09
 -1.12496374E-16  1.67457605E-13 -7.69265045E-08  2.44267998E-08  4.50231325E-16
 -9.22676816E-13  1.49556869E-06  9.37696658E-07  4.37486447E-15 -3.37921826E-11
 -1.34332116E-08 -4.27904793E-13 -1.15348099E-13 -1.20640499E-08 -2.79121505E-18