
    -----------------------------------------------------------------------
          Psi4: An Open-Source Ab Initio Electronic Structure Package
                               Psi4 1.3.2 release

                         Git: Rev {HEAD} ecbda83 


    R. M. Parrish, L. A. Burns, D. G. A. Smith, A. C. Simmonett,
    A. E. DePrince III, E. G. Hohenstein, U. Bozkaya, A. Yu. Sokolov,
    R. Di Remigio, R. M. Richard, J. F. Gonthier, A. M. James,
    H. R. McAlexander, A. Kumar, M. Saitow, X. Wang, B. P. Pritchard,
    P. Verma, H. F. Schaefer III, K. Patkowski, R. A. King, E. F. Valeev,
    F. A. Evangelista, J. M. Turney, T. D. Crawford, and C. D. Sherrill,
    J. Chem. Theory Comput. 13(7) pp 3185--3197 (2017).
    (doi: 10.1021/acs.jctc.7b00174)


                         Additional Contributions by
    P. Kraus, H. Kruse, M. H. Lechner, M. C. Schieber, R. A. Shaw,
    A. Alenaizan, R. Galvelis, Z. L. Glick, S. Lehtola, and J. P. Misiewicz

    -----------------------------------------------------------------------


    Psi4 started on: Monday, 09 November 2020 12:08AM

    Process ID: 118436
    Host:       node59.bme.utexas.edu
    PSIDATADIR: /home/xy3866/psi4conda/share/psi4
    Memory:     500.0 MiB
    Threads:    8
    
  ==> Input File <==

--------------------------------------------------------------------------
#psi4
#
memory 32 gb

molecule  {
0 1
  C        0.0000000     0.4225390     0.0000000
  H       -0.4408170     1.4355830     0.0000000
  O        1.2082730     0.2220110     0.0000000
  N       -0.9482900    -0.5548660     0.0000000
  H       -0.6534580    -1.5217170     0.0000000
  H       -1.9338820    -0.3411310    -0.0500000
units angstrom
no_reorient  #important for SAPT in psi4, default
symmetry c1  #important for SAPT in psi4, default
}

set PROPERTIES_ORIGIN ["COM"]
properties('MP2/aug-cc-pvtz', properties = ['dipole'])
--------------------------------------------------------------------------

  Memory set to  29.802 GiB by Python driver.
    SCF Algorithm Type (re)set to DF.

*** tstart() called on node59.bme.utexas.edu
*** at Mon Nov  9 00:08:58 2020

   => Loading Basis Set <=

    Name: AUG-CC-PVTZ
    Role: ORBITAL
    Keyword: BASIS
    atoms 1      entry C          line   235 file /home/xy3866/psi4conda/share/psi4/basis/aug-cc-pvtz.gbs 
    atoms 2, 5-6 entry H          line    36 file /home/xy3866/psi4conda/share/psi4/basis/aug-cc-pvtz.gbs 
    atoms 3      entry O          line   327 file /home/xy3866/psi4conda/share/psi4/basis/aug-cc-pvtz.gbs 
    atoms 4      entry N          line   281 file /home/xy3866/psi4conda/share/psi4/basis/aug-cc-pvtz.gbs 


         ---------------------------------------------------------
                                   SCF
               by Justin Turney, Rob Parrish, Andy Simmonett
                          and Daniel G. A. Smith
                              RHF Reference
                        8 Threads,  30517 MiB Core
         ---------------------------------------------------------

  ==> Geometry <==

    Molecular point group: c1
    Full point group: C1

    Geometry (in Angstrom), charge = 0, multiplicity = 1:

       Center              X                  Y                   Z               Mass       
    ------------   -----------------  -----------------  -----------------  -----------------
         C           -0.066532621350     0.413186195096     0.001119271731    12.000000000000
         H           -0.507349621350     1.426230195096     0.001119271731     1.007825032230
         O            1.141740378650     0.212658195096     0.001119271731    15.994914619570
         N           -1.014822621350    -0.564218804904     0.001119271731    14.003074004430
         H           -0.719990621350    -1.531069804904     0.001119271731     1.007825032230
         H           -2.000414621350    -0.350483804904    -0.048880728269     1.007825032230

  Running in c1 symmetry.

  Rotational constants: A =      2.42869  B =      0.37487  C =      0.32477 [cm^-1]
  Rotational constants: A =  72810.40628  B =  11238.25622  C =   9736.39370 [MHz]
  Nuclear repulsion =   70.835146127598932

  Charge       = 0
  Multiplicity = 1
  Electrons    = 24
  Nalpha       = 12
  Nbeta        = 12

  ==> Algorithm <==

  SCF Algorithm Type is DF.
  DIIS enabled.
  MOM disabled.
  Fractional occupation disabled.
  Guess Type is SAD.
  Energy threshold   = 1.00e-10
  Density threshold  = 1.00e-10
  Integral threshold = 0.00e+00

  ==> Primary Basis <==

  Basis Set: AUG-CC-PVTZ
    Blend: AUG-CC-PVTZ
    Number of shells: 69
    Number of basis function: 207
    Number of Cartesian functions: 240
    Spherical Harmonics?: true
    Max angular momentum: 3

   => Loading Basis Set <=

    Name: (AUG-CC-PVTZ AUX)
    Role: JKFIT
    Keyword: DF_BASIS_SCF
    atoms 1      entry C          line   162 file /home/xy3866/psi4conda/share/psi4/basis/aug-cc-pvtz-jkfit.gbs 
    atoms 2, 5-6 entry H          line    70 file /home/xy3866/psi4conda/share/psi4/basis/aug-cc-pvtz-jkfit.gbs 
    atoms 3      entry O          line   286 file /home/xy3866/psi4conda/share/psi4/basis/aug-cc-pvtz-jkfit.gbs 
    atoms 4      entry N          line   224 file /home/xy3866/psi4conda/share/psi4/basis/aug-cc-pvtz-jkfit.gbs 

  ==> Pre-Iterations <==

   -------------------------------------------------------
    Irrep   Nso     Nmo     Nalpha   Nbeta   Ndocc  Nsocc
   -------------------------------------------------------
     A        207     207       0       0       0       0
   -------------------------------------------------------
    Total     207     207      12      12      12       0
   -------------------------------------------------------

  ==> Integral Setup <==

  DFHelper Memory: AOs need 0.156 GiB; user supplied 22.352 GiB. Using in-core AOs.

  ==> MemDFJK: Density-Fitted J/K Matrices <==

    J tasked:                   Yes
    K tasked:                   Yes
    wK tasked:                   No
    OpenMP threads:               8
    Memory [MiB]:             22888
    Algorithm:                 Core
    Schwarz Cutoff:           1E-12
    Mask sparsity (%):       0.0980
    Fitting Condition:        1E-10

   => Auxiliary Basis Set <=

  Basis Set: (AUG-CC-PVTZ AUX)
    Blend: AUG-CC-PVTZ-JKFIT
    Number of shells: 132
    Number of basis function: 450
    Number of Cartesian functions: 558
    Spherical Harmonics?: true
    Max angular momentum: 4

  Minimum eigenvalue in the overlap matrix is 5.7055317693E-05.
  Using Symmetric Orthogonalization.

  SCF Guess: Superposition of Atomic Densities via on-the-fly atomic UHF.

  ==> Iterations <==

                           Total Energy        Delta E     RMS |[F,P]|

   @DF-RHF iter SAD:  -168.16909347741756   -1.68169e+02   0.00000e+00 
   @DF-RHF iter   1:  -168.88040842288962   -7.11315e-01   2.57974e-03 DIIS
   @DF-RHF iter   2:  -168.95782828552723   -7.74199e-02   1.76038e-03 DIIS
   @DF-RHF iter   3:  -169.00125836907191   -4.34301e-02   2.50275e-04 DIIS
   @DF-RHF iter   4:  -169.00267685445687   -1.41849e-03   1.10154e-04 DIIS
   @DF-RHF iter   5:  -169.00298307959289   -3.06225e-04   2.22412e-05 DIIS
   @DF-RHF iter   6:  -169.00301431189988   -3.12323e-05   1.07205e-05 DIIS
   @DF-RHF iter   7:  -169.00302103021440   -6.71831e-06   4.32688e-06 DIIS
   @DF-RHF iter   8:  -169.00302221042026   -1.18021e-06   1.27020e-06 DIIS
   @DF-RHF iter   9:  -169.00302231332577   -1.02906e-07   3.49832e-07 DIIS
   @DF-RHF iter  10:  -169.00302232137597   -8.05019e-09   8.80279e-08 DIIS
   @DF-RHF iter  11:  -169.00302232179348   -4.17515e-10   1.58956e-08 DIIS
   @DF-RHF iter  12:  -169.00302232180570   -1.22213e-11   3.10635e-09 DIIS
   @DF-RHF iter  13:  -169.00302232180707   -1.36424e-12   9.08443e-10 DIIS
   @DF-RHF iter  14:  -169.00302232180664    4.26326e-13   2.45257e-10 DIIS
   @DF-RHF iter  15:  -169.00302232180672   -8.52651e-14   9.11497e-11 DIIS
  Energy and wave function converged.


  ==> Post-Iterations <==

    Orbital Energies [Eh]
    ---------------------

    Doubly Occupied:                                                      

       1A    -20.531792     2A    -15.599711     3A    -11.361092  
       4A     -1.379904     5A     -1.219997     6A     -0.853747  
       7A     -0.750920     8A     -0.673808     9A     -0.607881  
      10A     -0.569595    11A     -0.438192    12A     -0.422554  

    Virtual:                                                              

      13A      0.020579    14A      0.036503    15A      0.048841  
      16A      0.080614    17A      0.098573    18A      0.106352  
      19A      0.124385    20A      0.130820    21A      0.138463  
      22A      0.159430    23A      0.163467    24A      0.185864  
      25A      0.214587    26A      0.221563    27A      0.223971  
      28A      0.251627    29A      0.269403    30A      0.275688  
      31A      0.279065    32A      0.304915    33A      0.322543  
      34A      0.332024    35A      0.359652    36A      0.362199  
      37A      0.365211    38A      0.383651    39A      0.398717  
      40A      0.410169    41A      0.432251    42A      0.457927  
      43A      0.474398    44A      0.498605    45A      0.506854  
      46A      0.514534    47A      0.563059    48A      0.588547  
      49A      0.606084    50A      0.617227    51A      0.629144  
      52A      0.666387    53A      0.673565    54A      0.735834  
      55A      0.782972    56A      0.810672    57A      0.836111  
      58A      0.838213    59A      0.855739    60A      0.863427  
      61A      0.870442    62A      0.889402    63A      0.905881  
      64A      0.912858    65A      0.949315    66A      0.955013  
      67A      0.958966    68A      0.977974    69A      0.999913  
      70A      1.017775    71A      1.037458    72A      1.051795  
      73A      1.055337    74A      1.073725    75A      1.095731  
      76A      1.098725    77A      1.130359    78A      1.131065  
      79A      1.138146    80A      1.179514    81A      1.221933  
      82A      1.240445    83A      1.247456    84A      1.289632  
      85A      1.310056    86A      1.357861    87A      1.376960  
      88A      1.389042    89A      1.424792    90A      1.439012  
      91A      1.451633    92A      1.482097    93A      1.509775  
      94A      1.548407    95A      1.618922    96A      1.633030  
      97A      1.709077    98A      1.727846    99A      1.742478  
     100A      1.774543   101A      1.878300   102A      1.885963  
     103A      1.958131   104A      2.006712   105A      2.015786  
     106A      2.024575   107A      2.035769   108A      2.078888  
     109A      2.167344   110A      2.197486   111A      2.258115  
     112A      2.295546   113A      2.346174   114A      2.369929  
     115A      2.398152   116A      2.424880   117A      2.454963  
     118A      2.467521   119A      2.495673   120A      2.520893  
     121A      2.522767   122A      2.583294   123A      2.640785  
     124A      2.643925   125A      2.676481   126A      2.765434  
     127A      2.806702   128A      2.824865   129A      2.883649  
     130A      2.991960   131A      3.087251   132A      3.159770  
     133A      3.207321   134A      3.293950   135A      3.371285  
     136A      3.476946   137A      3.565413   138A      3.572748  
     139A      3.651416   140A      3.678184   141A      3.758825  
     142A      3.783045   143A      3.889365   144A      3.951727  
     145A      3.979962   146A      4.018969   147A      4.079330  
     148A      4.099971   149A      4.148414   150A      4.182195  
     151A      4.214583   152A      4.287693   153A      4.324601  
     154A      4.348585   155A      4.380651   156A      4.434086  
     157A      4.449803   158A      4.458276   159A      4.541010  
     160A      4.648713   161A      4.680842   162A      4.713874  
     163A      4.755488   164A      4.781276   165A      4.844081  
     166A      4.887462   167A      4.939998   168A      5.008202  
     169A      5.116842   170A      5.159539   171A      5.190939  
     172A      5.216032   173A      5.252145   174A      5.356255  
     175A      5.489156   176A      5.501529   177A      5.516447  
     178A      5.572219   179A      5.628916   180A      5.721360  
     181A      5.788017   182A      6.002106   183A      6.056336  
     184A      6.152407   185A      6.222777   186A      6.250169  
     187A      6.345753   188A      6.498068   189A      6.653416  
     190A      6.697446   191A      6.785845   192A      6.961274  
     193A      6.994337   194A      7.035478   195A      7.149933  
     196A      7.272101   197A      7.299589   198A      7.321045  
     199A      7.557822   200A      7.604189   201A      7.609591  
     202A      7.803148   203A      7.863148   204A      7.965427  
     205A     15.307651   206A     16.601455   207A     17.792028  

    Final Occupation by Irrep:
              A 
    DOCC [    12 ]

  @DF-RHF Final Energy:  -169.00302232180672

   => Energetics <=

    Nuclear Repulsion Energy =             70.8351461275989323
    One-Electron Energy =                -370.8579513323493302
    Two-Electron Energy =                 131.0197828829436730
    Total Energy =                       -169.0030223218067249

Computation Completed

*** tstop() called on node59.bme.utexas.edu at Mon Nov  9 00:09:02 2020
Module time:
	user time   =      17.80 seconds =       0.30 minutes
	system time =       1.06 seconds =       0.02 minutes
	total time  =          4 seconds =       0.07 minutes
Total time:
	user time   =      17.80 seconds =       0.30 minutes
	system time =       1.06 seconds =       0.02 minutes
	total time  =          4 seconds =       0.07 minutes
   => Loading Basis Set <=

    Name: (AUG-CC-PVTZ AUX)
    Role: RIFIT
    Keyword: DF_BASIS_MP2
    atoms 1      entry C          line   148 file /home/xy3866/psi4conda/share/psi4/basis/aug-cc-pvtz-ri.gbs 
    atoms 2, 5-6 entry H          line    30 file /home/xy3866/psi4conda/share/psi4/basis/aug-cc-pvtz-ri.gbs 
    atoms 3      entry O          line   264 file /home/xy3866/psi4conda/share/psi4/basis/aug-cc-pvtz-ri.gbs 
    atoms 4      entry N          line   206 file /home/xy3866/psi4conda/share/psi4/basis/aug-cc-pvtz-ri.gbs 


*** tstart() called on node59.bme.utexas.edu
*** at Mon Nov  9 00:09:02 2020


  //>>>>>>>>>>>>>>>>>>>>>>>>>>>>>>>>>>>//
  //               DFMP2               //
  //<<<<<<<<<<<<<<<<<<<<<<<<<<<<<<<<<<<//

	 --------------------------------------------------------
	                          DF-MP2                         
	      2nd-Order Density-Fitted Moller-Plesset Theory     
	              RMP2 Wavefunction,   8 Threads             
	                                                         
	        Rob Parrish, Justin Turney, Andy Simmonett,      
	           Ed Hohenstein, and C. David Sherrill          
	 --------------------------------------------------------

   => Auxiliary Basis Set <=

  Basis Set: (AUG-CC-PVTZ AUX)
    Blend: AUG-CC-PVTZ-RI
    Number of shells: 126
    Number of basis function: 456
    Number of Cartesian functions: 573
    Spherical Harmonics?: true
    Max angular momentum: 4

	 --------------------------------------------------------
	                 NBF =   207, NAUX =   456
	 --------------------------------------------------------
	   CLASS    FOCC     OCC    AOCC    AVIR     VIR    FVIR
	   PAIRS       0      12      12     195     195       0
	 --------------------------------------------------------

  DFHelper Memory: AOs need 0.156 GiB; user supplied 22.352 GiB. Using in-core AOs.


         ------------------------------------------------------------
                                     CPHF                           
                                  Rob Parrish                       
         ------------------------------------------------------------

  ==> Geometry <==

    Molecular point group: c1
    Full point group: C1

    Geometry (in Angstrom), charge = 0, multiplicity = 1:

       Center              X                  Y                   Z               Mass       
    ------------   -----------------  -----------------  -----------------  -----------------
         C           -0.066532621350     0.413186195096     0.001119271731    12.000000000000
         H           -0.507349621350     1.426230195096     0.001119271731     1.007825032230
         O            1.141740378650     0.212658195096     0.001119271731    15.994914619570
         N           -1.014822621350    -0.564218804904     0.001119271731    14.003074004430
         H           -0.719990621350    -1.531069804904     0.001119271731     1.007825032230
         H           -2.000414621350    -0.350483804904    -0.048880728269     1.007825032230

  Nuclear repulsion =   70.835146127598932
  Reference energy  = -169.003022321806725

  ==> Basis Set <==

  Basis Set: AUG-CC-PVTZ
    Blend: AUG-CC-PVTZ
    Number of shells: 69
    Number of basis function: 207
    Number of Cartesian functions: 240
    Spherical Harmonics?: true
    Max angular momentum: 3

  ==> CGRSolver (by Rob Parrish) <==

   Number of roots    =         1
   Preconditioning    =    JACOBI
   Convergence cutoff =     1E-06
   Maximum iterations =       100

  ==> CPHFRHamiltonian (by Rob Parrish) <== 

  ==> MemDFJK: Density-Fitted J/K Matrices <==

    J tasked:                   Yes
    K tasked:                   Yes
    wK tasked:                   No
    OpenMP threads:               8
    Memory [MiB]:             22888
    Algorithm:                 Core
    Schwarz Cutoff:           1E-12
    Mask sparsity (%):       0.0980
    Fitting Condition:        1E-10

   => Auxiliary Basis Set <=

  Basis Set: (AUG-CC-PVTZ AUX)
    Blend: AUG-CC-PVTZ-JKFIT
    Number of shells: 132
    Number of basis function: 450
    Number of Cartesian functions: 558
    Spherical Harmonics?: true
    Max angular momentum: 4

  ==> CPHF Iterations <==

  => Iterations <=

             Iter  Converged  Remaining    Residual
  CGR           1          0          1   1.202E-01
  CGR           2          0          1   3.781E-02
  CGR           3          0          1   1.331E-02
  CGR           4          0          1   2.856E-03
  CGR           5          0          1   6.006E-04
  CGR           6          0          1   1.960E-04
  CGR           7          0          1   6.672E-05
  CGR           8          0          1   2.907E-05
  CGR           9          0          1   9.419E-06
  CGR          10          0          1   2.288E-06
  CGR          11          1          0   4.966E-07

    CGRSolver converged.

	-----------------------------------------------------------
	 ==================> DF-MP2 Energies <==================== 
	-----------------------------------------------------------
	 Reference Energy          =    -169.0030223218067249 [Eh]
	 Singles Energy            =      -0.0000000000000000 [Eh]
	 Same-Spin Energy          =      -0.1623681648016895 [Eh]
	 Opposite-Spin Energy      =      -0.5045134198436901 [Eh]
	 Correlation Energy        =      -0.6668815846453797 [Eh]
	 Total Energy              =    -169.6699039064521060 [Eh]
	-----------------------------------------------------------
	 ================> DF-SCS-MP2 Energies <================== 
	-----------------------------------------------------------
	 SCS Same-Spin Scale       =       0.3333333333333333 [-]
	 SCS Opposite-Spin Scale   =       1.2000000000000000 [-]
	 SCS Same-Spin Energy      =      -0.0541227216005632 [Eh]
	 SCS Opposite-Spin Energy  =      -0.6054161038124282 [Eh]
	 SCS Correlation Energy    =      -0.6595388254129914 [Eh]
	 SCS Total Energy          =    -169.6625611472197193 [Eh]
	-----------------------------------------------------------



Properties will be evaluated at   0.000000,   0.000000,   0.000000 [a0]

Properties computed using the MP2 density matrix

  Nuclear Dipole Moment: [e a0]
     X:    -3.0175      Y:    -0.4242      Z:    -0.0437

  Electronic Dipole Moment: [e a0]
     X:     1.4983      Y:     0.1890      Z:     0.0126

  Dipole Moment: [e a0]
     X:    -1.5192      Y:    -0.2352      Z:    -0.0311     Total:     1.5376

  Dipole Moment: [D]
     X:    -3.8614      Y:    -0.5977      Z:    -0.0792     Total:     3.9082


*** tstop() called on node59.bme.utexas.edu at Mon Nov  9 00:09:06 2020
Module time:
	user time   =      27.36 seconds =       0.46 minutes
	system time =       1.21 seconds =       0.02 minutes
	total time  =          4 seconds =       0.07 minutes
Total time:
	user time   =      45.70 seconds =       0.76 minutes
	system time =       2.32 seconds =       0.04 minutes
	total time  =          8 seconds =       0.13 minutes

    Psi4 stopped on: Monday, 09 November 2020 12:09AM
    Psi4 wall time for execution: 0:00:07.55

*** Psi4 exiting successfully. Buy a developer a beer!
