019_BenBr Gaussian SP Calculation on node35.bme.utexas.edu              
Freq      RMP2-FC                                                     6-31G(d)            
Number of atoms                            I               12
Info1-9                                    I   N=           9
          23          22        1002           0           0         100
           6           2           1
Charge                                     I                0
Multiplicity                               I                1
Number of electrons                        I               76
Number of alpha electrons                  I               38
Number of beta electrons                   I               38
Number of basis functions                  I              130
Number of independent functions            I              130
Number of point charges in /Mol/           I                0
Number of translation vectors              I                0
Atomic numbers                             I   N=          12
          35           6           6           6           6           6
           6           1           1           1           1           1
Nuclear charges                            R   N=          12
  3.50000000E+01  6.00000000E+00  6.00000000E+00  6.00000000E+00  6.00000000E+00
  6.00000000E+00  6.00000000E+00  1.00000000E+00  1.00000000E+00  1.00000000E+00
  1.00000000E+00  1.00000000E+00
Current cartesian coordinates              R   N=          36
 -3.41428401E+00 -7.81465075E-08 -1.10346476E-04  1.91852441E-01  2.55791443E-07
  6.43278278E-06  1.47649212E+00  2.30148334E+00  7.94587900E-05  1.47649529E+00
 -2.30148455E+00  1.58429498E-05  4.11512173E+00  2.28355539E+00  1.64616914E-04
  4.11512060E+00 -2.28355618E+00  1.01488092E-04  5.43817065E+00  1.49772911E-06
  1.75659267E-04  4.30630000E-01  4.06720756E+00  7.00309250E-05  4.30625049E-01
 -4.06720431E+00 -4.23314691E-05  5.13360895E+00  4.06790493E+00  2.21800008E-04
  5.13361433E+00 -4.06790195E+00  1.09309409E-04  7.49194491E+00 -2.03875996E-06
  2.42325019E-04
Force Field                                I                0
Int Atom Types                             I   N=          12
           0           0           0           0           0           0
           0           0           0           0           0           0
MM charges                                 R   N=          12
  0.00000000E+00  0.00000000E+00  0.00000000E+00  0.00000000E+00  0.00000000E+00
  0.00000000E+00  0.00000000E+00  0.00000000E+00  0.00000000E+00  0.00000000E+00
  0.00000000E+00  0.00000000E+00
Integer atomic weights                     I   N=          12
          79          12          12          12          12          12
          12           1           1           1           1           1
Real atomic weights                        R   N=          12
  7.89183361E+01  1.20000000E+01  1.20000000E+01  1.20000000E+01  1.20000000E+01
  1.20000000E+01  1.20000000E+01  1.00782504E+00  1.00782504E+00  1.00782504E+00
  1.00782504E+00  1.00782504E+00
Atom fragment info                         I   N=          12
           0           0           0           0           0           0
           0           0           0           0           0           0
Atom residue num                           I   N=          12
           0           0           0           0           0           0
           0           0           0           0           0           0
Nuclear spins                              I   N=          12
           3           0           0           0           0           0
           0           1           1           1           1           1
Nuclear ZEff                               R   N=          12
 -2.45000000E+01 -3.60000000E+00 -3.60000000E+00 -3.60000000E+00 -3.60000000E+00
 -3.60000000E+00 -3.60000000E+00 -1.00000000E+00 -1.00000000E+00 -1.00000000E+00
 -1.00000000E+00 -1.00000000E+00
Nuclear QMom                               R   N=          12
  3.13000000E+01  0.00000000E+00  0.00000000E+00  0.00000000E+00  0.00000000E+00
  0.00000000E+00  0.00000000E+00  0.00000000E+00  0.00000000E+00  0.00000000E+00
  0.00000000E+00  0.00000000E+00
Nuclear GFac                               R   N=          12
  2.10639900E+00  0.00000000E+00  0.00000000E+00  0.00000000E+00  0.00000000E+00
  0.00000000E+00  0.00000000E+00  2.79284600E+00  2.79284600E+00  2.79284600E+00
  2.79284600E+00  2.79284600E+00
MicOpt                                     I   N=          12
          -1          -1          -1          -1          -1          -1
          -1          -1          -1          -1          -1          -1
Number of contracted shells                I               46
Number of primitive shells                 I              117
Pure/Cartesian d shells                    I                1
Pure/Cartesian f shells                    I                0
Highest angular momentum                   I                2
Largest degree of contraction              I                8
Shell types                                I   N=          46
           0           0           0           0           0           0
           1           1           1           1           2           2
           0          -1          -1           2           0          -1
          -1           2           0          -1          -1           2
           0          -1          -1           2           0          -1
          -1           2           0          -1          -1           2
           0           0           0           0           0           0
           0           0           0           0
Number of primitives per shell             I   N=          46
           8           2           1           1           1           1
           6           3           1           1           5           1
           6           3           1           1           6           3
           1           1           6           3           1           1
           6           3           1           1           6           3
           1           1           6           3           1           1
           3           1           3           1           3           1
           3           1           3           1
Shell to atom map                          I   N=          46
           1           1           1           1           1           1
           1           1           1           1           1           1
           2           2           2           2           3           3
           3           3           4           4           4           4
           5           5           5           5           6           6
           6           6           7           7           7           7
           8           8           9           9          10          10
          11          11          12          12
Primitive exponents                        R   N=         117
  5.74300000E+05  8.90700000E+04  2.02100000E+04  5.73600000E+03  1.89900000E+03
  6.98700000E+02  2.77800000E+02  1.15200000E+02  3.59700000E+01  1.55000000E+01
  4.77100000E+00  2.07700000E+00  4.21100000E-01  1.61000000E-01  4.40600000E+03
  1.04200000E+03  3.32100000E+02  1.21900000E+02  4.92400000E+01  2.11600000E+01
  8.83600000E+00  3.82900000E+00  1.64300000E+00  4.65000000E-01  1.42700000E-01
  1.08400000E+02  3.07100000E+01  1.06600000E+01  3.85100000E+00  1.31700000E+00
  3.38000000E-01  3.04752488E+03  4.57369518E+02  1.03948685E+02  2.92101553E+01
  9.28666296E+00  3.16392696E+00  7.86827235E+00  1.88128854E+00  5.44249258E-01
  1.68714478E-01  8.00000000E-01  3.04752488E+03  4.57369518E+02  1.03948685E+02
  2.92101553E+01  9.28666296E+00  3.16392696E+00  7.86827235E+00  1.88128854E+00
  5.44249258E-01  1.68714478E-01  8.00000000E-01  3.04752488E+03  4.57369518E+02
  1.03948685E+02  2.92101553E+01  9.28666296E+00  3.16392696E+00  7.86827235E+00
  1.88128854E+00  5.44249258E-01  1.68714478E-01  8.00000000E-01  3.04752488E+03
  4.57369518E+02  1.03948685E+02  2.92101553E+01  9.28666296E+00  3.16392696E+00
  7.86827235E+00  1.88128854E+00  5.44249258E-01  1.68714478E-01  8.00000000E-01
  3.04752488E+03  4.57369518E+02  1.03948685E+02  2.92101553E+01  9.28666296E+00
  3.16392696E+00  7.86827235E+00  1.88128854E+00  5.44249258E-01  1.68714478E-01
  8.00000000E-01  3.04752488E+03  4.57369518E+02  1.03948685E+02  2.92101553E+01
  9.28666296E+00  3.16392696E+00  7.86827235E+00  1.88128854E+00  5.44249258E-01
  1.68714478E-01  8.00000000E-01  1.87311370E+01  2.82539436E+00  6.40121692E-01
  1.61277759E-01  1.87311370E+01  2.82539436E+00  6.40121692E-01  1.61277759E-01
  1.87311370E+01  2.82539436E+00  6.40121692E-01  1.61277759E-01  1.87311370E+01
  2.82539436E+00  6.40121692E-01  1.61277759E-01  1.87311370E+01  2.82539436E+00
  6.40121692E-01  1.61277759E-01
Contraction coefficients                   R   N=         117
  2.10682753E-04  1.61271721E-03  8.36010959E-03  3.40275588E-02  1.08515001E-01
  2.67396944E-01  4.29567221E-01  2.86993117E-01  2.77772914E-01  7.47057636E-01
  1.00000000E+00  1.00000000E+00  1.00000000E+00  1.00000000E+00  1.39552623E-03
  1.23748283E-02  6.10175241E-02  2.26775547E-01  4.05975875E-01  4.50692322E-01
  2.92018585E-01  5.30220862E-01  2.75287404E-01  1.00000000E+00  1.00000000E+00
  2.15879371E-02  1.34176036E-01  3.67870647E-01  4.91895206E-01  2.68321979E-01
  1.00000000E+00  1.83473713E-03  1.40373228E-02  6.88426223E-02  2.32184443E-01
  4.67941348E-01  3.62311985E-01 -1.19332420E-01 -1.60854152E-01  1.14345644E+00
  1.00000000E+00  1.00000000E+00  1.83473713E-03  1.40373228E-02  6.88426223E-02
  2.32184443E-01  4.67941348E-01  3.62311985E-01 -1.19332420E-01 -1.60854152E-01
  1.14345644E+00  1.00000000E+00  1.00000000E+00  1.83473713E-03  1.40373228E-02
  6.88426223E-02  2.32184443E-01  4.67941348E-01  3.62311985E-01 -1.19332420E-01
 -1.60854152E-01  1.14345644E+00  1.00000000E+00  1.00000000E+00  1.83473713E-03
  1.40373228E-02  6.88426223E-02  2.32184443E-01  4.67941348E-01  3.62311985E-01
 -1.19332420E-01 -1.60854152E-01  1.14345644E+00  1.00000000E+00  1.00000000E+00
  1.83473713E-03  1.40373228E-02  6.88426223E-02  2.32184443E-01  4.67941348E-01
  3.62311985E-01 -1.19332420E-01 -1.60854152E-01  1.14345644E+00  1.00000000E+00
  1.00000000E+00  1.83473713E-03  1.40373228E-02  6.88426223E-02  2.32184443E-01
  4.67941348E-01  3.62311985E-01 -1.19332420E-01 -1.60854152E-01  1.14345644E+00
  1.00000000E+00  1.00000000E+00  3.34946043E-02  2.34726953E-01  8.13757326E-01
  1.00000000E+00  3.34946043E-02  2.34726953E-01  8.13757326E-01  1.00000000E+00
  3.34946043E-02  2.34726953E-01  8.13757326E-01  1.00000000E+00  3.34946043E-02
  2.34726953E-01  8.13757326E-01  1.00000000E+00  3.34946043E-02  2.34726953E-01
  8.13757326E-01  1.00000000E+00
P(S=P) Contraction coefficients            R   N=         117
  0.00000000E+00  0.00000000E+00  0.00000000E+00  0.00000000E+00  0.00000000E+00
  0.00000000E+00  0.00000000E+00  0.00000000E+00  0.00000000E+00  0.00000000E+00
  0.00000000E+00  0.00000000E+00  0.00000000E+00  0.00000000E+00  0.00000000E+00
  0.00000000E+00  0.00000000E+00  0.00000000E+00  0.00000000E+00  0.00000000E+00
  0.00000000E+00  0.00000000E+00  0.00000000E+00  0.00000000E+00  0.00000000E+00
  0.00000000E+00  0.00000000E+00  0.00000000E+00  0.00000000E+00  0.00000000E+00
  0.00000000E+00  0.00000000E+00  0.00000000E+00  0.00000000E+00  0.00000000E+00
  0.00000000E+00  0.00000000E+00  6.89990666E-02  3.16423961E-01  7.44308291E-01
  1.00000000E+00  0.00000000E+00  0.00000000E+00  0.00000000E+00  0.00000000E+00
  0.00000000E+00  0.00000000E+00  0.00000000E+00  6.89990666E-02  3.16423961E-01
  7.44308291E-01  1.00000000E+00  0.00000000E+00  0.00000000E+00  0.00000000E+00
  0.00000000E+00  0.00000000E+00  0.00000000E+00  0.00000000E+00  6.89990666E-02
  3.16423961E-01  7.44308291E-01  1.00000000E+00  0.00000000E+00  0.00000000E+00
  0.00000000E+00  0.00000000E+00  0.00000000E+00  0.00000000E+00  0.00000000E+00
  6.89990666E-02  3.16423961E-01  7.44308291E-01  1.00000000E+00  0.00000000E+00
  0.00000000E+00  0.00000000E+00  0.00000000E+00  0.00000000E+00  0.00000000E+00
  0.00000000E+00  6.89990666E-02  3.16423961E-01  7.44308291E-01  1.00000000E+00
  0.00000000E+00  0.00000000E+00  0.00000000E+00  0.00000000E+00  0.00000000E+00
  0.00000000E+00  0.00000000E+00  6.89990666E-02  3.16423961E-01  7.44308291E-01
  1.00000000E+00  0.00000000E+00  0.00000000E+00  0.00000000E+00  0.00000000E+00
  0.00000000E+00  0.00000000E+00  0.00000000E+00  0.00000000E+00  0.00000000E+00
  0.00000000E+00  0.00000000E+00  0.00000000E+00  0.00000000E+00  0.00000000E+00
  0.00000000E+00  0.00000000E+00  0.00000000E+00  0.00000000E+00  0.00000000E+00
  0.00000000E+00  0.00000000E+00
Coordinates of each shell                  R   N=         138
 -3.41428401E+00 -7.81465075E-08 -1.10346476E-04 -3.41428401E+00 -7.81465075E-08
 -1.10346476E-04 -3.41428401E+00 -7.81465075E-08 -1.10346476E-04 -3.41428401E+00
 -7.81465075E-08 -1.10346476E-04 -3.41428401E+00 -7.81465075E-08 -1.10346476E-04
 -3.41428401E+00 -7.81465075E-08 -1.10346476E-04 -3.41428401E+00 -7.81465075E-08
 -1.10346476E-04 -3.41428401E+00 -7.81465075E-08 -1.10346476E-04 -3.41428401E+00
 -7.81465075E-08 -1.10346476E-04 -3.41428401E+00 -7.81465075E-08 -1.10346476E-04
 -3.41428401E+00 -7.81465075E-08 -1.10346476E-04 -3.41428401E+00 -7.81465075E-08
 -1.10346476E-04  1.91852441E-01  2.55791443E-07  6.43278278E-06  1.91852441E-01
  2.55791443E-07  6.43278278E-06  1.91852441E-01  2.55791443E-07  6.43278278E-06
  1.91852441E-01  2.55791443E-07  6.43278278E-06  1.47649212E+00  2.30148334E+00
  7.94587900E-05  1.47649212E+00  2.30148334E+00  7.94587900E-05  1.47649212E+00
  2.30148334E+00  7.94587900E-05  1.47649212E+00  2.30148334E+00  7.94587900E-05
  1.47649529E+00 -2.30148455E+00  1.58429498E-05  1.47649529E+00 -2.30148455E+00
  1.58429498E-05  1.47649529E+00 -2.30148455E+00  1.58429498E-05  1.47649529E+00
 -2.30148455E+00  1.58429498E-05  4.11512173E+00  2.28355539E+00  1.64616914E-04
  4.11512173E+00  2.28355539E+00  1.64616914E-04  4.11512173E+00  2.28355539E+00
  1.64616914E-04  4.11512173E+00  2.28355539E+00  1.64616914E-04  4.11512060E+00
 -2.28355618E+00  1.01488092E-04  4.11512060E+00 -2.28355618E+00  1.01488092E-04
  4.11512060E+00 -2.28355618E+00  1.01488092E-04  4.11512060E+00 -2.28355618E+00
  1.01488092E-04  5.43817065E+00  1.49772911E-06  1.75659267E-04  5.43817065E+00
  1.49772911E-06  1.75659267E-04  5.43817065E+00  1.49772911E-06  1.75659267E-04
  5.43817065E+00  1.49772911E-06  1.75659267E-04  4.30630000E-01  4.06720756E+00
  7.00309250E-05  4.30630000E-01  4.06720756E+00  7.00309250E-05  4.30625049E-01
 -4.06720431E+00 -4.23314691E-05  4.30625049E-01 -4.06720431E+00 -4.23314691E-05
  5.13360895E+00  4.06790493E+00  2.21800008E-04  5.13360895E+00  4.06790493E+00
  2.21800008E-04  5.13361433E+00 -4.06790195E+00  1.09309409E-04  5.13361433E+00
 -4.06790195E+00  1.09309409E-04  7.49194491E+00 -2.03875996E-06  2.42325019E-04
  7.49194491E+00 -2.03875996E-06  2.42325019E-04
Constraint Structure                       R   N=          36
 -3.41428401E+00 -7.81465075E-08 -1.10346476E-04  1.91852441E-01  2.55791443E-07
  6.43278278E-06  1.47649212E+00  2.30148334E+00  7.94587900E-05  1.47649529E+00
 -2.30148455E+00  1.58429498E-05  4.11512173E+00  2.28355539E+00  1.64616914E-04
  4.11512060E+00 -2.28355618E+00  1.01488092E-04  5.43817065E+00  1.49772911E-06
  1.75659267E-04  4.30630000E-01  4.06720756E+00  7.00309250E-05  4.30625049E-01
 -4.06720431E+00 -4.23314691E-05  5.13360895E+00  4.06790493E+00  2.21800008E-04
  5.13361433E+00 -4.06790195E+00  1.09309409E-04  7.49194491E+00 -2.03875996E-06
  2.42325019E-04
Num ILSW                                   I              100
ILSW                                       I   N=         100
           0           1           0           0           2           0
           0           0           0           0           0          -1
           0           0           0           0           0           0
           0           0           0           0           1           0
           1           0           0           0           0           0
           0           0      100000           0          -1           0
           0           0           0           0           0           0
           0           0           0           1           1           0
           0           0           1           0           0           0
           0           0           4          40           0           0
           0           0           0           0           0           0
           0           0           0           0           0           0
           0           0           0           0           0           0
           0           0           0           0           0           0
           0           0           0           0           0           0
           0           0           0           0           0           0
           0           0           0           0
Num RLSW                                   I               40
RLSW                                       R   N=          40
  1.00000000E+00  1.00000000E+00  1.00000000E+00  1.00000000E+00  1.00000000E+00
  0.00000000E+00  0.00000000E+00  1.00000000E+00  0.00000000E+00  0.00000000E+00
  0.00000000E+00  0.00000000E+00  1.00000000E+00  0.00000000E+00  0.00000000E+00
  0.00000000E+00  0.00000000E+00  1.00000000E+00  0.00000000E+00  0.00000000E+00
  0.00000000E+00  0.00000000E+00  1.00000000E+00  0.00000000E+00  0.00000000E+00
  0.00000000E+00  0.00000000E+00  1.00000000E+00  0.00000000E+00  0.00000000E+00
  0.00000000E+00  0.00000000E+00  0.00000000E+00  0.00000000E+00  0.00000000E+00
  0.00000000E+00  0.00000000E+00  0.00000000E+00  1.00000000E+00  1.00000000E+00
MxBond                                     I                3
NBond                                      I   N=          12
           1           3           3           3           3           3
           3           1           1           1           1           1
IBond                                      I   N=          36
           2           0           0           1           3           4
           2           5           8           2           6           9
           3           7          10           4           7          11
           5           6          12           3           0           0
           4           0           0           5           0           0
           6           0           0           7           0           0
RBond                                      R   N=          36
  1.00000000E+00  0.00000000E+00  0.00000000E+00  1.00000000E+00  1.50000000E+00
  1.50000000E+00  1.50000000E+00  1.50000000E+00  1.00000000E+00  1.50000000E+00
  1.50000000E+00  1.00000000E+00  1.50000000E+00  1.50000000E+00  1.00000000E+00
  1.50000000E+00  1.50000000E+00  1.00000000E+00  1.50000000E+00  1.50000000E+00
  1.00000000E+00  1.00000000E+00  0.00000000E+00  0.00000000E+00  1.00000000E+00
  0.00000000E+00  0.00000000E+00  1.00000000E+00  0.00000000E+00  0.00000000E+00
  1.00000000E+00  0.00000000E+00  0.00000000E+00  1.00000000E+00  0.00000000E+00
  0.00000000E+00
Virial Ratio                               R      2.004326134925075E+00
SCF Energy                                 R     -2.800008937469806E+03
MP2 Energy                                 R     -2.800880503676323E+03
Total Energy                               R     -2.800880503676323E+03
Post-SCF wavefunction norm                 R      1.634814555549133E+00
RMS Force                                  R      2.172374191063276E-06
RMS Density                                R      4.837563388538559E-10
External E-field                           R   N=          35
  0.00000000E+00  0.00000000E+00  0.00000000E+00  0.00000000E+00  0.00000000E+00
  0.00000000E+00  0.00000000E+00  0.00000000E+00  0.00000000E+00  0.00000000E+00
  0.00000000E+00  0.00000000E+00  0.00000000E+00  0.00000000E+00  0.00000000E+00
  0.00000000E+00  0.00000000E+00  0.00000000E+00  0.00000000E+00  0.00000000E+00
  0.00000000E+00  0.00000000E+00  0.00000000E+00  0.00000000E+00  0.00000000E+00
  0.00000000E+00  0.00000000E+00  0.00000000E+00  0.00000000E+00  0.00000000E+00
  0.00000000E+00  0.00000000E+00  0.00000000E+00  0.00000000E+00  0.00000000E+00
IOpCl                                      I                0
IROHF                                      I                0
Alpha Orbital Energies                     R   N=         130
 -4.90062941E+02 -6.44745004E+01 -5.86139519E+01 -5.86121396E+01 -5.86120290E+01
 -1.13023700E+01 -1.12541170E+01 -1.12540919E+01 -1.12516934E+01 -1.12514452E+01
 -1.12488325E+01 -9.72276552E+00 -7.47196467E+00 -7.46322460E+00 -7.46318844E+00
 -3.21085960E+00 -3.20663445E+00 -3.20662317E+00 -3.19647584E+00 -3.19647013E+00
 -1.16984753E+00 -1.06268810E+00 -1.02857809E+00 -9.65334977E-01 -8.41288923E-01
 -8.12525454E-01 -7.05351262E-01 -6.40291285E-01 -6.39052532E-01 -6.01160122E-01
 -5.69442626E-01 -5.27072977E-01 -5.12090127E-01 -4.86635565E-01 -4.32090777E-01
 -4.10319124E-01 -3.47685044E-01 -3.29672366E-01  1.26449337E-01  1.28733676E-01
  1.66675443E-01  2.49500433E-01  2.81611006E-01  3.00893526E-01  3.18052884E-01
  3.25651512E-01  3.43477179E-01  3.92090469E-01  4.44296957E-01  4.63296946E-01
  4.68214206E-01  4.94262994E-01  5.94454090E-01  6.45062872E-01  6.53238442E-01
  6.56333840E-01  6.68220633E-01  6.74123022E-01  6.95414984E-01  7.20298660E-01
  7.54528814E-01  7.72196876E-01  8.00263646E-01  8.01744272E-01  8.19838731E-01
  8.26354497E-01  8.27866765E-01  8.29052800E-01  8.62803734E-01  9.05228447E-01
  9.42565643E-01  9.77186294E-01  1.01442485E+00  1.01679409E+00  1.05947065E+00
  1.09641058E+00  1.10440584E+00  1.12781351E+00  1.13954797E+00  1.17149100E+00
  1.20210590E+00  1.23164458E+00  1.24488695E+00  1.30506247E+00  1.34816136E+00
  1.39346503E+00  1.45976280E+00  1.48638364E+00  1.49513255E+00  1.66838156E+00
  1.66932764E+00  1.68169613E+00  1.73792594E+00  1.75432984E+00  1.77539117E+00
  1.84038572E+00  1.85152252E+00  2.04640656E+00  2.09118088E+00  2.12208827E+00
  2.17161015E+00  2.26334947E+00  2.28200375E+00  2.37629777E+00  2.38345450E+00
  2.44345815E+00  2.44909253E+00  2.44916754E+00  2.46149749E+00  2.61246315E+00
  2.61500430E+00  2.62732575E+00  2.83636044E+00  2.89452372E+00  2.97715478E+00
  3.00207238E+00  3.05797564E+00  3.07258062E+00  3.07656912E+00  3.09331650E+00
  3.37699642E+00  3.74073602E+00  4.48488694E+00  4.51573535E+00  4.52417002E+00
  4.73101337E+00  4.73620374E+00  5.07115676E+00  9.28082740E+00  7.44789723E+01
Alpha MO coefficients                      R   N=       16900
  9.94937687E-01  3.28019850E-02 -4.42240987E-02 -4.75843946E-02 -2.62220272E-02
 -1.93343765E-02  2.20767212E-05 -7.67532949E-13  7.14220255E-10 -6.43843037E-05
 -3.11031305E-13 -2.08217491E-09  2.81949979E-04  3.04132065E-12  9.11806858E-09
 -4.95503405E-04  1.08995584E-10 -1.60419926E-08  4.40118696E-02  4.40140942E-02
  4.40005837E-02 -3.65358324E-12  4.22407146E-10  2.15584982E-10  1.08977142E-02
  1.08867268E-02  1.09744624E-02  5.87179256E-11 -2.87749086E-09 -1.39999028E-09
 -4.29425185E-05 -1.38233524E-04  1.78903717E-04 -1.24515777E-10  5.78658863E-09
  3.88866544E-04  1.94030830E-04 -2.10772230E-09  6.45220060E-09 -1.53084212E-04
 -2.47203539E-04 -6.92889287E-05 -4.74621986E-11 -3.12959677E-09 -2.83940936E-09
  2.26588396E-06 -6.36316604E-05  3.96140614E-06  1.25123986E-08  1.47155713E-10
 -4.43165540E-04 -6.95261477E-04 -2.04274416E-04 -2.54043055E-08  6.94502401E-05
  6.10610408E-05  1.74711682E-05  7.78011248E-05  3.00459795E-09  3.21809295E-09
  2.26592434E-06 -6.36319144E-05  3.96159478E-06 -1.33710260E-08  1.48011735E-10
 -4.43171346E-04 -6.95258190E-04  2.04276297E-04 -1.97614313E-08  6.94507287E-05
  6.10607802E-05  1.74712478E-05 -7.78009249E-05  8.54073952E-10 -1.82724542E-09
  4.58668037E-07 -7.84247693E-06 -2.31154369E-05 -2.09780955E-05 -1.03469846E-09
  5.81719168E-04 -2.66758939E-04  1.81357753E-04 -6.12941083E-09  1.82323548E-06
  3.56427154E-06  9.53541524E-06  7.45700732E-06 -1.91283584E-10  1.44517323E-10
  4.58690385E-07 -7.84227650E-06 -2.31151809E-05  2.09781828E-05 -4.54479461E-10
  5.81718778E-04 -2.66758681E-04 -1.81359337E-04 -1.11417426E-08  1.82295273E-06
  3.56422345E-06  9.53550196E-06 -7.45704589E-06 -3.98017810E-10 -3.34570381E-10
  2.86304918E-06  6.14084310E-07 -2.09417095E-05 -4.93342104E-11 -6.72950741E-10
  1.51991369E-04  7.91102846E-05 -6.22465457E-10  2.56758755E-09  1.33232187E-05
  7.96210180E-06  9.42978975E-06  6.00654801E-11  1.48555350E-10 -2.33311040E-11
 -7.18778206E-05  2.50919071E-04 -7.18775974E-05  2.50922057E-04 -2.70317711E-05
 -7.47391743E-05 -2.70318146E-05 -7.47395747E-05 -1.71294421E-05 -3.40641604E-05
 -4.23686382E-01  1.16530488E+00 -2.70915508E-01 -3.65361500E-01 -2.01366384E-01
 -1.53450146E-01  9.80968991E-04 -9.24674535E-11  3.17771048E-08 -4.04600108E-04
 -2.02798579E-11 -1.30771690E-08  2.24451218E-03  3.05752177E-11  7.25829296E-08
 -3.94774718E-03  8.50810501E-10 -1.27800200E-07  3.37080125E-01  3.37053077E-01
  3.36943555E-01 -3.61087291E-11  5.11044949E-09  1.74760376E-09  8.57762678E-02
  8.56492286E-02  8.63549652E-02  4.62831394E-10 -2.16948879E-08 -1.12614072E-08
 -3.38908080E-04 -1.03849136E-03  1.43943871E-03 -9.62873877E-10  4.65591376E-08
  3.14891052E-03  1.64336218E-03 -1.66170808E-08  5.45468736E-08 -1.34206045E-03
 -1.92136950E-03 -5.42626971E-04 -4.06075857E-10 -2.98667538E-08 -2.20038533E-08
  1.60356967E-05 -5.02379769E-04  5.14960152E-05  6.58863190E-06  1.90516555E-09
 -3.67440170E-03 -5.68700364E-03 -1.57658703E-03 -2.06477743E-07  5.35770342E-04
  4.86215060E-04  1.25078339E-04  6.00952621E-04  2.35517594E-08  2.52462382E-08
  1.60360084E-05 -5.02381341E-04  5.14974326E-05 -6.59542425E-06  1.73243714E-09
 -3.67444933E-03 -5.68697850E-03  1.57660195E-03 -1.62925614E-07  5.35773834E-04
  4.86212896E-04  1.25078917E-04 -6.00950992E-04  6.94053037E-09 -1.37233195E-08
  4.54282198E-07 -7.38785326E-05 -1.83647651E-04 -1.65637491E-04 -8.20663490E-09
  4.85325926E-03 -2.22508898E-03  1.38558820E-03 -5.28879433E-08  1.76970759E-05
  2.45474456E-05  6.67690600E-05  5.28923413E-05 -1.14907742E-09  1.02855289E-09
  4.54459529E-07 -7.38769997E-05 -1.83645775E-04  1.65638132E-04 -3.62542294E-09
  4.85325716E-03 -2.22508794E-03 -1.38560080E-03 -9.11818140E-08  1.76949835E-05
  2.45470740E-05  6.67697445E-05 -5.28926037E-05 -2.61584874E-09 -2.37204901E-09
  2.32727020E-05  1.55272463E-05 -1.66248582E-04 -3.65621814E-10 -5.34357827E-09
  1.11089516E-03  7.26656665E-04 -5.25628004E-09  2.35733568E-08  1.02993242E-04
  5.77623107E-05  7.35934227E-05  4.64236677E-10  1.12472368E-09 -2.51935660E-10
 -5.88580454E-04  1.96998997E-03 -5.88578793E-04  1.97001372E-03 -2.12978294E-04
 -5.74259856E-04 -2.12978581E-04 -5.74262888E-04 -1.41451688E-04 -2.97507397E-04
  2.53086794E-04 -1.94916126E-03  3.33608395E-03  1.75027556E-03  9.92351868E-04
  9.23120911E-04  9.76660592E-01 -6.36418412E-08  3.16235940E-05  6.24563168E-02
 -3.98292225E-09  2.02223791E-06 -2.03634147E-02  6.96488039E-10 -6.59036460E-07
  3.32025303E-03  5.02002920E-09  1.06410065E-07 -2.81581026E-03 -3.17434464E-03
 -3.06822419E-03 -2.93416431E-10  9.51887794E-09 -1.69371654E-09 -6.22319381E-03
 -2.44007168E-03 -3.13945149E-03  3.10296632E-09 -1.15933195E-07  1.11621477E-08
  1.37878584E-04 -1.08412120E-03  1.09272235E-03 -7.82453126E-10  3.52637065E-08
 -1.70017926E-02 -2.54238203E-02 -5.59775019E-08 -8.20567570E-07  2.85759656E-03
 -3.45044847E-04  3.89614466E-05 -5.62499185E-10  1.05929849E-07 -6.13535230E-09
 -1.52334394E-04 -9.71593623E-04 -8.26584186E-04 -1.39159516E-04 -2.87305539E-08
  2.20336736E-02  1.44745254E-02 -1.28671412E-02  2.91797255E-07  1.74503906E-04
  1.21046205E-04 -1.75332875E-04 -1.65688789E-06  1.32357140E-08  4.38602775E-09
 -1.52335196E-04 -9.71599661E-04 -8.26586625E-04  1.39160162E-04 -2.48615074E-08
  2.20337336E-02  1.44746533E-02  1.28671008E-02  6.47277244E-07  1.74508115E-04
  1.21045106E-04 -1.75334507E-04  1.65572427E-06  1.32917965E-08  5.09936205E-09
  1.49502521E-04  9.43166813E-04  4.30055547E-04  1.37038666E-04  1.57238802E-08
 -2.16317267E-02  7.93710129E-03  6.87168090E-03  3.52268486E-07 -3.06377393E-04
  2.96997877E-05  2.01262203E-04  4.41382854E-05 -1.84737760E-08 -1.59434839E-09
  1.49502918E-04  9.43169409E-04  4.30059654E-04 -1.37036429E-04  1.19377158E-08
 -2.16318232E-02  7.93720048E-03 -6.87166616E-03  1.62292089E-07 -3.06378935E-04
  2.97000625E-05  2.01262773E-04 -4.41387212E-05 -1.97002258E-08 -3.88106446E-09
 -1.62375888E-04 -8.41000232E-04  1.56364172E-04 -1.45767079E-09  4.98372641E-09
  1.28139612E-02 -9.52340017E-03  3.30730174E-08 -3.07376531E-07 -1.04122009E-04
  1.15649953E-04 -3.17552126E-04  2.73853764E-10  7.66841399E-09  6.91415094E-09
  1.10317637E-03  5.55610653E-03  1.10318123E-03  5.55611129E-03 -5.84899251E-05
 -1.83577318E-03 -5.84916137E-05 -1.83578257E-03  4.37440218E-04  2.40524333E-03
 -2.95270978E-11 -8.88258039E-12  2.11606700E-10  9.40916144E-11 -5.63034055E-10
  1.24144233E-09  6.31686182E-08  9.76840676E-01  1.34929253E-05  4.08872210E-09
  6.18586597E-02  8.54443495E-07 -1.65898885E-09 -1.80378291E-02 -2.49157400E-07
  3.15166173E-10  7.32679965E-03  1.01201329E-07 -1.70600866E-10 -2.61310220E-10
 -1.69460701E-10  5.89978788E-05  8.15252287E-10  1.93952910E-09 -1.02762191E-09
 -5.07939367E-11 -7.07947266E-10 -4.18083841E-04 -5.77983249E-09 -1.37240665E-08
 -1.31373098E-10 -9.97314196E-10  1.01765801E-09 -3.28666339E-04 -4.54242711E-09
  4.48134542E-08  4.99467818E-09  1.29881937E-02  1.79506181E-07  1.47343702E-10
  1.42031331E-09 -5.23640588E-10  3.41197713E-04  4.71670808E-09  1.07563753E-08
  9.65384367E-05  5.77077030E-04 -2.49901104E-04 -1.54342487E-05 -8.24527379E-09
 -5.70275671E-03  8.67657630E-03  5.45168473E-03  3.54756052E-07  7.89287856E-05