
    -----------------------------------------------------------------------
          Psi4: An Open-Source Ab Initio Electronic Structure Package
                               Psi4 1.3.2 release

                         Git: Rev {HEAD} ecbda83 


    R. M. Parrish, L. A. Burns, D. G. A. Smith, A. C. Simmonett,
    A. E. DePrince III, E. G. Hohenstein, U. Bozkaya, A. Yu. Sokolov,
    R. Di Remigio, R. M. Richard, J. F. Gonthier, A. M. James,
    H. R. McAlexander, A. Kumar, M. Saitow, X. Wang, B. P. Pritchard,
    P. Verma, H. F. Schaefer III, K. Patkowski, R. A. King, E. F. Valeev,
    F. A. Evangelista, J. M. Turney, T. D. Crawford, and C. D. Sherrill,
    J. Chem. Theory Comput. 13(7) pp 3185--3197 (2017).
    (doi: 10.1021/acs.jctc.7b00174)


                         Additional Contributions by
    P. Kraus, H. Kruse, M. H. Lechner, M. C. Schieber, R. A. Shaw,
    A. Alenaizan, R. Galvelis, Z. L. Glick, S. Lehtola, and J. P. Misiewicz

    -----------------------------------------------------------------------


    Psi4 started on: Thursday, 05 November 2020 06:22PM

    Process ID: 4979
    Host:       node37.bme.utexas.edu
    PSIDATADIR: /home/xy3866/psi4conda/share/psi4
    Memory:     500.0 MiB
    Threads:    8
    
  ==> Input File <==

--------------------------------------------------------------------------
#psi4
#
memory 32 gb

molecule  {
0 1
  N        2.8432420    -0.0000300    -0.0741500
  C       -1.3988676    -0.0455897     0.0089073
  C        1.4375000     0.0000010     0.0042750
  C       -0.6732730    -1.1974670    -0.0089890
  C       -0.6732520     1.1975000    -0.0089860
  C        0.7202200    -1.2039320    -0.0146160
  C        0.7202540     1.2039380    -0.0146150
  C       -2.9047610    -0.0000170     0.0277710
  H       -1.2061990    -2.1473890    -0.0196480
  H       -1.2061560     2.1474320    -0.0196330
  H        1.2592620    -2.1503360    -0.0187000
  H        1.2593140     2.1503320    -0.0186990
  H       -3.3125570     0.8858000    -0.4679490
  H       -3.3126490    -0.8837290    -0.4716300
  H       -3.2750890    -0.0021640     1.0590980
  H        3.2618470     0.8295390     0.3353270
  H        3.2618090    -0.8296010     0.3353740
units angstrom
no_reorient  #important for SAPT in psi4, default
symmetry c1  #important for SAPT in psi4, default
}

set PROPERTIES_ORIGIN ["COM"]
properties('MP2/aug-cc-pvtz', properties = ['dipole'])
--------------------------------------------------------------------------

  Memory set to  29.802 GiB by Python driver.
    SCF Algorithm Type (re)set to DF.

*** tstart() called on node37.bme.utexas.edu
*** at Thu Nov  5 18:22:35 2020

   => Loading Basis Set <=

    Name: AUG-CC-PVTZ
    Role: ORBITAL
    Keyword: BASIS
    atoms 1    entry N          line   281 file /home/xy3866/psi4conda/share/psi4/basis/aug-cc-pvtz.gbs 
    atoms 2-8  entry C          line   235 file /home/xy3866/psi4conda/share/psi4/basis/aug-cc-pvtz.gbs 
    atoms 9-17 entry H          line    36 file /home/xy3866/psi4conda/share/psi4/basis/aug-cc-pvtz.gbs 


         ---------------------------------------------------------
                                   SCF
               by Justin Turney, Rob Parrish, Andy Simmonett
                          and Daniel G. A. Smith
                              RHF Reference
                        8 Threads,  30517 MiB Core
         ---------------------------------------------------------

  ==> Geometry <==

    Molecular point group: c1
    Full point group: C1

    Geometry (in Angstrom), charge = 0, multiplicity = 1:

       Center              X                  Y                   Z               Mass       
    ------------   -----------------  -----------------  -----------------  -----------------
         N            2.812870677183     0.005081791466    -0.070468072478    14.003074004430
         C           -1.429238922817    -0.040477908534     0.012589227522    12.000000000000
         C            1.407128677183     0.005112791466     0.007956927522    12.000000000000
         C           -0.703644322817    -1.192355208534    -0.005307072478    12.000000000000
         C           -0.703623322817     1.202611791466    -0.005304072478    12.000000000000
         C            0.689848677183    -1.198820208534    -0.010934072478    12.000000000000
         C            0.689882677183     1.209049791466    -0.010933072478    12.000000000000
         C           -2.935132322817     0.005094791466     0.031452927522    12.000000000000
         H           -1.236570322817    -2.142277208534    -0.015966072478     1.007825032230
         H           -1.236527322817     2.152543791466    -0.015951072478     1.007825032230
         H            1.228890677183    -2.145224208534    -0.015018072478     1.007825032230
         H            1.228942677183     2.155443791466    -0.015017072478     1.007825032230
         H           -3.342928322817     0.890911791466    -0.464267072478     1.007825032230
         H           -3.343020322817    -0.878617208534    -0.467948072478     1.007825032230
         H           -3.305460322817     0.002947791466     1.062779927522     1.007825032230
         H            3.231475677183     0.834650791466     0.339008927522     1.007825032230
         H            3.231437677183    -0.824489208534     0.339055927522     1.007825032230

  Running in c1 symmetry.

  Rotational constants: A =      0.18188  B =      0.04839  C =      0.03855 [cm^-1]
  Rotational constants: A =   5452.70799  B =   1450.72347  C =   1155.72345 [MHz]
  Nuclear repulsion =  341.957850489824125

  Charge       = 0
  Multiplicity = 1
  Electrons    = 58
  Nalpha       = 29
  Nbeta        = 29

  ==> Algorithm <==

  SCF Algorithm Type is DF.
  DIIS enabled.
  MOM disabled.
  Fractional occupation disabled.
  Guess Type is SAD.
  Energy threshold   = 1.00e-10
  Density threshold  = 1.00e-10
  Integral threshold = 0.00e+00

  ==> Primary Basis <==

  Basis Set: AUG-CC-PVTZ
    Blend: AUG-CC-PVTZ
    Number of shells: 193
    Number of basis function: 575
    Number of Cartesian functions: 665
    Spherical Harmonics?: true
    Max angular momentum: 3

   => Loading Basis Set <=

    Name: (AUG-CC-PVTZ AUX)
    Role: JKFIT
    Keyword: DF_BASIS_SCF
    atoms 1    entry N          line   224 file /home/xy3866/psi4conda/share/psi4/basis/aug-cc-pvtz-jkfit.gbs 
    atoms 2-8  entry C          line   162 file /home/xy3866/psi4conda/share/psi4/basis/aug-cc-pvtz-jkfit.gbs 
    atoms 9-17 entry H          line    70 file /home/xy3866/psi4conda/share/psi4/basis/aug-cc-pvtz-jkfit.gbs 

  ==> Pre-Iterations <==

   -------------------------------------------------------
    Irrep   Nso     Nmo     Nalpha   Nbeta   Ndocc  Nsocc
   -------------------------------------------------------
     A        575     575       0       0       0       0
   -------------------------------------------------------
    Total     575     575      29      29      29       0
   -------------------------------------------------------

  ==> Integral Setup <==

  DFHelper Memory: AOs need 3.023 GiB; user supplied 22.352 GiB. Using in-core AOs.

  ==> MemDFJK: Density-Fitted J/K Matrices <==

    J tasked:                   Yes
    K tasked:                   Yes
    wK tasked:                   No
    OpenMP threads:               8
    Memory [MiB]:             22888
    Algorithm:                 Disk
    Schwarz Cutoff:           1E-12
    Mask sparsity (%):       4.6881
    Fitting Condition:        1E-10

   => Auxiliary Basis Set <=

  Basis Set: (AUG-CC-PVTZ AUX)
    Blend: AUG-CC-PVTZ-JKFIT
    Number of shells: 366
    Number of basis function: 1246
    Number of Cartesian functions: 1543
    Spherical Harmonics?: true
    Max angular momentum: 4

  Minimum eigenvalue in the overlap matrix is 5.8700183087E-07.
  Using Symmetric Orthogonalization.

  SCF Guess: Superposition of Atomic Densities via on-the-fly atomic UHF.

  ==> Iterations <==

                           Total Energy        Delta E     RMS |[F,P]|

   @DF-RHF iter SAD:  -324.31581890028633   -3.24316e+02   0.00000e+00 
   @DF-RHF iter   1:  -324.59632293109388   -2.80504e-01   1.18999e-03 DIIS
   @DF-RHF iter   2:  -324.82757249253598   -2.31250e-01   5.48926e-04 DIIS
   @DF-RHF iter   3:  -324.87689046734027   -4.93180e-02   1.02095e-04 DIIS
   @DF-RHF iter   4:  -324.87974391347132   -2.85345e-03   3.76816e-05 DIIS
   @DF-RHF iter   5:  -324.88002784047632   -2.83927e-04   9.13737e-06 DIIS
   @DF-RHF iter   6:  -324.88005058664862   -2.27462e-05   3.63407e-06 DIIS
   @DF-RHF iter   7:  -324.88005430121962   -3.71457e-06   9.43490e-07 DIIS
   @DF-RHF iter   8:  -324.88005483186902   -5.30649e-07   3.72265e-07 DIIS
   @DF-RHF iter   9:  -324.88005492837749   -9.65085e-08   1.59315e-07 DIIS
   @DF-RHF iter  10:  -324.88005495348676   -2.51093e-08   7.92185e-08 DIIS
   @DF-RHF iter  11:  -324.88005496036220   -6.87544e-09   2.96359e-08 DIIS
   @DF-RHF iter  12:  -324.88005496125322   -8.91021e-10   1.40263e-08 DIIS
   @DF-RHF iter  13:  -324.88005496135889   -1.05672e-10   3.87781e-09 DIIS
   @DF-RHF iter  14:  -324.88005496136907   -1.01750e-11   1.10806e-09 DIIS
   @DF-RHF iter  15:  -324.88005496137134   -2.27374e-12   5.33078e-10 DIIS
   @DF-RHF iter  16:  -324.88005496136856    2.78533e-12   2.22540e-10 DIIS
   @DF-RHF iter  17:  -324.88005496136839    1.70530e-13   1.03092e-10 DIIS
   @DF-RHF iter  18:  -324.88005496136896   -5.68434e-13   4.18985e-11 DIIS
  Energy and wave function converged.


  ==> Post-Iterations <==

    Orbital Energies [Eh]
    ---------------------

    Doubly Occupied:                                                      

       1A    -15.563646     2A    -11.272565     3A    -11.235536  
       4A    -11.227476     5A    -11.225768     6A    -11.225450  
       7A    -11.222510     8A    -11.218727     9A     -1.218052  
      10A     -1.129903    11A     -1.020695    12A     -1.007206  
      13A     -0.915087    14A     -0.831126    15A     -0.788505  
      16A     -0.690913    17A     -0.681899    18A     -0.633921  
      19A     -0.601186    20A     -0.585307    21A     -0.577278  
      22A     -0.570361    23A     -0.530950    24A     -0.524111  
      25A     -0.497232    26A     -0.475849    27A     -0.438647  
      28A     -0.334848    29A     -0.287412  

    Virtual:                                                              

      30A      0.027030    31A      0.033204    32A      0.034246  
      33A      0.045610    34A      0.047013    35A      0.048838  
      36A      0.063070    37A      0.069599    38A      0.085133  
      39A      0.087054    40A      0.095593    41A      0.101817  
      42A      0.109304    43A      0.113500    44A      0.114630  
      45A      0.115429    46A      0.121809    47A      0.131184  
      48A      0.133364    49A      0.136277    50A      0.139497  
      51A      0.141755    52A      0.144953    53A      0.148917  
      54A      0.152459    55A      0.158164    56A      0.165868  
      57A      0.170204    58A      0.173714    59A      0.180067  
      60A      0.180403    61A      0.185895    62A      0.186429  
      63A      0.208195    64A      0.212677    65A      0.220715  
      66A      0.225736    67A      0.237319    68A      0.241824  
      69A      0.255825    70A      0.260011    71A      0.261244  
      72A      0.271484    73A      0.277108    74A      0.285862  
      75A      0.288548    76A      0.291260    77A      0.300099  
      78A      0.312731    79A      0.317132    80A      0.319171  
      81A      0.325053    82A      0.338391    83A      0.344305  
      84A      0.349663    85A      0.351378    86A      0.360192  
      87A      0.362380    88A      0.371576    89A      0.375424  
      90A      0.376450    91A      0.377603    92A      0.381818  
      93A      0.386486    94A      0.394790    95A      0.397262  
      96A      0.407992    97A      0.418351    98A      0.422396  
      99A      0.424724   100A      0.429715   101A      0.432821  
     102A      0.435216   103A      0.442236   104A      0.447211  
     105A      0.453209   106A      0.458591   107A      0.464436  
     108A      0.470465   109A      0.471704   110A      0.478523  
     111A      0.480429   112A      0.488407   113A      0.492104  
     114A      0.496042   115A      0.501729   116A      0.504990  
     117A      0.505789   118A      0.519942   119A      0.524244  
     120A      0.525223   121A      0.528294   122A      0.532834  
     123A      0.538727   124A      0.546922   125A      0.548392  
     126A      0.553939   127A      0.556199   128A      0.559842  
     129A      0.565528   130A      0.572934   131A      0.581887  
     132A      0.592959   133A      0.598333   134A      0.610929  
     135A      0.616319   136A      0.620534   137A      0.642615  
     138A      0.647056   139A      0.668368   140A      0.679494  
     141A      0.686696   142A      0.695562   143A      0.708855  
     144A      0.712256   145A      0.716266   146A      0.718047  
     147A      0.724506   148A      0.737410   149A      0.746370  
     150A      0.748879   151A      0.751923   152A      0.764673  
     153A      0.770779   154A      0.775354   155A      0.783654  
     156A      0.798387   157A      0.804352   158A      0.833962  
     159A      0.840441   160A      0.842889   161A      0.849369  
     162A      0.851732   163A      0.863195   164A      0.867988  
     165A      0.872967   166A      0.879363   167A      0.884964  
     168A      0.891757   169A      0.894377   170A      0.896276  
     171A      0.902652   172A      0.904074   173A      0.923532  
     174A      0.933158   175A      0.936320   176A      0.938728  
     177A      0.941731   178A      0.949037   179A      0.958867  
     180A      0.967189   181A      0.969844   182A      0.972063  
     183A      0.977798   184A      0.987712   185A      0.993948  
     186A      0.996414   187A      0.999654   188A      1.013455  
     189A      1.014712   190A      1.024672   191A      1.032619  
     192A      1.049030   193A      1.055139   194A      1.055966  
     195A      1.060984   196A      1.068178   197A      1.069348  
     198A      1.070730   199A      1.079754   200A      1.083415  
     201A      1.092209   202A      1.097584   203A      1.101201  
     204A      1.103853   205A      1.114757   206A      1.119638  
     207A      1.135942   208A      1.139492   209A      1.150150  
     210A      1.161321   211A      1.161998   212A      1.163938  
     213A      1.174435   214A      1.177466   215A      1.185489  
     216A      1.193605   217A      1.200605   218A      1.201657  
     219A      1.216043   220A      1.225135   221A      1.227365  
     222A      1.236404   223A      1.242471   224A      1.245513  
     225A      1.247226   226A      1.254456   227A      1.267054  
     228A      1.268324   229A      1.284458   230A      1.285870  
     231A      1.290015   232A      1.307952   233A      1.321839  
     234A      1.331790   235A      1.337537   236A      1.350590  
     237A      1.356373   238A      1.356723   239A      1.376124  
     240A      1.382059   241A      1.387498   242A      1.389489  
     243A      1.413967   244A      1.423496   245A      1.429285  
     246A      1.447507   247A      1.457914   248A      1.462745  
     249A      1.466378   250A      1.480189   251A      1.491443  
     252A      1.499631   253A      1.501296   254A      1.504884  
     255A      1.527081   256A      1.543373   257A      1.545596  
     258A      1.557648   259A      1.564228   260A      1.578807  
     261A      1.603732   262A      1.607142   263A      1.624737  
     264A      1.628361   265A      1.636925   266A      1.660062  
     267A      1.682728   268A      1.689767   269A      1.692456  
     270A      1.711449   271A      1.714208   272A      1.730306  
     273A      1.737685   274A      1.749811   275A      1.754844  
     276A      1.762932   277A      1.766796   278A      1.787695  
     279A      1.802147   280A      1.805676   281A      1.815976  
     282A      1.819548   283A      1.834218   284A      1.844560  
     285A      1.858408   286A      1.868845   287A      1.877304  
     288A      1.880009   289A      1.904121   290A      1.906233  
     291A      1.914067   292A      1.923295   293A      1.926123  
     294A      1.937666   295A      1.973572   296A      1.980197  
     297A      1.988534   298A      1.998558   299A      2.002054  
     300A      2.013943   301A      2.026209   302A      2.042015  
     303A      2.054135   304A      2.065883   305A      2.073249  
     306A      2.076475   307A      2.090531   308A      2.096583  
     309A      2.104459   310A      2.123861   311A      2.137416  
     312A      2.141241   313A      2.146724   314A      2.157080  
     315A      2.170862   316A      2.175042   317A      2.192908  
     318A      2.195142   319A      2.208208   320A      2.218279  
     321A      2.232060   322A      2.250073   323A      2.255125  
     324A      2.259003   325A      2.277219   326A      2.292639  
     327A      2.295502   328A      2.302187   329A      2.306330  
     330A      2.354087   331A      2.366559   332A      2.376415  
     333A      2.382630   334A      2.391979   335A      2.407412  
     336A      2.433144   337A      2.434414   338A      2.440269  
     339A      2.461449   340A      2.479283   341A      2.513496  
     342A      2.520800   343A      2.537317   344A      2.552903  
     345A      2.557068   346A      2.563435   347A      2.623401  
     348A      2.630310   349A      2.682283   350A      2.694120  
     351A      2.713693   352A      2.736136   353A      2.753692  
     354A      2.801757   355A      2.820762   356A      2.849998  
     357A      2.857937   358A      2.875952   359A      2.908533  
     360A      2.965792   361A      3.019754   362A      3.093350  
     363A      3.110031   364A      3.131285   365A      3.142978  
     366A      3.216273   367A      3.240309   368A      3.259956  
     369A      3.269009   370A      3.273340   371A      3.296367  
     372A      3.323079   373A      3.343921   374A      3.365306  
     375A      3.371457   376A      3.407293   377A      3.409590  
     378A      3.417200   379A      3.431402   380A      3.440327  
     381A      3.468936   382A      3.504106   383A      3.515618  
     384A      3.532631   385A      3.536260   386A      3.541639  
     387A      3.568333   388A      3.576724   389A      3.588865  
     390A      3.591293   391A      3.598333   392A      3.608577  
     393A      3.631664   394A      3.639004   395A      3.664012  
     396A      3.667890   397A      3.685095   398A      3.691231  
     399A      3.707397   400A      3.709653   401A      3.721433  
     402A      3.744631   403A      3.752329   404A      3.769157  
     405A      3.789705   406A      3.808194   407A      3.823174  
     408A      3.840594   409A      3.862968   410A      3.871372  
     411A      3.873847   412A      3.891694   413A      3.893150  
     414A      3.902257   415A      3.913168   416A      3.928665  
     417A      3.938394   418A      3.942760   419A      3.965848  
     420A      3.973718   421A      3.983664   422A      3.991486  
     423A      4.012196   424A      4.015843   425A      4.029909  
     426A      4.041219   427A      4.051899   428A      4.065403  
     429A      4.079429   430A      4.082890   431A      4.094061  
     432A      4.113259   433A      4.158014   434A      4.171779  
     435A      4.175211   436A      4.179562   437A      4.187276  
     438A      4.202164   439A      4.213078   440A      4.222238  
     441A      4.228773   442A      4.259743   443A      4.276858  
     444A      4.279890   445A      4.290439   446A      4.308231  
     447A      4.320472   448A      4.329720   449A      4.334323  
     450A      4.364577   451A      4.367687   452A      4.379751  
     453A      4.410868   454A      4.422573   455A      4.425714  
     456A      4.433434   457A      4.440313   458A      4.446925  
     459A      4.456379   460A      4.466699   461A      4.482222  
     462A      4.494688   463A      4.505920   464A      4.514702  
     465A      4.525062   466A      4.532618   467A      4.556381  
     468A      4.564019   469A      4.588491   470A      4.610353  
     471A      4.635819   472A      4.649688   473A      4.668008  
     474A      4.682415   475A      4.695886   476A      4.712639  
     477A      4.717756   478A      4.739609   479A      4.745030  
     480A      4.754018   481A      4.767080   482A      4.789217  
     483A      4.820839   484A      4.844998   485A      4.861942  
     486A      4.864838   487A      4.889449   488A      4.895500  
     489A      4.911812   490A      4.943225   491A      4.947151  
     492A      4.961253   493A      4.970740   494A      4.985040  
     495A      5.001533   496A      5.040123   497A      5.058610  
     498A      5.067420   499A      5.075185   500A      5.089630  
     501A      5.115082   502A      5.128028   503A      5.161125  
     504A      5.175079   505A      5.183084   506A      5.191444  
     507A      5.203217   508A      5.208070   509A      5.244137  
     510A      5.264654   511A      5.281436   512A      5.288386  
     513A      5.301431   514A      5.331009   515A      5.344268  
     516A      5.366575   517A      5.368127   518A      5.384456  
     519A      5.420790   520A      5.430425   521A      5.432497  
     522A      5.477306   523A      5.489261   524A      5.507836  
     525A      5.518602   526A      5.580568   527A      5.583310  
     528A      5.611342   529A      5.673778   530A      5.709007  
     531A      5.758419   532A      5.766356   533A      5.774476  
     534A      5.784179   535A      5.833358   536A      5.872596  
     537A      5.914780   538A      5.995529   539A      6.005230  
     540A      6.042932   541A      6.052030   542A      6.088803  
     543A      6.108331   544A      6.140289   545A      6.177520  
     546A      6.192282   547A      6.207372   548A      6.245593  
     549A      6.251680   550A      6.276348   551A      6.383083  
     552A      6.443054   553A      6.500097   554A      6.520181  
     555A      6.528662   556A      6.669287   557A      6.745779  
     558A      6.774357   559A      6.842973   560A      6.875097  
     561A      6.897126   562A      6.908917   563A      7.122102  
     564A      7.149336   565A      7.276376   566A      7.318743  
     567A      7.804940   568A     15.965640   569A     16.476101  
     570A     17.567176   571A     18.120873   572A     19.348974  
     573A     19.547909   574A     20.056770   575A     20.200938  

    Final Occupation by Irrep:
              A 
    DOCC [    29 ]

  @DF-RHF Final Energy:  -324.88005496136896

   => Energetics <=

    Nuclear Repulsion Energy =            341.9578504898241249
    One-Electron Energy =               -1116.6114795318715096
    Two-Electron Energy =                 449.7735740806784861
    Total Energy =                       -324.8800549613689554

Computation Completed

*** tstop() called on node37.bme.utexas.edu at Thu Nov  5 18:23:54 2020
Module time:
	user time   =     264.42 seconds =       4.41 minutes
	system time =      61.80 seconds =       1.03 minutes
	total time  =         79 seconds =       1.32 minutes
Total time:
	user time   =     264.42 seconds =       4.41 minutes
	system time =      61.80 seconds =       1.03 minutes
	total time  =         79 seconds =       1.32 minutes
   => Loading Basis Set <=

    Name: (AUG-CC-PVTZ AUX)
    Role: RIFIT
    Keyword: DF_BASIS_MP2
    atoms 1    entry N          line   206 file /home/xy3866/psi4conda/share/psi4/basis/aug-cc-pvtz-ri.gbs 
    atoms 2-8  entry C          line   148 file /home/xy3866/psi4conda/share/psi4/basis/aug-cc-pvtz-ri.gbs 
    atoms 9-17 entry H          line    30 file /home/xy3866/psi4conda/share/psi4/basis/aug-cc-pvtz-ri.gbs 


*** tstart() called on node37.bme.utexas.edu
*** at Thu Nov  5 18:23:54 2020


  //>>>>>>>>>>>>>>>>>>>>>>>>>>>>>>>>>>>//
  //               DFMP2               //
  //<<<<<<<<<<<<<<<<<<<<<<<<<<<<<<<<<<<//

	 --------------------------------------------------------
	                          DF-MP2                         
	      2nd-Order Density-Fitted Moller-Plesset Theory     
	              RMP2 Wavefunction,   8 Threads             
	                                                         
	        Rob Parrish, Justin Turney, Andy Simmonett,      
	           Ed Hohenstein, and C. David Sherrill          
	 --------------------------------------------------------

   => Auxiliary Basis Set <=

  Basis Set: (AUG-CC-PVTZ AUX)
    Blend: AUG-CC-PVTZ-RI
    Number of shells: 350
    Number of basis function: 1262
    Number of Cartesian functions: 1583
    Spherical Harmonics?: true
    Max angular momentum: 4

	 --------------------------------------------------------
	                 NBF =   575, NAUX =  1262
	 --------------------------------------------------------
	   CLASS    FOCC     OCC    AOCC    AVIR     VIR    FVIR
	   PAIRS       0      29      29     546     546       0
	 --------------------------------------------------------

  DFHelper Memory: AOs need 3.023 GiB; user supplied 22.352 GiB. Using in-core AOs.


         ------------------------------------------------------------
                                     CPHF                           
                                  Rob Parrish                       
         ------------------------------------------------------------

  ==> Geometry <==

    Molecular point group: c1
    Full point group: C1

    Geometry (in Angstrom), charge = 0, multiplicity = 1:

       Center              X                  Y                   Z               Mass       
    ------------   -----------------  -----------------  -----------------  -----------------
         N            2.812870677183     0.005081791466    -0.070468072478    14.003074004430
         C           -1.429238922817    -0.040477908534     0.012589227522    12.000000000000
         C            1.407128677183     0.005112791466     0.007956927522    12.000000000000
         C           -0.703644322817    -1.192355208534    -0.005307072478    12.000000000000
         C           -0.703623322817     1.202611791466    -0.005304072478    12.000000000000
         C            0.689848677183    -1.198820208534    -0.010934072478    12.000000000000
         C            0.689882677183     1.209049791466    -0.010933072478    12.000000000000
         C           -2.935132322817     0.005094791466     0.031452927522    12.000000000000
         H           -1.236570322817    -2.142277208534    -0.015966072478     1.007825032230
         H           -1.236527322817     2.152543791466    -0.015951072478     1.007825032230
         H            1.228890677183    -2.145224208534    -0.015018072478     1.007825032230
         H            1.228942677183     2.155443791466    -0.015017072478     1.007825032230
         H           -3.342928322817     0.890911791466    -0.464267072478     1.007825032230
         H           -3.343020322817    -0.878617208534    -0.467948072478     1.007825032230
         H           -3.305460322817     0.002947791466     1.062779927522     1.007825032230
         H            3.231475677183     0.834650791466     0.339008927522     1.007825032230
         H            3.231437677183    -0.824489208534     0.339055927522     1.007825032230

  Nuclear repulsion =  341.957850489824125
  Reference energy  = -324.880054961368955

  ==> Basis Set <==

  Basis Set: AUG-CC-PVTZ
    Blend: AUG-CC-PVTZ
    Number of shells: 193
    Number of basis function: 575
    Number of Cartesian functions: 665
    Spherical Harmonics?: true
    Max angular momentum: 3

  ==> CGRSolver (by Rob Parrish) <==

   Number of roots    =         1
   Preconditioning    =    JACOBI
   Convergence cutoff =     1E-06
   Maximum iterations =       100

  ==> CPHFRHamiltonian (by Rob Parrish) <== 

  ==> MemDFJK: Density-Fitted J/K Matrices <==

    J tasked:                   Yes
    K tasked:                   Yes
    wK tasked:                   No
    OpenMP threads:               8
    Memory [MiB]:             22888
    Algorithm:                 Disk
    Schwarz Cutoff:           1E-12
    Mask sparsity (%):       4.6881
    Fitting Condition:        1E-10

   => Auxiliary Basis Set <=

  Basis Set: (AUG-CC-PVTZ AUX)
    Blend: AUG-CC-PVTZ-JKFIT
    Number of shells: 366
    Number of basis function: 1246
    Number of Cartesian functions: 1543
    Spherical Harmonics?: true
    Max angular momentum: 4

  ==> CPHF Iterations <==

  => Iterations <=

             Iter  Converged  Remaining    Residual
  CGR           1          0          1   8.292E-02
  CGR           2          0          1   2.372E-02
  CGR           3          0          1   1.408E-02
  CGR           4          0          1   5.788E-03
  CGR           5          0          1   2.392E-03
  CGR           6          0          1   9.786E-04
  CGR           7          0          1   2.977E-04
  CGR           8          0          1   8.787E-05
  CGR           9          0          1   3.291E-05
  CGR          10          0          1   1.515E-05
  CGR          11          0          1   7.518E-06
  CGR          12          0          1   2.925E-06
  CGR          13          1          0   8.574E-07

    CGRSolver converged.

	-----------------------------------------------------------
	 ==================> DF-MP2 Energies <==================== 
	-----------------------------------------------------------
	 Reference Energy          =    -324.8800549613689554 [Eh]
	 Singles Energy            =      -0.0000000000000000 [Eh]
	 Same-Spin Energy          =      -0.3595371625506170 [Eh]
	 Opposite-Spin Energy      =      -1.1512093042950906 [Eh]
	 Correlation Energy        =      -1.5107464668457076 [Eh]
	 Total Energy              =    -326.3908014282146723 [Eh]
	-----------------------------------------------------------
	 ================> DF-SCS-MP2 Energies <================== 
	-----------------------------------------------------------
	 SCS Same-Spin Scale       =       0.3333333333333333 [-]
	 SCS Opposite-Spin Scale   =       1.2000000000000000 [-]
	 SCS Same-Spin Energy      =      -0.1198457208502057 [Eh]
	 SCS Opposite-Spin Energy  =      -1.3814511651541086 [Eh]
	 SCS Correlation Energy    =      -1.5012968860043143 [Eh]
	 SCS Total Energy          =    -326.3813518473732529 [Eh]
	-----------------------------------------------------------



Properties will be evaluated at   0.000000,  -0.000000,  -0.000000 [a0]

Properties computed using the MP2 density matrix

  Nuclear Dipole Moment: [e a0]
     X:    -3.3303      Y:     0.0430      Z:     0.7002

  Electronic Dipole Moment: [e a0]
     X:     3.5542      Y:    -0.0273      Z:    -0.2633

  Dipole Moment: [e a0]
     X:     0.2239      Y:     0.0157      Z:     0.4369     Total:     0.4912

  Dipole Moment: [D]
     X:     0.5690      Y:     0.0398      Z:     1.1106     Total:     1.2485


*** tstop() called on node37.bme.utexas.edu at Thu Nov  5 18:26:15 2020
Module time:
	user time   =     670.73 seconds =      11.18 minutes
	system time =      77.88 seconds =       1.30 minutes
	total time  =        141 seconds =       2.35 minutes
Total time:
	user time   =     936.32 seconds =      15.61 minutes
	system time =     139.77 seconds =       2.33 minutes
	total time  =        220 seconds =       3.67 minutes

    Psi4 stopped on: Thursday, 05 November 2020 06:26PM
    Psi4 wall time for execution: 0:03:40.83

*** Psi4 exiting successfully. Buy a developer a beer!
