087_DiethylSulfone Gaussian SP Calculation on node142.bme.utexas.edu    
Freq      RMP2-FC                                                     6-31G(d)            
Number of atoms                            I               17
Info1-9                                    I   N=           9
          28          27        1002           0           0         100
           6           2           1
Charge                                     I                0
Multiplicity                               I                1
Number of electrons                        I               66
Number of alpha electrons                  I               33
Number of beta electrons                   I               33
Number of basis functions                  I              129
Number of independent functions            I              129
Number of point charges in /Mol/           I                0
Number of translation vectors              I                0
Atomic numbers                             I   N=          17
          16           8           8           6           6           6
           6           1           1           1           1           1
           1           1           1           1           1
Nuclear charges                            R   N=          17
  1.60000000E+01  8.00000000E+00  8.00000000E+00  6.00000000E+00  6.00000000E+00
  6.00000000E+00  6.00000000E+00  1.00000000E+00  1.00000000E+00  1.00000000E+00
  1.00000000E+00  1.00000000E+00  1.00000000E+00  1.00000000E+00  1.00000000E+00
  1.00000000E+00  1.00000000E+00
Current cartesian coordinates              R   N=          51
  2.13213095E-06 -3.55480688E-01  2.29967911E-06  3.11260819E-05 -1.73748865E+00
  2.41833336E+00 -2.86020937E-05 -1.73756771E+00 -2.41828354E+00  2.67443430E+00
  1.73119222E+00 -6.41525192E-05 -2.67444133E+00  1.73119409E+00  1.72083618E-06
  5.10449772E+00  1.83495821E-01 -4.57206990E-05 -5.10449798E+00  1.83493298E-01
  5.76601157E-05  2.51942327E+00  2.91648308E+00 -1.68684641E+00  2.51944753E+00
  2.91656094E+00  1.68666571E+00 -2.51941718E+00  2.91655056E+00  1.68673662E+00
 -2.51945987E+00  2.91649555E+00 -1.68677578E+00  6.73358620E+00  1.45111879E+00
 -9.61329403E-05  5.19278109E+00 -1.01406032E+00  1.67709240E+00  5.19274890E+00
 -1.01414981E+00 -1.67712193E+00 -6.73359333E+00  1.45110842E+00  4.66255693E-05
 -5.19277983E+00 -1.01414367E+00 -1.67702320E+00 -5.19274732E+00 -1.01407417E+00
  1.67718968E+00
Force Field                                I                0
Int Atom Types                             I   N=          17
           0           0           0           0           0           0
           0           0           0           0           0           0
           0           0           0           0           0
MM charges                                 R   N=          17
  0.00000000E+00  0.00000000E+00  0.00000000E+00  0.00000000E+00  0.00000000E+00
  0.00000000E+00  0.00000000E+00  0.00000000E+00  0.00000000E+00  0.00000000E+00
  0.00000000E+00  0.00000000E+00  0.00000000E+00  0.00000000E+00  0.00000000E+00
  0.00000000E+00  0.00000000E+00
Integer atomic weights                     I   N=          17
          32          16          16          12          12          12
          12           1           1           1           1           1
           1           1           1           1           1
Real atomic weights                        R   N=          17
  3.19720718E+01  1.59949146E+01  1.59949146E+01  1.20000000E+01  1.20000000E+01
  1.20000000E+01  1.20000000E+01  1.00782504E+00  1.00782504E+00  1.00782504E+00
  1.00782504E+00  1.00782504E+00  1.00782504E+00  1.00782504E+00  1.00782504E+00
  1.00782504E+00  1.00782504E+00
Atom fragment info                         I   N=          17
           0           0           0           0           0           0
           0           0           0           0           0           0
           0           0           0           0           0
Atom residue num                           I   N=          17
           0           0           0           0           0           0
           0           0           0           0           0           0
           0           0           0           0           0
Nuclear spins                              I   N=          17
           0           0           0           0           0           0
           0           1           1           1           1           1
           1           1           1           1           1
Nuclear ZEff                               R   N=          17
 -1.36000000E+01 -5.60000000E+00 -5.60000000E+00 -3.60000000E+00 -3.60000000E+00
 -3.60000000E+00 -3.60000000E+00 -1.00000000E+00 -1.00000000E+00 -1.00000000E+00
 -1.00000000E+00 -1.00000000E+00 -1.00000000E+00 -1.00000000E+00 -1.00000000E+00
 -1.00000000E+00 -1.00000000E+00
Nuclear QMom                               R   N=          17
  0.00000000E+00  0.00000000E+00  0.00000000E+00  0.00000000E+00  0.00000000E+00
  0.00000000E+00  0.00000000E+00  0.00000000E+00  0.00000000E+00  0.00000000E+00
  0.00000000E+00  0.00000000E+00  0.00000000E+00  0.00000000E+00  0.00000000E+00
  0.00000000E+00  0.00000000E+00
Nuclear GFac                               R   N=          17
  0.00000000E+00  0.00000000E+00  0.00000000E+00  0.00000000E+00  0.00000000E+00
  0.00000000E+00  0.00000000E+00  2.79284600E+00  2.79284600E+00  2.79284600E+00
  2.79284600E+00  2.79284600E+00  2.79284600E+00  2.79284600E+00  2.79284600E+00
  2.79284600E+00  2.79284600E+00
MicOpt                                     I   N=          17
          -1          -1          -1          -1          -1          -1
          -1          -1          -1          -1          -1          -1
          -1          -1          -1          -1          -1
Number of contracted shells                I               49
Number of primitive shells                 I              123
Pure/Cartesian d shells                    I                1
Pure/Cartesian f shells                    I                0
Highest angular momentum                   I                2
Largest degree of contraction              I                6
Shell types                                I   N=          49
           0          -1          -1          -1           2           0
          -1          -1           2           0          -1          -1
           2           0          -1          -1           2           0
          -1          -1           2           0          -1          -1
           2           0          -1          -1           2           0
           0           0           0           0           0           0
           0           0           0           0           0           0
           0           0           0           0           0           0
           0
Number of primitives per shell             I   N=          49
           6           6           3           1           1           6
           3           1           1           6           3           1
           1           6           3           1           1           6
           3           1           1           6           3           1
           1           6           3           1           1           3
           1           3           1           3           1           3
           1           3           1           3           1           3
           1           3           1           3           1           3
           1
Shell to atom map                          I   N=          49
           1           1           1           1           1           2
           2           2           2           3           3           3
           3           4           4           4           4           5
           5           5           5           6           6           6
           6           7           7           7           7           8
           8           9           9          10          10          11
          11          12          12          13          13          14
          14          15          15          16          16          17
          17
Primitive exponents                        R   N=         123
  2.19171000E+04  3.30149000E+03  7.54146000E+02  2.12711000E+02  6.79896000E+01
  2.30515000E+01  4.23735000E+02  1.00710000E+02  3.21599000E+01  1.18079000E+01
  4.63110000E+00  1.87025000E+00  2.61584000E+00  9.22167000E-01  3.41287000E-01
  1.17167000E-01  6.50000000E-01  5.48467166E+03  8.25234946E+02  1.88046958E+02
  5.29645000E+01  1.68975704E+01  5.79963534E+00  1.55396162E+01  3.59993359E+00
  1.01376175E+00  2.70005823E-01  8.00000000E-01  5.48467166E+03  8.25234946E+02
  1.88046958E+02  5.29645000E+01  1.68975704E+01  5.79963534E+00  1.55396162E+01
  3.59993359E+00  1.01376175E+00  2.70005823E-01  8.00000000E-01  3.04752488E+03
  4.57369518E+02  1.03948685E+02  2.92101553E+01  9.28666296E+00  3.16392696E+00
  7.86827235E+00  1.88128854E+00  5.44249258E-01  1.68714478E-01  8.00000000E-01
  3.04752488E+03  4.57369518E+02  1.03948685E+02  2.92101553E+01  9.28666296E+00
  3.16392696E+00  7.86827235E+00  1.88128854E+00  5.44249258E-01  1.68714478E-01
  8.00000000E-01  3.04752488E+03  4.57369518E+02  1.03948685E+02  2.92101553E+01
  9.28666296E+00  3.16392696E+00  7.86827235E+00  1.88128854E+00  5.44249258E-01
  1.68714478E-01  8.00000000E-01  3.04752488E+03  4.57369518E+02  1.03948685E+02
  2.92101553E+01  9.28666296E+00  3.16392696E+00  7.86827235E+00  1.88128854E+00
  5.44249258E-01  1.68714478E-01  8.00000000E-01  1.87311370E+01  2.82539436E+00
  6.40121692E-01  1.61277759E-01  1.87311370E+01  2.82539436E+00  6.40121692E-01
  1.61277759E-01  1.87311370E+01  2.82539436E+00  6.40121692E-01  1.61277759E-01
  1.87311370E+01  2.82539436E+00  6.40121692E-01  1.61277759E-01  1.87311370E+01
  2.82539436E+00  6.40121692E-01  1.61277759E-01  1.87311370E+01  2.82539436E+00
  6.40121692E-01  1.61277759E-01  1.87311370E+01  2.82539436E+00  6.40121692E-01
  1.61277759E-01  1.87311370E+01  2.82539436E+00  6.40121692E-01  1.61277759E-01
  1.87311370E+01  2.82539436E+00  6.40121692E-01  1.61277759E-01  1.87311370E+01
  2.82539436E+00  6.40121692E-01  1.61277759E-01
Contraction coefficients                   R   N=         123
  1.86924085E-03  1.42303065E-02  6.96962317E-02  2.38487108E-01  4.83307220E-01
  3.38074154E-01 -2.37677050E-03 -3.16930067E-02 -1.13317024E-01  5.60900118E-02
  5.92255124E-01  4.55006095E-01 -2.50373114E-01  6.69567631E-02  1.05450627E+00
  1.00000000E+00  1.00000000E+00  1.83107443E-03  1.39501722E-02  6.84450781E-02
  2.32714336E-01  4.70192898E-01  3.58520853E-01 -1.10777550E-01 -1.48026263E-01
  1.13076702E+00  1.00000000E+00  1.00000000E+00  1.83107443E-03  1.39501722E-02
  6.84450781E-02  2.32714336E-01  4.70192898E-01  3.58520853E-01 -1.10777550E-01
 -1.48026263E-01  1.13076702E+00  1.00000000E+00  1.00000000E+00  1.83473713E-03
  1.40373228E-02  6.88426223E-02  2.32184443E-01  4.67941348E-01  3.62311985E-01
 -1.19332420E-01 -1.60854152E-01  1.14345644E+00  1.00000000E+00  1.00000000E+00
  1.83473713E-03  1.40373228E-02  6.88426223E-02  2.32184443E-01  4.67941348E-01
  3.62311985E-01 -1.19332420E-01 -1.60854152E-01  1.14345644E+00  1.00000000E+00
  1.00000000E+00  1.83473713E-03  1.40373228E-02  6.88426223E-02  2.32184443E-01
  4.67941348E-01  3.62311985E-01 -1.19332420E-01 -1.60854152E-01  1.14345644E+00
  1.00000000E+00  1.00000000E+00  1.83473713E-03  1.40373228E-02  6.88426223E-02
  2.32184443E-01  4.67941348E-01  3.62311985E-01 -1.19332420E-01 -1.60854152E-01
  1.14345644E+00  1.00000000E+00  1.00000000E+00  3.34946043E-02  2.34726953E-01
  8.13757326E-01  1.00000000E+00  3.34946043E-02  2.34726953E-01  8.13757326E-01
  1.00000000E+00  3.34946043E-02  2.34726953E-01  8.13757326E-01  1.00000000E+00
  3.34946043E-02  2.34726953E-01  8.13757326E-01  1.00000000E+00  3.34946043E-02
  2.34726953E-01  8.13757326E-01  1.00000000E+00  3.34946043E-02  2.34726953E-01
  8.13757326E-01  1.00000000E+00  3.34946043E-02  2.34726953E-01  8.13757326E-01
  1.00000000E+00  3.34946043E-02  2.34726953E-01  8.13757326E-01  1.00000000E+00
  3.34946043E-02  2.34726953E-01  8.13757326E-01  1.00000000E+00  3.34946043E-02
  2.34726953E-01  8.13757326E-01  1.00000000E+00
P(S=P) Contraction coefficients            R   N=         123
  0.00000000E+00  0.00000000E+00  0.00000000E+00  0.00000000E+00  0.00000000E+00
  0.00000000E+00  4.06100998E-03  3.06812999E-02  1.30451999E-01  3.27204999E-01
  4.52850998E-01  2.56041999E-01 -1.45104895E-02  3.10262776E-01  7.54482456E-01
  1.00000000E+00  0.00000000E+00  0.00000000E+00  0.00000000E+00  0.00000000E+00
  0.00000000E+00  0.00000000E+00  0.00000000E+00  7.08742682E-02  3.39752839E-01
  7.27158577E-01  1.00000000E+00  0.00000000E+00  0.00000000E+00  0.00000000E+00
  0.00000000E+00  0.00000000E+00  0.00000000E+00  0.00000000E+00  7.08742682E-02
  3.39752839E-01  7.27158577E-01  1.00000000E+00  0.00000000E+00  0.00000000E+00
  0.00000000E+00  0.00000000E+00  0.00000000E+00  0.00000000E+00  0.00000000E+00
  6.89990666E-02  3.16423961E-01  7.44308291E-01  1.00000000E+00  0.00000000E+00
  0.00000000E+00  0.00000000E+00  0.00000000E+00  0.00000000E+00  0.00000000E+00
  0.00000000E+00  6.89990666E-02  3.16423961E-01  7.44308291E-01  1.00000000E+00
  0.00000000E+00  0.00000000E+00  0.00000000E+00  0.00000000E+00  0.00000000E+00
  0.00000000E+00  0.00000000E+00  6.89990666E-02  3.16423961E-01  7.44308291E-01
  1.00000000E+00  0.00000000E+00  0.00000000E+00  0.00000000E+00  0.00000000E+00
  0.00000000E+00  0.00000000E+00  0.00000000E+00  6.89990666E-02  3.16423961E-01
  7.44308291E-01  1.00000000E+00  0.00000000E+00  0.00000000E+00  0.00000000E+00
  0.00000000E+00  0.00000000E+00  0.00000000E+00  0.00000000E+00  0.00000000E+00
  0.00000000E+00  0.00000000E+00  0.00000000E+00  0.00000000E+00  0.00000000E+00
  0.00000000E+00  0.00000000E+00  0.00000000E+00  0.00000000E+00  0.00000000E+00
  0.00000000E+00  0.00000000E+00  0.00000000E+00  0.00000000E+00  0.00000000E+00
  0.00000000E+00  0.00000000E+00  0.00000000E+00  0.00000000E+00  0.00000000E+00
  0.00000000E+00  0.00000000E+00  0.00000000E+00  0.00000000E+00  0.00000000E+00
  0.00000000E+00  0.00000000E+00  0.00000000E+00  0.00000000E+00  0.00000000E+00
  0.00000000E+00  0.00000000E+00  0.00000000E+00
Coordinates of each shell                  R   N=         147
  2.13213095E-06 -3.55480688E-01  2.29967911E-06  2.13213095E-06 -3.55480688E-01
  2.29967911E-06  2.13213095E-06 -3.55480688E-01  2.29967911E-06  2.13213095E-06
 -3.55480688E-01  2.29967911E-06  2.13213095E-06 -3.55480688E-01  2.29967911E-06
  3.11260819E-05 -1.73748865E+00  2.41833336E+00  3.11260819E-05 -1.73748865E+00
  2.41833336E+00  3.11260819E-05 -1.73748865E+00  2.41833336E+00  3.11260819E-05
 -1.73748865E+00  2.41833336E+00 -2.86020937E-05 -1.73756771E+00 -2.41828354E+00
 -2.86020937E-05 -1.73756771E+00 -2.41828354E+00 -2.86020937E-05 -1.73756771E+00
 -2.41828354E+00 -2.86020937E-05 -1.73756771E+00 -2.41828354E+00  2.67443430E+00
  1.73119222E+00 -6.41525192E-05  2.67443430E+00  1.73119222E+00 -6.41525192E-05
  2.67443430E+00  1.73119222E+00 -6.41525192E-05  2.67443430E+00  1.73119222E+00
 -6.41525192E-05 -2.67444133E+00  1.73119409E+00  1.72083618E-06 -2.67444133E+00
  1.73119409E+00  1.72083618E-06 -2.67444133E+00  1.73119409E+00  1.72083618E-06
 -2.67444133E+00  1.73119409E+00  1.72083618E-06  5.10449772E+00  1.83495821E-01
 -4.57206990E-05  5.10449772E+00  1.83495821E-01 -4.57206990E-05  5.10449772E+00
  1.83495821E-01 -4.57206990E-05  5.10449772E+00  1.83495821E-01 -4.57206990E-05
 -5.10449798E+00  1.83493298E-01  5.76601157E-05 -5.10449798E+00  1.83493298E-01
  5.76601157E-05 -5.10449798E+00  1.83493298E-01  5.76601157E-05 -5.10449798E+00
  1.83493298E-01  5.76601157E-05  2.51942327E+00  2.91648308E+00 -1.68684641E+00
  2.51942327E+00  2.91648308E+00 -1.68684641E+00  2.51944753E+00  2.91656094E+00
  1.68666571E+00  2.51944753E+00  2.91656094E+00  1.68666571E+00 -2.51941718E+00
  2.91655056E+00  1.68673662E+00 -2.51941718E+00  2.91655056E+00  1.68673662E+00
 -2.51945987E+00  2.91649555E+00 -1.68677578E+00 -2.51945987E+00  2.91649555E+00
 -1.68677578E+00  6.73358620E+00  1.45111879E+00 -9.61329403E-05  6.73358620E+00
  1.45111879E+00 -9.61329403E-05  5.19278109E+00 -1.01406032E+00  1.67709240E+00
  5.19278109E+00 -1.01406032E+00  1.67709240E+00  5.19274890E+00 -1.01414981E+00
 -1.67712193E+00  5.19274890E+00 -1.01414981E+00 -1.67712193E+00 -6.73359333E+00
  1.45110842E+00  4.66255693E-05 -6.73359333E+00  1.45110842E+00  4.66255693E-05
 -5.19277983E+00 -1.01414367E+00 -1.67702320E+00 -5.19277983E+00 -1.01414367E+00
 -1.67702320E+00 -5.19274732E+00 -1.01407417E+00  1.67718968E+00 -5.19274732E+00
 -1.01407417E+00  1.67718968E+00
Constraint Structure                       R   N=          51
  2.13213095E-06 -3.55480688E-01  2.29967911E-06  3.11260819E-05 -1.73748865E+00
  2.41833336E+00 -2.86020937E-05 -1.73756771E+00 -2.41828354E+00  2.67443430E+00
  1.73119222E+00 -6.41525192E-05 -2.67444133E+00  1.73119409E+00  1.72083618E-06
  5.10449772E+00  1.83495821E-01 -4.57206990E-05 -5.10449798E+00  1.83493298E-01
  5.76601157E-05  2.51942327E+00  2.91648308E+00 -1.68684641E+00  2.51944753E+00
  2.91656094E+00  1.68666571E+00 -2.51941718E+00  2.91655056E+00  1.68673662E+00
 -2.51945987E+00  2.91649555E+00 -1.68677578E+00  6.73358620E+00  1.45111879E+00
 -9.61329403E-05  5.19278109E+00 -1.01406032E+00  1.67709240E+00  5.19274890E+00
 -1.01414981E+00 -1.67712193E+00 -6.73359333E+00  1.45110842E+00  4.66255693E-05
 -5.19277983E+00 -1.01414367E+00 -1.67702320E+00 -5.19274732E+00 -1.01407417E+00
  1.67718968E+00
Num ILSW                                   I              100
ILSW                                       I   N=         100
           0           1           0           0           2           0
           0           0           0           0           0          -1
           0           0           0           0           0           0
           0           0           0           0           1           0
           1           0           0           0           0           0
           0           0      100000           0          -1           0
           0           0           0           0           0           0
           0           0           0           1           1           0
           0           0           1           0           0           0
           0           0           4          40           0           0
           0           0           0           0           0           0
           0           0           0           0           0           0
           0           0           0           0           0           0
           0           0           0           0           0           0
           0           0           0           0           0           0
           0           0           0           0           0           0
           0           0           0           0
Num RLSW                                   I               40
RLSW                                       R   N=          40
  1.00000000E+00  1.00000000E+00  1.00000000E+00  1.00000000E+00  1.00000000E+00
  0.00000000E+00  0.00000000E+00  1.00000000E+00  0.00000000E+00  0.00000000E+00
  0.00000000E+00  0.00000000E+00  1.00000000E+00  0.00000000E+00  0.00000000E+00
  0.00000000E+00  0.00000000E+00  1.00000000E+00  0.00000000E+00  0.00000000E+00
  0.00000000E+00  0.00000000E+00  1.00000000E+00  0.00000000E+00  0.00000000E+00
  0.00000000E+00  0.00000000E+00  1.00000000E+00  0.00000000E+00  0.00000000E+00
  0.00000000E+00  0.00000000E+00  0.00000000E+00  0.00000000E+00  0.00000000E+00
  0.00000000E+00  0.00000000E+00  0.00000000E+00  1.00000000E+00  1.00000000E+00
MxBond                                     I                4
NBond                                      I   N=          17
           4           1           1           4           4           4
           4           1           1           1           1           1
           1           1           1           1           1
IBond                                      I   N=          68
           2           3           4           5           1           0
           0           0           1           0           0           0
           1           6           8           9           1           7
          10          11           4          12          13          14
           5          15          16          17           4           0
           0           0           4           0           0           0
           5           0           0           0           5           0
           0           0           6           0           0           0
           6           0           0           0           6           0
           0           0           7           0           0           0
           7           0           0           0           7           0
           0           0
RBond                                      R   N=          68
  2.00000000E+00  2.00000000E+00  1.00000000E+00  1.00000000E+00  2.00000000E+00
  0.00000000E+00  0.00000000E+00  0.00000000E+00  2.00000000E+00  0.00000000E+00
  0.00000000E+00  0.00000000E+00  1.00000000E+00  1.00000000E+00  1.00000000E+00
  1.00000000E+00  1.00000000E+00  1.00000000E+00  1.00000000E+00  1.00000000E+00
  1.00000000E+00  1.00000000E+00  1.00000000E+00  1.00000000E+00  1.00000000E+00
  1.00000000E+00  1.00000000E+00  1.00000000E+00  1.00000000E+00  0.00000000E+00
  0.00000000E+00  0.00000000E+00  1.00000000E+00  0.00000000E+00  0.00000000E+00
  0.00000000E+00  1.00000000E+00  0.00000000E+00  0.00000000E+00  0.00000000E+00
  1.00000000E+00  0.00000000E+00  0.00000000E+00  0.00000000E+00  1.00000000E+00
  0.00000000E+00  0.00000000E+00  0.00000000E+00  1.00000000E+00  0.00000000E+00
  0.00000000E+00  0.00000000E+00  1.00000000E+00  0.00000000E+00  0.00000000E+00
  0.00000000E+00  1.00000000E+00  0.00000000E+00  0.00000000E+00  0.00000000E+00
  1.00000000E+00  0.00000000E+00  0.00000000E+00  0.00000000E+00  1.00000000E+00
  0.00000000E+00  0.00000000E+00  0.00000000E+00
Virial Ratio                               R      2.001625350371559E+00
SCF Energy                                 R     -7.044610295216703E+02
MP2 Energy                                 R     -7.054909607095316E+02
Total Energy                               R     -7.054909607095316E+02
Post-SCF wavefunction norm                 R      1.633328121309137E+00
RMS Force                                  R      4.495672913114331E-07
RMS Density                                R      2.363100818239899E-09
External E-field                           R   N=          35
  0.00000000E+00  0.00000000E+00  0.00000000E+00  0.00000000E+00  0.00000000E+00
  0.00000000E+00  0.00000000E+00  0.00000000E+00  0.00000000E+00  0.00000000E+00
  0.00000000E+00  0.00000000E+00  0.00000000E+00  0.00000000E+00  0.00000000E+00
  0.00000000E+00  0.00000000E+00  0.00000000E+00  0.00000000E+00  0.00000000E+00
  0.00000000E+00  0.00000000E+00  0.00000000E+00  0.00000000E+00  0.00000000E+00
  0.00000000E+00  0.00000000E+00  0.00000000E+00  0.00000000E+00  0.00000000E+00
  0.00000000E+00  0.00000000E+00  0.00000000E+00  0.00000000E+00  0.00000000E+00
IOpCl                                      I                0
IROHF                                      I                0
Alpha Orbital Energies                     R   N=         129
 -9.21763307E+01 -2.05452088E+01 -2.05451902E+01 -1.12811256E+01 -1.12811097E+01
 -1.12408709E+01 -1.12408690E+01 -9.15393076E+00 -6.83924184E+00 -6.83880219E+00
 -6.83859872E+00 -1.43131361E+00 -1.31922784E+00 -1.09750478E+00 -1.06977799E+00
 -9.45086891E-01 -8.73580993E-01 -7.94454666E-01 -7.00044118E-01 -6.74699107E-01
 -6.48892956E-01 -6.46413871E-01 -6.05053790E-01 -5.92343358E-01 -5.53699020E-01
 -5.49745666E-01 -5.39178662E-01 -5.31477775E-01 -5.23950944E-01 -4.80533388E-01
 -4.72313945E-01 -4.51823787E-01 -4.24031117E-01  1.92640773E-01  2.37088678E-01
  2.38466380E-01  2.40696693E-01  2.61158743E-01  2.73858498E-01  2.87698842E-01
  2.97897693E-01  3.14770803E-01  3.14941176E-01  3.22068470E-01  3.23544764E-01
  3.34862799E-01  3.59429883E-01  3.63057556E-01  4.08636409E-01  5.77248310E-01
  5.98248717E-01  6.31392145E-01  6.66584633E-01  6.88298420E-01  7.06233492E-01
  7.45494658E-01  7.55455440E-01  7.85268560E-01  8.02184589E-01  8.29029384E-01
  8.30146623E-01  9.14775782E-01  9.75810684E-01  9.97113097E-01  1.04574486E+00
  1.05404497E+00  1.06206301E+00  1.07899005E+00  1.08700468E+00  1.12299384E+00
  1.13537572E+00  1.14307459E+00  1.14908588E+00  1.15268382E+00  1.16636801E+00
  1.21388626E+00  1.22162205E+00  1.22826409E+00  1.25056780E+00  1.25275187E+00
  1.34020455E+00  1.35393701E+00  1.37215486E+00  1.39058378E+00  1.45224747E+00
  1.51134958E+00  1.55160556E+00  1.55988021E+00  1.68256909E+00  1.72736721E+00
  1.75144082E+00  1.76026613E+00  1.80996944E+00  1.90677995E+00  1.95825661E+00
  1.96683463E+00  2.10964845E+00  2.12482471E+00  2.15109767E+00  2.17377970E+00
  2.20453015E+00  2.23506798E+00  2.23872333E+00  2.24421987E+00  2.28208667E+00
  2.31295267E+00  2.35433406E+00  2.42571949E+00  2.44740253E+00  2.50420302E+00
  2.57401674E+00  2.58779219E+00  2.62891355E+00  2.63234954E+00  2.64126305E+00
  2.64567490E+00  2.65331884E+00  2.65838703E+00  2.92094464E+00  2.95529259E+00
  3.13024785E+00  3.18639640E+00  4.29080185E+00  4.32827013E+00  4.43382402E+00
  4.57366958E+00  4.58802236E+00  4.78781299E+00  4.82246751E+00
Alpha MO coefficients                      R   N=       16641
  9.96265436E-01  1.42156495E-02  2.94609168E-11  3.61291959E-07 -1.41304386E-11
 -2.00287584E-02  2.26951075E-10 -6.98821670E-05  1.13353956E-09  2.39741018E-03
 -5.35885300E-10  2.12559880E-04 -3.66381545E-09  6.88887156E-03  6.90991274E-03
  6.95771544E-03  3.61375010E-10  9.55020454E-10  8.90737896E-10  2.64030885E-05
  6.42310432E-05  8.37459563E-10 -3.04236541E-05  7.61275272E-05 -4.68997224E-06
 -1.95099194E-09  4.35724180E-05 -1.83549511E-04  8.23991302E-05  2.27694104E-05
 -5.81337850E-05  1.16375537E-09 -1.96613421E-09  9.89905207E-05  2.64031246E-05
  6.42311522E-05 -8.90041088E-10 -3.04261361E-05 -7.61265469E-05 -4.69055359E-06
  2.14028978E-09  4.35783491E-05  1.83548083E-04  8.23992034E-05  2.27639519E-05
 -5.81280442E-05 -1.31738585E-09 -2.06076261E-09 -9.89935951E-05 -1.45287940E-05
  5.84005558E-06 -7.66948314E-05 -5.41240881E-05  1.96193132E-09  4.60957541E-04
  1.05982392E-04 -4.11756039E-05 -1.08942351E-09 -4.74454066E-05 -3.12274327E-05
 -3.79323586E-05 -3.15496611E-05  8.16812295E-10  3.29920393E-11 -1.45290609E-05
  5.83779231E-06  7.66951674E-05 -5.41244575E-05 -8.50161299E-11  4.60954769E-04
 -1.05981337E-04 -4.11753340E-05  2.05970653E-09 -4.74432079E-05 -3.12258799E-05
 -3.79324314E-05  3.15474646E-05 -3.66409283E-10 -5.05558971E-10 -4.36823426E-06
  1.30226066E-05  3.23100269E-05  1.25969717E-06 -2.80291467E-10 -9.70186608E-05
  1.37304557E-04 -1.05670462E-04  1.66269101E-09 -3.64799961E-05 -1.82181208E-05
 -2.22893352E-05  1.02897890E-05 -1.53341476E-10 -3.64554305E-11 -4.36823489E-06
  1.30226720E-05 -3.23097492E-05  1.25973102E-06  3.17037864E-10 -9.70174102E-05
 -1.37304446E-04 -1.05670080E-04  3.45476996E-09 -3.64799735E-05 -1.82181426E-05
 -2.22892782E-05 -1.02896123E-05  3.62235796E-10  1.68434619E-10 -3.68817424E-05
 -1.76986308E-04 -3.68817807E-05 -1.76984408E-04 -3.68814444E-05 -1.76984595E-04
 -3.68813200E-05 -1.76984912E-04 -6.82117117E-06  1.01399494E-05  1.44819155E-05
 -1.12851083E-04  1.44816166E-05 -1.12851215E-04 -6.82121260E-06  1.01392292E-05
  1.44815901E-05 -1.12851234E-04  1.44819153E-05 -1.12850868E-04  6.71566326E-09
 -3.10667520E-08  3.38244596E-10  7.37230566E-09  2.99460091E-05  2.45242653E-07
 -5.39093410E-09 -9.37852690E-08 -4.51817306E-04  5.64188416E-08  6.33180247E-09
  1.17288368E-07  5.48353548E-04 -6.02014133E-08 -5.69961938E-08 -5.07481020E-08
  1.82199177E-10 -3.41618851E-11  1.78925936E-05 -7.03151985E-01 -1.47623821E-02
  9.80273950E-09 -4.87477191E-04  8.49457265E-04 -3.01374438E-03 -3.29209129E-09
  1.41512915E-04 -2.94203659E-04  2.79263084E-03  2.82865729E-03  2.85720336E-03
 -6.30718440E-10  7.95197966E-10 -5.68345614E-05  7.03547800E-01  1.47707398E-02
  1.12014885E-08  4.87795866E-04  8.49908464E-04  3.01521614E-03 -3.95795296E-09
 -1.41658210E-04 -2.94391628E-04 -2.79417079E-03 -2.83021281E-03 -2.85880829E-03
 -7.51491257E-10 -1.06347500E-09 -5.68574094E-05  1.36218668E-09  1.24592772E-08
  4.26221193E-09  4.20204986E-09  2.35585562E-05 -4.05315557E-08  3.99241801E-08
  2.20557951E-08 -1.06663827E-04 -3.74894087E-09 -6.03895861E-09 -1.97346644E-09
 -6.42171665E-09 -5.96377775E-06 -1.47448493E-05  1.33375541E-09  1.22904539E-08
 -3.57007769E-09  4.32837887E-09  2.35581984E-05 -3.93700383E-08 -4.41452309E-08
  2.09685481E-08 -1.06662575E-04 -3.39861519E-09 -6.00105961E-09 -2.38512227E-09
  6.23629575E-09  5.96353347E-06 -1.47445143E-05 -3.20354698E-10 -2.72148885E-09
 -3.58430623E-09  6.07487976E-10  9.53462348E-07  1.95716350E-08  9.70732522E-09
 -1.52207675E-08  9.05212363E-06  1.37297413E-10 -1.55887598E-09  5.28724150E-10
  2.08800221E-09 -1.32410896E-06  1.09097728E-07 -2.75568614E-10 -2.49938795E-09
  3.63963856E-09  5.37395084E-10  9.53487800E-07  1.80797505E-08 -1.11219957E-08
 -1.61512632E-08  9.05168150E-06  8.76366368E-11 -1.51466483E-09  5.51368793E-10
 -2.21614958E-09  1.32404552E-06  1.09087069E-07 -1.53216344E-05  3.01205643E-06
  1.53302629E-05 -3.04471512E-06  1.53300766E-05 -3.04466124E-06 -1.53214527E-05
  3.01294529E-06 -1.45384823E-09 -4.17623859E-09 -1.76604941E-05  3.11170637E-05
  1.76665426E-05 -3.11525049E-05 -1.44920059E-09 -4.42112117E-09  1.76668224E-05
 -3.11536549E-05 -1.76602616E-05  3.11166186E-05  2.38640322E-05 -1.10320116E-04
 -2.94407434E-11  2.44992585E-05 -8.83917180E-09  8.71716597E-04  5.53361543E-11