
    -----------------------------------------------------------------------
          Psi4: An Open-Source Ab Initio Electronic Structure Package
                               Psi4 1.3.2 release

                         Git: Rev {HEAD} ecbda83 


    R. M. Parrish, L. A. Burns, D. G. A. Smith, A. C. Simmonett,
    A. E. DePrince III, E. G. Hohenstein, U. Bozkaya, A. Yu. Sokolov,
    R. Di Remigio, R. M. Richard, J. F. Gonthier, A. M. James,
    H. R. McAlexander, A. Kumar, M. Saitow, X. Wang, B. P. Pritchard,
    P. Verma, H. F. Schaefer III, K. Patkowski, R. A. King, E. F. Valeev,
    F. A. Evangelista, J. M. Turney, T. D. Crawford, and C. D. Sherrill,
    J. Chem. Theory Comput. 13(7) pp 3185--3197 (2017).
    (doi: 10.1021/acs.jctc.7b00174)


                         Additional Contributions by
    P. Kraus, H. Kruse, M. H. Lechner, M. C. Schieber, R. A. Shaw,
    A. Alenaizan, R. Galvelis, Z. L. Glick, S. Lehtola, and J. P. Misiewicz

    -----------------------------------------------------------------------


    Psi4 started on: Wednesday, 03 February 2021 11:00AM

    Process ID: 2320142
    Host:       node57.bme.utexas.edu
    PSIDATADIR: /home/xy3866/psi4conda/share/psi4
    Memory:     500.0 MiB
    Threads:    8
    
  ==> Input File <==

--------------------------------------------------------------------------
#psi4
#
memory 32 gb

molecule  {
0 1
  S        0.7637890    -0.7221230    -0.3122950
  O        0.7428910    -1.8740890     0.5977740
  O        1.1390870    -0.8496890    -1.7151490
  N        1.6780164     0.3701759     0.3219321
  N       -1.8489830    -0.7837230     0.4594430
  N       -1.3270270     1.0745880    -0.6709160
  C       -0.8811970    -0.0860610    -0.1982810
  C        1.4606880     0.7318840     1.7727460
  C        1.9603790     1.6404280    -0.4583390
  C       -2.9965950    -0.0375860     0.3980590
  C       -2.6480900     1.1053220    -0.2992680
  H        1.3484140    -0.2039780     2.3191610
  H        0.5624770     1.3529910     1.8963580
  H        2.3234150     1.2701900     2.1711160
  H        2.1708410     1.3362470    -1.4821670
  H        2.8360500     2.1503740    -0.0502520
  H        1.0944390     2.3121220    -0.4419640
  H       -1.7008040    -1.6902470     0.8932800
  H       -3.9262080    -0.3702980     0.8362390
  H       -3.2806590     1.9452040    -0.5535070
units angstrom
no_reorient  #important for SAPT in psi4, default
symmetry c1  #important for SAPT in psi4, default
}

set PROPERTIES_ORIGIN ["COM"]
properties('MP2/aug-cc-pvtz', properties = ['dipole'])
--------------------------------------------------------------------------

  Memory set to  29.802 GiB by Python driver.
    SCF Algorithm Type (re)set to DF.

*** tstart() called on node57.bme.utexas.edu
*** at Wed Feb  3 11:00:50 2021

   => Loading Basis Set <=

    Name: AUG-CC-PVTZ
    Role: ORBITAL
    Keyword: BASIS
    atoms 1     entry S          line   902 file /home/xy3866/psi4conda/share/psi4/basis/aug-cc-pvtz.gbs 
    atoms 2-3   entry O          line   327 file /home/xy3866/psi4conda/share/psi4/basis/aug-cc-pvtz.gbs 
    atoms 4-6   entry N          line   281 file /home/xy3866/psi4conda/share/psi4/basis/aug-cc-pvtz.gbs 
    atoms 7-11  entry C          line   235 file /home/xy3866/psi4conda/share/psi4/basis/aug-cc-pvtz.gbs 
    atoms 12-20 entry H          line    36 file /home/xy3866/psi4conda/share/psi4/basis/aug-cc-pvtz.gbs 


         ---------------------------------------------------------
                                   SCF
               by Justin Turney, Rob Parrish, Andy Simmonett
                          and Daniel G. A. Smith
                              RHF Reference
                        8 Threads,  30517 MiB Core
         ---------------------------------------------------------

  ==> Geometry <==

    Molecular point group: c1
    Full point group: C1

    Geometry (in Angstrom), charge = 0, multiplicity = 1:

       Center              X                  Y                   Z               Mass       
    ------------   -----------------  -----------------  -----------------  -----------------
         S            0.776775417798    -0.670798569689    -0.277450287574    31.972071174400
         O            0.755877417798    -1.822764569689     0.632618712426    15.994914619570
         O            1.152073417798    -0.798364569689    -1.680304287574    15.994914619570
         N            1.691002817798     0.421500330311     0.356776812426    14.003074004430
         N           -1.835996582202    -0.732398569689     0.494287712426    14.003074004430
         N           -1.314040582202     1.125912430311    -0.636071287574    14.003074004430
         C           -0.868210582202    -0.034736569689    -0.163436287574    12.000000000000
         C            1.473674417798     0.783208430311     1.807590712426    12.000000000000
         C            1.973365417798     1.691752430311    -0.423494287574    12.000000000000
         C           -2.983608582202     0.013738430311     0.432903712426    12.000000000000
         C           -2.635103582202     1.156646430311    -0.264423287574    12.000000000000
         H            1.361400417798    -0.152653569689     2.354005712426     1.007825032230
         H            0.575463417798     1.404315430311     1.931202712426     1.007825032230
         H            2.336401417798     1.321514430311     2.205960712426     1.007825032230
         H            2.183827417798     1.387571430311    -1.447322287574     1.007825032230
         H            2.849036417798     2.201698430311    -0.015407287574     1.007825032230
         H            1.107425417798     2.363446430311    -0.407119287574     1.007825032230
         H           -1.687817582202    -1.638922569689     0.928124712426     1.007825032230
         H           -3.913221582202    -0.318973569689     0.871083712426     1.007825032230
         H           -3.267672582202     1.996528430311    -0.518662287574     1.007825032230

  Running in c1 symmetry.

  Rotational constants: A =      0.05375  B =      0.02750  C =      0.02515 [cm^-1]
  Rotational constants: A =   1611.47682  B =    824.57703  C =    753.84483 [MHz]
  Nuclear repulsion =  800.116705564787480

  Charge       = 0
  Multiplicity = 1
  Electrons    = 92
  Nalpha       = 46
  Nbeta        = 46

  ==> Algorithm <==

  SCF Algorithm Type is DF.
  DIIS enabled.
  MOM disabled.
  Fractional occupation disabled.
  Guess Type is SAD.
  Energy threshold   = 1.00e-10
  Density threshold  = 1.00e-10
  Integral threshold = 0.00e+00

  ==> Primary Basis <==

  Basis Set: AUG-CC-PVTZ
    Blend: AUG-CC-PVTZ
    Number of shells: 237
    Number of basis function: 717
    Number of Cartesian functions: 834
    Spherical Harmonics?: true
    Max angular momentum: 3

   => Loading Basis Set <=

    Name: (AUG-CC-PVTZ AUX)
    Role: JKFIT
    Keyword: DF_BASIS_SCF
    atoms 1     entry S          line   730 file /home/xy3866/psi4conda/share/psi4/basis/aug-cc-pvtz-jkfit.gbs 
    atoms 2-3   entry O          line   286 file /home/xy3866/psi4conda/share/psi4/basis/aug-cc-pvtz-jkfit.gbs 
    atoms 4-6   entry N          line   224 file /home/xy3866/psi4conda/share/psi4/basis/aug-cc-pvtz-jkfit.gbs 
    atoms 7-11  entry C          line   162 file /home/xy3866/psi4conda/share/psi4/basis/aug-cc-pvtz-jkfit.gbs 
    atoms 12-20 entry H          line    70 file /home/xy3866/psi4conda/share/psi4/basis/aug-cc-pvtz-jkfit.gbs 

  ==> Pre-Iterations <==

   -------------------------------------------------------
    Irrep   Nso     Nmo     Nalpha   Nbeta   Ndocc  Nsocc
   -------------------------------------------------------
     A        717     717       0       0       0       0
   -------------------------------------------------------
    Total     717     717      46      46      46       0
   -------------------------------------------------------

  ==> Integral Setup <==

  DFHelper Memory: AOs need 5.954 GiB; user supplied 22.352 GiB. Using in-core AOs.

  ==> MemDFJK: Density-Fitted J/K Matrices <==

    J tasked:                   Yes
    K tasked:                   Yes
    wK tasked:                   No
    OpenMP threads:               8
    Memory [MiB]:             22888
    Algorithm:                 Disk
    Schwarz Cutoff:           1E-12
    Mask sparsity (%):       5.3446
    Fitting Condition:        1E-10

   => Auxiliary Basis Set <=

  Basis Set: (AUG-CC-PVTZ AUX)
    Blend: AUG-CC-PVTZ-JKFIT
    Number of shells: 468
    Number of basis function: 1600
    Number of Cartesian functions: 1985
    Spherical Harmonics?: true
    Max angular momentum: 4

  Minimum eigenvalue in the overlap matrix is 3.1525537253E-06.
  Using Symmetric Orthogonalization.

  SCF Guess: Superposition of Atomic Densities via on-the-fly atomic UHF.

  ==> Iterations <==

                           Total Energy        Delta E     RMS |[F,P]|

   @DF-RHF iter SAD:  -905.51085261023877   -9.05511e+02   0.00000e+00 
   @DF-RHF iter   1:  -904.92140408177636    5.89449e-01   1.25638e-03 DIIS
   @DF-RHF iter   2:  -905.15022080421511   -2.28817e-01   8.81418e-04 DIIS
   @DF-RHF iter   3:  -905.29323841569897   -1.43018e-01   1.44352e-04 DIIS
   @DF-RHF iter   4:  -905.29889793688812   -5.65952e-03   5.33150e-05 DIIS
   @DF-RHF iter   5:  -905.29971999251745   -8.22056e-04   1.03916e-05 DIIS
   @DF-RHF iter   6:  -905.29976504733645   -4.50548e-05   3.76498e-06 DIIS
   @DF-RHF iter   7:  -905.29977261256442   -7.56523e-06   1.51969e-06 DIIS
   @DF-RHF iter   8:  -905.29977425925472   -1.64669e-06   7.66207e-07 DIIS
   @DF-RHF iter   9:  -905.29977470462245   -4.45368e-07   3.32550e-07 DIIS
   @DF-RHF iter  10:  -905.29977481008916   -1.05467e-07   1.21672e-07 DIIS
   @DF-RHF iter  11:  -905.29977482449999   -1.44108e-08   5.15296e-08 DIIS
   @DF-RHF iter  12:  -905.29977482668710   -2.18711e-09   2.04250e-08 DIIS
   @DF-RHF iter  13:  -905.29977482708523   -3.98131e-10   8.04601e-09 DIIS
   @DF-RHF iter  14:  -905.29977482711490   -2.96723e-11   2.74208e-09 DIIS
   @DF-RHF iter  15:  -905.29977482712411   -9.20863e-12   1.29156e-09 DIIS
   @DF-RHF iter  16:  -905.29977482711865    5.45697e-12   5.49544e-10 DIIS
   @DF-RHF iter  17:  -905.29977482711661    2.04636e-12   2.28164e-10 DIIS
   @DF-RHF iter  18:  -905.29977482711922   -2.61480e-12   9.89756e-11 DIIS
  Energy and wave function converged.


  ==> Post-Iterations <==

    Orbital Energies [Eh]
    ---------------------

    Doubly Occupied:                                                      

       1A    -92.210136     2A    -20.551768     3A    -20.549073  
       4A    -15.651430     5A    -15.610970     6A    -15.583010  
       7A    -11.332702     8A    -11.289701     9A    -11.284426  
      10A    -11.275620    11A    -11.270809    12A     -9.175410  
      13A     -6.861033    14A     -6.860260    15A     -6.859852  
      16A     -1.466936    17A     -1.366697    18A     -1.340796  
      19A     -1.261637    20A     -1.195378    21A     -1.046426  
      22A     -0.978315    23A     -0.974660    24A     -0.880750  
      25A     -0.837627    26A     -0.815096    27A     -0.750598  
      28A     -0.706346    29A     -0.678282    30A     -0.671736  
      31A     -0.638778    32A     -0.629718    33A     -0.621520  
      34A     -0.613301    35A     -0.605194    36A     -0.585511  
      37A     -0.575354    38A     -0.531089    39A     -0.515728  
      40A     -0.502280    41A     -0.485510    42A     -0.475080  
      43A     -0.470553    44A     -0.431796    45A     -0.425450  
      46A     -0.342681  

    Virtual:                                                              

      47A      0.020560    48A      0.027878    49A      0.032973  
      50A      0.041771    51A      0.048086    52A      0.050493  
      53A      0.059475    54A      0.065492    55A      0.066878  
      56A      0.083350    57A      0.085292    58A      0.094599  
      59A      0.099511    60A      0.102954    61A      0.108800  
      62A      0.113090    63A      0.116409    64A      0.117775  
      65A      0.123488    66A      0.126850    67A      0.127888  
      68A      0.129794    69A      0.136137    70A      0.144127  
      71A      0.147464    72A      0.150855    73A      0.151656  
      74A      0.161766    75A      0.168316    76A      0.172023  
      77A      0.177774    78A      0.180092    79A      0.185263  
      80A      0.193327    81A      0.198401    82A      0.210840  
      83A      0.211706    84A      0.224046    85A      0.226003  
      86A      0.235279    87A      0.238585    88A      0.240074  
      89A      0.242028    90A      0.252228    91A      0.254273  
      92A      0.259570    93A      0.267093    94A      0.274406  
      95A      0.276951    96A      0.285804    97A      0.289470  
      98A      0.290480    99A      0.298732   100A      0.301525  
     101A      0.303527   102A      0.306687   103A      0.312551  
     104A      0.315315   105A      0.318943   106A      0.328077  
     107A      0.329130   108A      0.333311   109A      0.338023  
     110A      0.342693   111A      0.346083   112A      0.349095  
     113A      0.353502   114A      0.357301   115A      0.362031  
     116A      0.365185   117A      0.367659   118A      0.370093  
     119A      0.378436   120A      0.384116   121A      0.391341  
     122A      0.396106   123A      0.400502   124A      0.402943  
     125A      0.406917   126A      0.409599   127A      0.414791  
     128A      0.418988   129A      0.428317   130A      0.430631  
     131A      0.437348   132A      0.442499   133A      0.449649  
     134A      0.456996   135A      0.458609   136A      0.464210  
     137A      0.465817   138A      0.470459   139A      0.471293  
     140A      0.478098   141A      0.480534   142A      0.483119  
     143A      0.489190   144A      0.496435   145A      0.503269  
     146A      0.507510   147A      0.514460   148A      0.518573  
     149A      0.521137   150A      0.526603   151A      0.532124  
     152A      0.536413   153A      0.543846   154A      0.544992  
     155A      0.552030   156A      0.560876   157A      0.561799  
     158A      0.572660   159A      0.574851   160A      0.575726  
     161A      0.580110   162A      0.587462   163A      0.590326  
     164A      0.598750   165A      0.600408   166A      0.605978  
     167A      0.610630   168A      0.618466   169A      0.624607  
     170A      0.637622   171A      0.643985   172A      0.648391  
     173A      0.653288   174A      0.661601   175A      0.667315  
     176A      0.678692   177A      0.687791   178A      0.692615  
     179A      0.698640   180A      0.711647   181A      0.723243  
     182A      0.725742   183A      0.732835   184A      0.739656  
     185A      0.744569   186A      0.752324   187A      0.768852  
     188A      0.772191   189A      0.778818   190A      0.789016  
     191A      0.791387   192A      0.794489   193A      0.801517  
     194A      0.806869   195A      0.816251   196A      0.820973  
     197A      0.824287   198A      0.832533   199A      0.839476  
     200A      0.849135   201A      0.853073   202A      0.860065  
     203A      0.866464   204A      0.875341   205A      0.879691  
     206A      0.882844   207A      0.886694   208A      0.896971  
     209A      0.899009   210A      0.904326   211A      0.909345  
     212A      0.918837   213A      0.926315   214A      0.928463  
     215A      0.935919   216A      0.941151   217A      0.947722  
     218A      0.950949   219A      0.955493   220A      0.959556  
     221A      0.975943   222A      0.976138   223A      0.984976  
     224A      0.986774   225A      0.992195   226A      0.998344  
     227A      1.006459   228A      1.013422   229A      1.021712  
     230A      1.026525   231A      1.029847   232A      1.034777  
     233A      1.045212   234A      1.049018   235A      1.058809  
     236A      1.060419   237A      1.065907   238A      1.071228  
     239A      1.074444   240A      1.084461   241A      1.096683  
     242A      1.102319   243A      1.105105   244A      1.112561  
     245A      1.115990   246A      1.122732   247A      1.125239  
     248A      1.129023   249A      1.133502   250A      1.138010  
     251A      1.141234   252A      1.144411   253A      1.150010  
     254A      1.163635   255A      1.169248   256A      1.179005  
     257A      1.180684   258A      1.187773   259A      1.191085  
     260A      1.199741   261A      1.205973   262A      1.206867  
     263A      1.208765   264A      1.220104   265A      1.230590  
     266A      1.233684   267A      1.242337   268A      1.247380  
     269A      1.258428   270A      1.265153   271A      1.269392  
     272A      1.279190   273A      1.281979   274A      1.290977  
     275A      1.298959   276A      1.308901   277A      1.320718  
     278A      1.328815   279A      1.331906   280A      1.343126  
     281A      1.354827   282A      1.361322   283A      1.370997  
     284A      1.376510   285A      1.385629   286A      1.388439  
     287A      1.394925   288A      1.402052   289A      1.408317  
     290A      1.416767   291A      1.424293   292A      1.429086  
     293A      1.434241   294A      1.440697   295A      1.443746  
     296A      1.449890   297A      1.466600   298A      1.470911  
     299A      1.485884   300A      1.487158   301A      1.494399  
     302A      1.502780   303A      1.506298   304A      1.520894  
     305A      1.530785   306A      1.535703   307A      1.542095  
     308A      1.544256   309A      1.555475   310A      1.565677  
     311A      1.574188   312A      1.579229   313A      1.581880  
     314A      1.594642   315A      1.603431   316A      1.607184  
     317A      1.611016   318A      1.616714   319A      1.625931  
     320A      1.638062   321A      1.649782   322A      1.657187  
     323A      1.669460   324A      1.671031   325A      1.680408  
     326A      1.689215   327A      1.691450   328A      1.698218  
     329A      1.706599   330A      1.716146   331A      1.727906  
     332A      1.735947   333A      1.741560   334A      1.749795  
     335A      1.760769   336A      1.766596   337A      1.784406  
     338A      1.791395   339A      1.796074   340A      1.797700  
     341A      1.808859   342A      1.812776   343A      1.822231  
     344A      1.827148   345A      1.841381   346A      1.848342  
     347A      1.851887   348A      1.868447   349A      1.872267  
     350A      1.889176   351A      1.894309   352A      1.898552  
     353A      1.906490   354A      1.928970   355A      1.933787  
     356A      1.937732   357A      1.960895   358A      1.964102  
     359A      1.967692   360A      1.987306   361A      1.996151  
     362A      2.001351   363A      2.017919   364A      2.028429  
     365A      2.039639   366A      2.050810   367A      2.054934  
     368A      2.076027   369A      2.080665   370A      2.087033  
     371A      2.097365   372A      2.104305   373A      2.113744  
     374A      2.130822   375A      2.138914   376A      2.150297  
     377A      2.154656   378A      2.165327   379A      2.176945  
     380A      2.181831   381A      2.190814   382A      2.198985  
     383A      2.205409   384A      2.218347   385A      2.220868  
     386A      2.234391   387A      2.246794   388A      2.254531  
     389A      2.258214   390A      2.267323   391A      2.286708  
     392A      2.291060   393A      2.308741   394A      2.315252  
     395A      2.327590   396A      2.336930   397A      2.343187  
     398A      2.360465   399A      2.363318   400A      2.376406  
     401A      2.386014   402A      2.406691   403A      2.413276  
     404A      2.418072   405A      2.429706   406A      2.436201  
     407A      2.444595   408A      2.459870   409A      2.473099  
     410A      2.488481   411A      2.496418   412A      2.503673  
     413A      2.522904   414A      2.525496   415A      2.550889  
     416A      2.560414   417A      2.571170   418A      2.580087  
     419A      2.594179   420A      2.609991   421A      2.613180  
     422A      2.622614   423A      2.625815   424A      2.639306  
     425A      2.643819   426A      2.654330   427A      2.672262  
     428A      2.681815   429A      2.685877   430A      2.704521  
     431A      2.725898   432A      2.734078   433A      2.746939  
     434A      2.756555   435A      2.772935   436A      2.791270  
     437A      2.802356   438A      2.816460   439A      2.826612  
     440A      2.844775   441A      2.848710   442A      2.875336  
     443A      2.884141   444A      2.906529   445A      2.924465  
     446A      2.947051   447A      2.953874   448A      2.980816  
     449A      2.992508   450A      3.010410   451A      3.029332  
     452A      3.038238   453A      3.054398   454A      3.064564  
     455A      3.077702   456A      3.091781   457A      3.117708  
     458A      3.133690   459A      3.160608   460A      3.184229  
     461A      3.203464   462A      3.239030   463A      3.257240  
     464A      3.269902   465A      3.288547   466A      3.303255  
     467A      3.328876   468A      3.337607   469A      3.374474  
     470A      3.383712   471A      3.412741   472A      3.426185  
     473A      3.449721   474A      3.460138   475A      3.468765  
     476A      3.490704   477A      3.511447   478A      3.523087  
     479A      3.543846   480A      3.554901   481A      3.561821  
     482A      3.584459   483A      3.590098   484A      3.597107  
     485A      3.611235   486A      3.620744   487A      3.628936  
     488A      3.637807   489A      3.652495   490A      3.664625  
     491A      3.680842   492A      3.690167   493A      3.707117  
     494A      3.724451   495A      3.733144   496A      3.744390  
     497A      3.750061   498A      3.762249   499A      3.780055  
     500A      3.784932   501A      3.794873   502A      3.802492  
     503A      3.813452   504A      3.822117   505A      3.827784  
     506A      3.838610   507A      3.846273   508A      3.865432  
     509A      3.870509   510A      3.877633   511A      3.890341  
     512A      3.893459   513A      3.924072   514A      3.936271  
     515A      3.944915   516A      3.955973   517A      3.970489  
     518A      3.984424   519A      3.994761   520A      4.001082  
     521A      4.015873   522A      4.019873   523A      4.032506  
     524A      4.035700   525A      4.047483   526A      4.056076  
     527A      4.068875   528A      4.085145   529A      4.102501  
     530A      4.110841   531A      4.131213   532A      4.144229  
     533A      4.153665   534A      4.166820   535A      4.174671  
     536A      4.194251   537A      4.196503   538A      4.207122  
     539A      4.221852   540A      4.235224   541A      4.256078  
     542A      4.264568   543A      4.275359   544A      4.278737  
     545A      4.289619   546A      4.297258   547A      4.323056  
     548A      4.338741   549A      4.348974   550A      4.358054  
     551A      4.371846   552A      4.390490   553A      4.402252  
     554A      4.418515   555A      4.425175   556A      4.443478  
     557A      4.467821   558A      4.475044   559A      4.476508  
     560A      4.510784   561A      4.519603   562A      4.536571  
     563A      4.552919   564A      4.553711   565A      4.571537  
     566A      4.581761   567A      4.608334   568A      4.612860  
     569A      4.636919   570A      4.657355   571A      4.660107  
     572A      4.693751   573A      4.705106   574A      4.720713  
     575A      4.774400   576A      4.796088   577A      4.802397  
     578A      4.816479   579A      4.846501   580A      4.855545  
     581A      4.864380   582A      4.884076   583A      4.925826  
     584A      4.933502   585A      4.937482   586A      4.952492  
     587A      4.957353   588A      4.977568   589A      4.985615  
     590A      5.004771   591A      5.035368   592A      5.046615  
     593A      5.051455   594A      5.060586   595A      5.078164  
     596A      5.084847   597A      5.113500   598A      5.119185  
     599A      5.125083   600A      5.141399   601A      5.147778  
     602A      5.204643   603A      5.218880   604A      5.245777  
     605A      5.254819   606A      5.268603   607A      5.274598  
     608A      5.294663   609A      5.312810   610A      5.339796  
     611A      5.350378   612A      5.375975   613A      5.383651  
     614A      5.389753   615A      5.406394   616A      5.425928  
     617A      5.463397   618A      5.467200   619A      5.522371  
     620A      5.536854   621A      5.547887   622A      5.576567  
     623A      5.592360   624A      5.622549   625A      5.627565  
     626A      5.636741   627A      5.651093   628A      5.657185  
     629A      5.686500   630A      5.694753   631A      5.729753  
     632A      5.745156   633A      5.755685   634A      5.770184  
     635A      5.773864   636A      5.793565   637A      5.819283  
     638A      5.842459   639A      5.859573   640A      5.867528  
     641A      5.882216   642A      5.906657   643A      5.934452  
     644A      5.948016   645A      5.955684   646A      5.977912  
     647A      6.051974   648A      6.077034   649A      6.081853  
     650A      6.098750   651A      6.111842   652A      6.121852  
     653A      6.151624   654A      6.168192   655A      6.195707  
     656A      6.199061   657A      6.222251   658A      6.237327  
     659A      6.254722   660A      6.277178   661A      6.299025  
     662A      6.380035   663A      6.387706   664A      6.491786  
     665A      6.543675   666A      6.578150   667A      6.614122  
     668A      6.636615   669A      6.644190   670A      6.713407  
     671A      6.720206   672A      6.752926   673A      6.771669  
     674A      6.778710   675A      6.789456   676A      6.828903  
     677A      6.842439   678A      6.851264   679A      6.876054  
     680A      6.895702   681A      6.904137   682A      6.928897  
     683A      6.955648   684A      6.980382   685A      6.990170  
     686A      6.999181   687A      7.010305   688A      7.039164  
     689A      7.089158   690A      7.113364   691A      7.118668  
     692A      7.149840   693A      7.153627   694A      7.168884  
     695A      7.329009   696A      7.351371   697A      7.382424  
     698A      7.409142   699A      7.501788   700A      7.667425  
     701A      7.733370   702A      7.789025   703A      7.812532  
     704A      7.836466   705A      7.870480   706A      7.900675  
     707A     13.536633   708A     13.666930   709A     14.415311  
     710A     15.752738   711A     16.046321   712A     16.664411  
     713A     18.068101   714A     18.214067   715A     18.660888  
     716A     18.778095   717A     19.100674  

    Final Occupation by Irrep:
              A 
    DOCC [    46 ]

  @DF-RHF Final Energy:  -905.29977482711922

   => Energetics <=

    Nuclear Repulsion Energy =            800.1167055647874804
    One-Electron Energy =               -2831.2589161847336072
    Two-Electron Energy =                1125.8424357928267909
    Total Energy =                       -905.2997748271193359

Computation Completed

*** tstop() called on node57.bme.utexas.edu at Wed Feb  3 11:02:38 2021
Module time:
	user time   =     428.70 seconds =       7.14 minutes
	system time =      56.59 seconds =       0.94 minutes
	total time  =        108 seconds =       1.80 minutes
Total time:
	user time   =     428.70 seconds =       7.14 minutes
	system time =      56.59 seconds =       0.94 minutes
	total time  =        108 seconds =       1.80 minutes
   => Loading Basis Set <=

    Name: (AUG-CC-PVTZ AUX)
    Role: RIFIT
    Keyword: DF_BASIS_MP2
    atoms 1     entry S          line   666 file /home/xy3866/psi4conda/share/psi4/basis/aug-cc-pvtz-ri.gbs 
    atoms 2-3   entry O          line   264 file /home/xy3866/psi4conda/share/psi4/basis/aug-cc-pvtz-ri.gbs 
    atoms 4-6   entry N          line   206 file /home/xy3866/psi4conda/share/psi4/basis/aug-cc-pvtz-ri.gbs 
    atoms 7-11  entry C          line   148 file /home/xy3866/psi4conda/share/psi4/basis/aug-cc-pvtz-ri.gbs 
    atoms 12-20 entry H          line    30 file /home/xy3866/psi4conda/share/psi4/basis/aug-cc-pvtz-ri.gbs 


*** tstart() called on node57.bme.utexas.edu
*** at Wed Feb  3 11:02:38 2021


  //>>>>>>>>>>>>>>>>>>>>>>>>>>>>>>>>>>>//
  //               DFMP2               //
  //<<<<<<<<<<<<<<<<<<<<<<<<<<<<<<<<<<<//

	 --------------------------------------------------------
	                          DF-MP2                         
	      2nd-Order Density-Fitted Moller-Plesset Theory     
	              RMP2 Wavefunction,   8 Threads             
	                                                         
	        Rob Parrish, Justin Turney, Andy Simmonett,      
	           Ed Hohenstein, and C. David Sherrill          
	 --------------------------------------------------------

   => Auxiliary Basis Set <=

  Basis Set: (AUG-CC-PVTZ AUX)
    Blend: AUG-CC-PVTZ-RI
    Number of shells: 443
    Number of basis function: 1621
    Number of Cartesian functions: 2046
    Spherical Harmonics?: true
    Max angular momentum: 4

	 --------------------------------------------------------
	                 NBF =   717, NAUX =  1621
	 --------------------------------------------------------
	   CLASS    FOCC     OCC    AOCC    AVIR     VIR    FVIR
	   PAIRS       0      46      46     671     671       0
	 --------------------------------------------------------

  DFHelper Memory: AOs need 5.954 GiB; user supplied 22.352 GiB. Using in-core AOs.


         ------------------------------------------------------------
                                     CPHF                           
                                  Rob Parrish                       
         ------------------------------------------------------------

  ==> Geometry <==

    Molecular point group: c1
    Full point group: C1

    Geometry (in Angstrom), charge = 0, multiplicity = 1:

       Center              X                  Y                   Z               Mass       
    ------------   -----------------  -----------------  -----------------  -----------------
         S            0.776775417798    -0.670798569689    -0.277450287574    31.972071174400
         O            0.755877417798    -1.822764569689     0.632618712426    15.994914619570
         O            1.152073417798    -0.798364569689    -1.680304287574    15.994914619570
         N            1.691002817798     0.421500330311     0.356776812426    14.003074004430
         N           -1.835996582202    -0.732398569689     0.494287712426    14.003074004430
         N           -1.314040582202     1.125912430311    -0.636071287574    14.003074004430
         C           -0.868210582202    -0.034736569689    -0.163436287574    12.000000000000
         C            1.473674417798     0.783208430311     1.807590712426    12.000000000000
         C            1.973365417798     1.691752430311    -0.423494287574    12.000000000000
         C           -2.983608582202     0.013738430311     0.432903712426    12.000000000000
         C           -2.635103582202     1.156646430311    -0.264423287574    12.000000000000
         H            1.361400417798    -0.152653569689     2.354005712426     1.007825032230
         H            0.575463417798     1.404315430311     1.931202712426     1.007825032230
         H            2.336401417798     1.321514430311     2.205960712426     1.007825032230
         H            2.183827417798     1.387571430311    -1.447322287574     1.007825032230
         H            2.849036417798     2.201698430311    -0.015407287574     1.007825032230
         H            1.107425417798     2.363446430311    -0.407119287574     1.007825032230
         H           -1.687817582202    -1.638922569689     0.928124712426     1.007825032230
         H           -3.913221582202    -0.318973569689     0.871083712426     1.007825032230
         H           -3.267672582202     1.996528430311    -0.518662287574     1.007825032230

  Nuclear repulsion =  800.116705564787480
  Reference energy  = -905.299774827119222

  ==> Basis Set <==

  Basis Set: AUG-CC-PVTZ
    Blend: AUG-CC-PVTZ
    Number of shells: 237
    Number of basis function: 717
    Number of Cartesian functions: 834
    Spherical Harmonics?: true
    Max angular momentum: 3

  ==> CGRSolver (by Rob Parrish) <==

   Number of roots    =         1
   Preconditioning    =    JACOBI
   Convergence cutoff =     1E-06
   Maximum iterations =       100

  ==> CPHFRHamiltonian (by Rob Parrish) <== 

  ==> MemDFJK: Density-Fitted J/K Matrices <==

    J tasked:                   Yes
    K tasked:                   Yes
    wK tasked:                   No
    OpenMP threads:               8
    Memory [MiB]:             22888
    Algorithm:                 Disk
    Schwarz Cutoff:           1E-12
    Mask sparsity (%):       5.3446
    Fitting Condition:        1E-10

   => Auxiliary Basis Set <=

  Basis Set: (AUG-CC-PVTZ AUX)
    Blend: AUG-CC-PVTZ-JKFIT
    Number of shells: 468
    Number of basis function: 1600
    Number of Cartesian functions: 1985
    Spherical Harmonics?: true
    Max angular momentum: 4

  ==> CPHF Iterations <==

  => Iterations <=

             Iter  Converged  Remaining    Residual
  CGR           1          0          1   1.150E-01
  CGR           2          0          1   3.486E-02
  CGR           3          0          1   1.617E-02
  CGR           4          0          1   5.965E-03
  CGR           5          0          1   2.298E-03
  CGR           6          0          1   1.032E-03
  CGR           7          0          1   3.823E-04
  CGR           8          0          1   1.422E-04
  CGR           9          0          1   4.510E-05
  CGR          10          0          1   1.973E-05
  CGR          11          0          1   7.931E-06
  CGR          12          0          1   2.722E-06
  CGR          13          0          1   1.271E-06
  CGR          14          1          0   4.072E-07

    CGRSolver converged.

	-----------------------------------------------------------
	 ==================> DF-MP2 Energies <==================== 
	-----------------------------------------------------------
	 Reference Energy          =    -905.2997748271192222 [Eh]
	 Singles Energy            =      -0.0000000000000000 [Eh]
	 Same-Spin Energy          =      -0.5967442986560640 [Eh]
	 Opposite-Spin Energy      =      -1.7740350500620039 [Eh]
	 Correlation Energy        =      -2.3707793487180679 [Eh]
	 Total Energy              =    -907.6705541758373101 [Eh]
	-----------------------------------------------------------
	 ================> DF-SCS-MP2 Energies <================== 
	-----------------------------------------------------------
	 SCS Same-Spin Scale       =       0.3333333333333333 [-]
	 SCS Opposite-Spin Scale   =       1.2000000000000000 [-]
	 SCS Same-Spin Energy      =      -0.1989147662186880 [Eh]
	 SCS Opposite-Spin Energy  =      -2.1288420600744047 [Eh]
	 SCS Correlation Energy    =      -2.3277568262930926 [Eh]
	 SCS Total Energy          =    -907.6275316534123476 [Eh]
	-----------------------------------------------------------



Properties will be evaluated at   0.000000,  -0.000000,  -0.000000 [a0]

Properties computed using the MP2 density matrix

  Nuclear Dipole Moment: [e a0]
     X:     1.4821      Y:     7.9963      Z:     5.5198

  Electronic Dipole Moment: [e a0]
     X:    -2.3745      Y:    -7.0937      Z:    -4.0258

  Dipole Moment: [e a0]
     X:    -0.8923      Y:     0.9026      Z:     1.4940     Total:     1.9604

  Dipole Moment: [D]
     X:    -2.2681      Y:     2.2942      Z:     3.7975     Total:     4.9828


*** tstop() called on node57.bme.utexas.edu at Wed Feb  3 11:07:05 2021
Module time:
	user time   =    1498.32 seconds =      24.97 minutes
	system time =      89.40 seconds =       1.49 minutes
	total time  =        267 seconds =       4.45 minutes
Total time:
	user time   =    1927.20 seconds =      32.12 minutes
	system time =     145.99 seconds =       2.43 minutes
	total time  =        375 seconds =       6.25 minutes

    Psi4 stopped on: Wednesday, 03 February 2021 11:07AM
    Psi4 wall time for execution: 0:06:15.20

*** Psi4 exiting successfully. Buy a developer a beer!
