
    -----------------------------------------------------------------------
          Psi4: An Open-Source Ab Initio Electronic Structure Package
                               Psi4 1.4a3.dev225 

                         Git: Rev {master} 7105e37 


    D. G. A. Smith, L. A. Burns, A. C. Simmonett, R. M. Parrish,
    M. C. Schieber, R. Galvelis, P. Kraus, H. Kruse, R. Di Remigio,
    A. Alenaizan, A. M. James, S. Lehtola, J. P. Misiewicz, M. Scheurer,
    R. A. Shaw, J. B. Schriber, Y. Xie, Z. L. Glick, D. A. Sirianni,
    J. S. O'Brien, J. M. Waldrop, A. Kumar, E. G. Hohenstein,
    B. P. Pritchard, B. R. Brooks, H. F. Schaefer III, A. Yu. Sokolov,
    K. Patkowski, A. E. DePrince III, U. Bozkaya, R. A. King,
    F. A. Evangelista, J. M. Turney, T. D. Crawford, C. D. Sherrill,
    J. Chem. Phys. 152(18) 184108 (2020). https://doi.org/10.1063/5.0006002

                            Additional Code Authors
    E. T. Seidl, C. L. Janssen, E. F. Valeev, M. L. Leininger,
    J. F. Gonthier, R. M. Richard, H. R. McAlexander, M. Saitow, X. Wang,
    P. Verma, and M. H. Lechner

             Previous Authors, Complete List of Code Contributors,
                       and Citations for Specific Modules
    https://github.com/psi4/psi4/blob/master/codemeta.json
    https://github.com/psi4/psi4/graphs/contributors
    http://psicode.org/psi4manual/master/introduction.html#citing-psifour

    -----------------------------------------------------------------------


    Psi4 started on: Saturday, 20 March 2021 12:55AM

    Process ID: 243016
    Host:       c446-102.stampede2.tacc.utexas.edu
    PSIDATADIR: /home1/07844/xy3866/miniconda3/envs/p4env/share/psi4
    Memory:     500.0 MiB
    Threads:    32
    
  ==> Input File <==

--------------------------------------------------------------------------
#psi4
#
memory 32 gb

molecule  {
0 1
  S        0.7637890    -0.7221230    -0.3122950
  O        0.7428910    -1.8740890     0.5977740
  O        1.1390870    -0.8496890    -1.7151490
  N        1.7366500     0.4402300     0.3626080
  N       -1.8489830    -0.7837230     0.4594430
  N       -1.3270270     1.0745880    -0.6709160
  C       -0.8811970    -0.0860610    -0.1982810
  C        1.4606880     0.7318840     1.7727460
  C        1.9603790     1.6404280    -0.4583390
  C       -2.9965950    -0.0375860     0.3980590
  C       -2.6480900     1.1053220    -0.2992680
  H        1.3484140    -0.2039780     2.3191610
  H        0.5624770     1.3529910     1.8963580
  H        2.3234150     1.2701900     2.1711160
  H        2.1708410     1.3362470    -1.4821670
  H        2.8360500     2.1503740    -0.0502520
  H        1.0944390     2.3121220    -0.4419640
  H       -1.6935107    -1.7348659     0.9146333
  H       -3.9262080    -0.3702980     0.8362390
  H       -3.2806590     1.9452040    -0.5535070
units angstrom
no_reorient  #important for SAPT in psi4, default
symmetry c1  #important for SAPT in psi4, default
}

set PROPERTIES_ORIGIN ["COM"]
properties('MP2/aug-cc-pvtz', properties = ['dipole'])
--------------------------------------------------------------------------

  Memory set to  29.802 GiB by Python driver.
    SCF Algorithm Type (re)set to DF.

*** tstart() called on c446-102.stampede2.tacc.utexas.edu
*** at Sat Mar 20 00:55:29 2021

   => Loading Basis Set <=

    Name: AUG-CC-PVTZ
    Role: ORBITAL
    Keyword: BASIS
    atoms 1     entry S          line   906 file /home1/07844/xy3866/miniconda3/envs/p4env/share/psi4/basis/aug-cc-pvtz.gbs 
    atoms 2-3   entry O          line   331 file /home1/07844/xy3866/miniconda3/envs/p4env/share/psi4/basis/aug-cc-pvtz.gbs 
    atoms 4-6   entry N          line   285 file /home1/07844/xy3866/miniconda3/envs/p4env/share/psi4/basis/aug-cc-pvtz.gbs 
    atoms 7-11  entry C          line   239 file /home1/07844/xy3866/miniconda3/envs/p4env/share/psi4/basis/aug-cc-pvtz.gbs 
    atoms 12-20 entry H          line    40 file /home1/07844/xy3866/miniconda3/envs/p4env/share/psi4/basis/aug-cc-pvtz.gbs 


         ---------------------------------------------------------
                                   SCF
               by Justin Turney, Rob Parrish, Andy Simmonett
                          and Daniel G. A. Smith
                              RHF Reference
                       32 Threads,  30517 MiB Core
         ---------------------------------------------------------

  ==> Geometry <==

    Molecular point group: c1
    Full point group: C1

    Geometry (in Angstrom), charge = 0, multiplicity = 1:

       Center              X                  Y                   Z               Mass       
    ------------   -----------------  -----------------  -----------------  -----------------
         S            0.772042821331    -0.676145898448    -0.280827245993    31.972071174400
         O            0.751144821331    -1.828111898448     0.629241754007    15.994914619570
         O            1.147340821331    -0.803711898448    -1.683681245993    15.994914619570
         N            1.744903821331     0.486207101552     0.394075754007    14.003074004430
         N           -1.840729178669    -0.737745898448     0.490910754007    14.003074004430
         N           -1.318773178669     1.120565101552    -0.639448245993    14.003074004430
         C           -0.872943178669    -0.040083898448    -0.166813245993    12.000000000000
         C            1.468941821331     0.777861101552     1.804213754007    12.000000000000
         C            1.968632821331     1.686405101552    -0.426871245993    12.000000000000
         C           -2.988341178669     0.008391101552     0.429526754007    12.000000000000
         C           -2.639836178669     1.151299101552    -0.267800245993    12.000000000000
         H            1.356667821331    -0.158000898448     2.350628754007     1.007825032230
         H            0.570730821331     1.398968101552     1.927825754007     1.007825032230
         H            2.331668821331     1.316167101552     2.202583754007     1.007825032230
         H            2.179094821331     1.382224101552    -1.450699245993     1.007825032230
         H            2.844303821331     2.196351101552    -0.018784245993     1.007825032230
         H            1.102692821331     2.358099101552    -0.410496245993     1.007825032230
         H           -1.685256878669    -1.688888798448     0.946101054007     1.007825032230
         H           -3.917954178669    -0.324320898448     0.867706754007     1.007825032230
         H           -3.272405178669     1.991181101552    -0.522039245993     1.007825032230

  Running in c1 symmetry.

  Rotational constants: A =      0.05346  B =      0.02737  C =      0.02500 [cm^-1]
  Rotational constants: A =   1602.63980  B =    820.48558  C =    749.57019 [MHz]
  Nuclear repulsion =  797.175328437200392

  Charge       = 0
  Multiplicity = 1
  Electrons    = 92
  Nalpha       = 46
  Nbeta        = 46

  ==> Algorithm <==

  SCF Algorithm Type is DF.
  DIIS enabled.
  MOM disabled.
  Fractional occupation disabled.
  Guess Type is SAD.
  Energy threshold   = 1.00e-10
  Density threshold  = 1.00e-10
  Integral threshold = 1.00e-12

  ==> Primary Basis <==

  Basis Set: AUG-CC-PVTZ
    Blend: AUG-CC-PVTZ
    Number of shells: 237
    Number of basis functions: 717
    Number of Cartesian functions: 834
    Spherical Harmonics?: true
    Max angular momentum: 3

   => Loading Basis Set <=

    Name: (AUG-CC-PVTZ AUX)
    Role: JKFIT
    Keyword: DF_BASIS_SCF
    atoms 1     entry S          line   730 file /home1/07844/xy3866/miniconda3/envs/p4env/share/psi4/basis/aug-cc-pvtz-jkfit.gbs 
    atoms 2-3   entry O          line   286 file /home1/07844/xy3866/miniconda3/envs/p4env/share/psi4/basis/aug-cc-pvtz-jkfit.gbs 
    atoms 4-6   entry N          line   224 file /home1/07844/xy3866/miniconda3/envs/p4env/share/psi4/basis/aug-cc-pvtz-jkfit.gbs 
    atoms 7-11  entry C          line   162 file /home1/07844/xy3866/miniconda3/envs/p4env/share/psi4/basis/aug-cc-pvtz-jkfit.gbs 
    atoms 12-20 entry H          line    70 file /home1/07844/xy3866/miniconda3/envs/p4env/share/psi4/basis/aug-cc-pvtz-jkfit.gbs 

  ==> Integral Setup <==

  DFHelper Memory: AOs need 5.841 GiB; user supplied 22.352 GiB. Using in-core AOs.

  ==> MemDFJK: Density-Fitted J/K Matrices <==

    J tasked:                   Yes
    K tasked:                   Yes
    wK tasked:                   No
    OpenMP threads:              32
    Memory [MiB]:             22888
    Algorithm:                 Core
    Schwarz Cutoff:           1E-12
    Mask sparsity (%):       8.6825
    Fitting Condition:        1E-10

   => Auxiliary Basis Set <=

  Basis Set: (AUG-CC-PVTZ AUX)
    Blend: AUG-CC-PVTZ-JKFIT
    Number of shells: 468
    Number of basis functions: 1600
    Number of Cartesian functions: 1985
    Spherical Harmonics?: true
    Max angular momentum: 4

  Minimum eigenvalue in the overlap matrix is 3.1698835815E-06.
  Reciprocal condition number of the overlap matrix is 1.6101442120E-07.
    Using symmetric orthogonalization.

  ==> Pre-Iterations <==

  SCF Guess: Superposition of Atomic Densities via on-the-fly atomic UHF (no occupation information).

   -------------------------
    Irrep   Nso     Nmo    
   -------------------------
     A        717     717 
   -------------------------
    Total     717     717
   -------------------------

  ==> Iterations <==

                           Total Energy        Delta E     RMS |[F,P]|

   @DF-RHF iter SAD:  -905.40991426770358   -9.05410e+02   0.00000e+00 
   @DF-RHF iter   1:  -904.90967760428748    5.00237e-01   1.27403e-03 DIIS
   @DF-RHF iter   2:  -905.14383902833390   -2.34161e-01   9.01812e-04 DIIS
   @DF-RHF iter   3:  -905.29522694048785   -1.51388e-01   1.45768e-04 DIIS
   @DF-RHF iter   4:  -905.30103442669554   -5.80749e-03   5.47831e-05 DIIS
   @DF-RHF iter   5:  -905.30191938556891   -8.84959e-04   1.12396e-05 DIIS
   @DF-RHF iter   6:  -905.30197156877102   -5.21832e-05   4.13363e-06 DIIS
   @DF-RHF iter   7:  -905.30198090485226   -9.33608e-06   1.65041e-06 DIIS
   @DF-RHF iter   8:  -905.30198288954398   -1.98469e-06   8.19970e-07 DIIS
   @DF-RHF iter   9:  -905.30198338270611   -4.93162e-07   3.53600e-07 DIIS
   @DF-RHF iter  10:  -905.30198349623311   -1.13527e-07   1.30314e-07 DIIS
   @DF-RHF iter  11:  -905.30198351278329   -1.65502e-08   5.54939e-08 DIIS
   @DF-RHF iter  12:  -905.30198351549257   -2.70927e-09   2.24417e-08 DIIS
   @DF-RHF iter  13:  -905.30198351597267   -4.80100e-10   8.66546e-09 DIIS
   @DF-RHF iter  14:  -905.30198351601007   -3.74030e-11   3.11916e-09 DIIS
   @DF-RHF iter  15:  -905.30198351601427   -4.20641e-12   1.45800e-09 DIIS
   @DF-RHF iter  16:  -905.30198351601518   -9.09495e-13   6.37206e-10 DIIS
   @DF-RHF iter  17:  -905.30198351601553   -3.41061e-13   2.72627e-10 DIIS
   @DF-RHF iter  18:  -905.30198351601553    0.00000e+00   1.14031e-10 DIIS
   @DF-RHF iter  19:  -905.30198351601553    0.00000e+00   4.21737e-11 DIIS
  Energy and wave function converged.


  ==> Post-Iterations <==

    Orbital Energies [Eh]
    ---------------------

    Doubly Occupied:                                                      

       1A    -92.215604     2A    -20.558458     3A    -20.555684  
       4A    -15.658513     5A    -15.611107     6A    -15.586082  
       7A    -11.336869     8A    -11.292508     9A    -11.275128  
      10A    -11.272950    11A    -11.265937    12A     -9.180129  
      13A     -6.865345    14A     -6.864944    15A     -6.864524  
      16A     -1.464156    17A     -1.367677    18A     -1.345305  
      19A     -1.257808    20A     -1.194339    21A     -1.049056  
      22A     -0.981548    23A     -0.959227    24A     -0.873948  
      25A     -0.836094    26A     -0.812148    27A     -0.752292  
      28A     -0.710453    29A     -0.675725    30A     -0.668008  
      31A     -0.641928    32A     -0.629189    33A     -0.624286  
      34A     -0.615958    35A     -0.608473    36A     -0.577058  
      37A     -0.570932    38A     -0.541797    39A     -0.513934  
      40A     -0.507719    41A     -0.485123    42A     -0.479922  
      43A     -0.470914    44A     -0.428195    45A     -0.417820  
      46A     -0.345479  

    Virtual:                                                              

      47A      0.019925    48A      0.029309    49A      0.032795  
      50A      0.042882    51A      0.047212    52A      0.051215  
      53A      0.059537    54A      0.065610    55A      0.067466  
      56A      0.082199    57A      0.085326    58A      0.093950  
      59A      0.098515    60A      0.102428    61A      0.108102  
      62A      0.112600    63A      0.115950    64A      0.116846  
      65A      0.124620    66A      0.126462    67A      0.127979  
      68A      0.129907    69A      0.136426    70A      0.144744  
      71A      0.146387    72A      0.149144    73A      0.151430  
      74A      0.162294    75A      0.167660    76A      0.172258  
      77A      0.178592    78A      0.179762    79A      0.185505  
      80A      0.192192    81A      0.197675    82A      0.209392  
      83A      0.211677    84A      0.223073    85A      0.225504  
      86A      0.233750    87A      0.238743    88A      0.240197  
      89A      0.240964    90A      0.249746    91A      0.253831  
      92A      0.260147    93A      0.264368    94A      0.273376  
      95A      0.276185    96A      0.284431    97A      0.287118  
      98A      0.292576    99A      0.299645   100A      0.301087  
     101A      0.301543   102A      0.303821   103A      0.309473  
     104A      0.313893   105A      0.317465   106A      0.325812  
     107A      0.327618   108A      0.332057   109A      0.336833  
     110A      0.341388   111A      0.344948   112A      0.349427  
     113A      0.356288   114A      0.358542   115A      0.361232  
     116A      0.365443   117A      0.367576   118A      0.369618  
     119A      0.378064   120A      0.384162   121A      0.385107  
     122A      0.394181   123A      0.399164   124A      0.400768  
     125A      0.405752   126A      0.409216   127A      0.414813  
     128A      0.419003   129A      0.428018   130A      0.432961  
     131A      0.438543   132A      0.443431   133A      0.450281  
     134A      0.455643   135A      0.462670   136A      0.464348  
     137A      0.466898   138A      0.470444   139A      0.471104  
     140A      0.477803   141A      0.480986   142A      0.484156  
     143A      0.488763   144A      0.495465   145A      0.503151  
     146A      0.508335   147A      0.512646   148A      0.517423  
     149A      0.518907   150A      0.524395   151A      0.531466  
     152A      0.538627   153A      0.542708   154A      0.544878  
     155A      0.550553   156A      0.561608   157A      0.562837  
     158A      0.571401   159A      0.573289   160A      0.575510  
     161A      0.579229   162A      0.585227   163A      0.588584  
     164A      0.597727   165A      0.600739   166A      0.606967  
     167A      0.610526   168A      0.618130   169A      0.623664  
     170A      0.636598   171A      0.639652   172A      0.647952  
     173A      0.655288   174A      0.660877   175A      0.668145  
     176A      0.678483   177A      0.687561   178A      0.691513  
     179A      0.697535   180A      0.710733   181A      0.720202  
     182A      0.726140   183A      0.731671   184A      0.740015  
     185A      0.742328   186A      0.752427   187A      0.768154  
     188A      0.770412   189A      0.777235   190A      0.784643  
     191A      0.792485   192A      0.794375   193A      0.799694  
     194A      0.807202   195A      0.815745   196A      0.819986  
     197A      0.822853   198A      0.831500   199A      0.836853  
     200A      0.847053   201A      0.853389   202A      0.858157  
     203A      0.868182   204A      0.877039   205A      0.881316  
     206A      0.883054   207A      0.888596   208A      0.894774  
     209A      0.899379   210A      0.906008   211A      0.907523  
     212A      0.916768   213A      0.924728   214A      0.928506  
     215A      0.933574   216A      0.941978   217A      0.944378  
     218A      0.950816   219A      0.957168   220A      0.960778  
     221A      0.973234   222A      0.977745   223A      0.983788  
     224A      0.985202   225A      0.991408   226A      0.998987  
     227A      1.004676   228A      1.011147   229A      1.019100  
     230A      1.025260   231A      1.029059   232A      1.033148  
     233A      1.043645   234A      1.045837   235A      1.056275  
     236A      1.060242   237A      1.065524   238A      1.071530  
     239A      1.073747   240A      1.084808   241A      1.096786  
     242A      1.101483   243A      1.102797   244A      1.109138  
     245A      1.119016   246A      1.122315   247A      1.125350  
     248A      1.128801   249A      1.131084   250A      1.135579  
     251A      1.139374   252A      1.142933   253A      1.149967  
     254A      1.163090   255A      1.167738   256A      1.177438  
     257A      1.182399   258A      1.187003   259A      1.188852  
     260A      1.197706   261A      1.199797   262A      1.206138  
     263A      1.210542   264A      1.218069   265A      1.228498  
     266A      1.231521   267A      1.237391   268A      1.243525  
     269A      1.255811   270A      1.263022   271A      1.268805  
     272A      1.274962   273A      1.281763   274A      1.289674  
     275A      1.297200   276A      1.305493   277A      1.319088  
     278A      1.328028   279A      1.332366   280A      1.340183  
     281A      1.359381   282A      1.363461   283A      1.367930  
     284A      1.375512   285A      1.382859   286A      1.388877  
     287A      1.394108   288A      1.401011   289A      1.408838  
     290A      1.413126   291A      1.421848   292A      1.429989  
     293A      1.435118   294A      1.436063   295A      1.440284  
     296A      1.445802   297A      1.464114   298A      1.472285  
     299A      1.484219   300A      1.488113   301A      1.491166  
     302A      1.499217   303A      1.504266   304A      1.522618  
     305A      1.528947   306A      1.532371   307A      1.539671  
     308A      1.542369   309A      1.553773   310A      1.562540  
     311A      1.572251   312A      1.578673   313A      1.580472  
     314A      1.590865   315A      1.599871   316A      1.604748  
     317A      1.610423   318A      1.615647   319A      1.625272  
     320A      1.635479   321A      1.652069   322A      1.654665  
     323A      1.669924   324A      1.671227   325A      1.679583  
     326A      1.685230   327A      1.690830   328A      1.697773  
     329A      1.709686   330A      1.712518   331A      1.724733  
     332A      1.735241   333A      1.743241   334A      1.751209  
     335A      1.759634   336A      1.764287   337A      1.780870  
     338A      1.789350   339A      1.796764   340A      1.799178  
     341A      1.804343   342A      1.809636   343A      1.815288  
     344A      1.830741   345A      1.840616   346A      1.842548  
     347A      1.851296   348A      1.865510   349A      1.878104  
     350A      1.883288   351A      1.888796   352A      1.896346  
     353A      1.901375   354A      1.923134   355A      1.930285  
     356A      1.938878   357A      1.958010   358A      1.959969  
     359A      1.967147   360A      1.976130   361A      1.993922  
     362A      2.004087   363A      2.017483   364A      2.026339  
     365A      2.037648   366A      2.050467   367A      2.054456  
     368A      2.070736   369A      2.077016   370A      2.081719  
     371A      2.092413   372A      2.100907   373A      2.109987  
     374A      2.126231   375A      2.128929   376A      2.146704  
     377A      2.153612   378A      2.166482   379A      2.175568  
     380A      2.178409   381A      2.187878   382A      2.195551  
     383A      2.202121   384A      2.216348   385A      2.219838  
     386A      2.231201   387A      2.246163   388A      2.256689  
     389A      2.260734   390A      2.269292   391A      2.287218  
     392A      2.290571   393A      2.305208   394A      2.317903  
     395A      2.324015   396A      2.334142   397A      2.343159  
     398A      2.352431   399A      2.364968   400A      2.373407  
     401A      2.376924   402A      2.399784   403A      2.404239  
     404A      2.411770   405A      2.426460   406A      2.436231  
     407A      2.438472   408A      2.459961   409A      2.472886  
     410A      2.487402   411A      2.494908   412A      2.498533  
     413A      2.522716   414A      2.540455   415A      2.545236  
     416A      2.557297   417A      2.570725   418A      2.579412  
     419A      2.582852   420A      2.596347   421A      2.607110  
     422A      2.617771   423A      2.622004   424A      2.633095  
     425A      2.641479   426A      2.657064   427A      2.664130  
     428A      2.678325   429A      2.684811   430A      2.693845  
     431A      2.722981   432A      2.732245   433A      2.744950  
     434A      2.758321   435A      2.766068   436A      2.782410  
     437A      2.795906   438A      2.813828   439A      2.821136  
     440A      2.840541   441A      2.859839   442A      2.872266  
     443A      2.886093   444A      2.896429   445A      2.911800  
     446A      2.930744   447A      2.956574   448A      2.966914  
     449A      2.980868   450A      3.001726   451A      3.024052  
     452A      3.027789   453A      3.039126   454A      3.059928  
     455A      3.062667   456A      3.090405   457A      3.125661  
     458A      3.128678   459A      3.151251   460A      3.161682  
     461A      3.194537   462A      3.242672   463A      3.250519  
     464A      3.264350   465A      3.280652   466A      3.298539  
     467A      3.320092   468A      3.336483   469A      3.368156  
     470A      3.373287   471A      3.406638   472A      3.415955  
     473A      3.435509   474A      3.449004   475A      3.464857  
     476A      3.472034   477A      3.507177   478A      3.512690  
     479A      3.533316   480A      3.536604   481A      3.548981  
     482A      3.578763   483A      3.590551   484A      3.595824  
     485A      3.605983   486A      3.619887   487A      3.630253  
     488A      3.636317   489A      3.654351   490A      3.660754  
     491A      3.681786   492A      3.687050   493A      3.703747  
     494A      3.726303   495A      3.730555   496A      3.745965  
     497A      3.748452   498A      3.761909   499A      3.780888  
     500A      3.786030   501A      3.794217   502A      3.803245  
     503A      3.812951   504A      3.824072   505A      3.825450  
     506A      3.842353   507A      3.850602   508A      3.867060  
     509A      3.873832   510A      3.880860   511A      3.886821  
     512A      3.904208   513A      3.916747   514A      3.942026  
     515A      3.944324   516A      3.952789   517A      3.969682  
     518A      3.977332   519A      3.986559   520A      3.996837  
     521A      4.009389   522A      4.019207   523A      4.025124  
     524A      4.034092   525A      4.046331   526A      4.054617  
     527A      4.069529   528A      4.083655   529A      4.098783  
     530A      4.107140   531A      4.122210   532A      4.141448  
     533A      4.160370   534A      4.166900   535A      4.175293  
     536A      4.185835   537A      4.196758   538A      4.199555  
     539A      4.230412   540A      4.241435   541A      4.251635  
     542A      4.261215   543A      4.268524   544A      4.280614  
     545A      4.288610   546A      4.296647   547A      4.328351  
     548A      4.337042   549A      4.347905   550A      4.362369  
     551A      4.368428   552A      4.385829   553A      4.403524  
     554A      4.415833   555A      4.427358   556A      4.435592  
     557A      4.463625   558A      4.470513   559A      4.479549  
     560A      4.504992   561A      4.521642   562A      4.535111  
     563A      4.550979   564A      4.558323   565A      4.568747  
     566A      4.576258   567A      4.605759   568A      4.620375  
     569A      4.632523   570A      4.657592   571A      4.663484  
     572A      4.694240   573A      4.694675   574A      4.715487  
     575A      4.756204   576A      4.787340   577A      4.791774  
     578A      4.802494   579A      4.835698   580A      4.847838  
     581A      4.856483   582A      4.888260   583A      4.916036  
     584A      4.926864   585A      4.934802   586A      4.943824  
     587A      4.952399   588A      4.969410   589A      4.984242  
     590A      4.999131   591A      5.025663   592A      5.047519  
     593A      5.052694   594A      5.067670   595A      5.075476  
     596A      5.092242   597A      5.095009   598A      5.101465  
     599A      5.119631   600A      5.130011   601A      5.141061  
     602A      5.203840   603A      5.216444   604A      5.231671  
     605A      5.250028   606A      5.253623   607A      5.264917  
     608A      5.288163   609A      5.322166   610A      5.348875  
     611A      5.353282   612A      5.364093   613A      5.374220  
     614A      5.379268   615A      5.430488   616A      5.442844  
     617A      5.450353   618A      5.463804   619A      5.495539  
     620A      5.517535   621A      5.563039   622A      5.582701  
     623A      5.585152   624A      5.609342   625A      5.619919  
     626A      5.631209   627A      5.650156   628A      5.652652  
     629A      5.698849   630A      5.711546   631A      5.726220  
     632A      5.738167   633A      5.753080   634A      5.765703  
     635A      5.776855   636A      5.793981   637A      5.803427  
     638A      5.847973   639A      5.862203   640A      5.883658  
     641A      5.903105   642A      5.913570   643A      5.935022  
     644A      5.941404   645A      5.947069   646A      5.975020  
     647A      6.030030   648A      6.058322   649A      6.079665  
     650A      6.088221   651A      6.096393   652A      6.113462  
     653A      6.141849   654A      6.155535   655A      6.167242  
     656A      6.180046   657A      6.201697   658A      6.228096  
     659A      6.277189   660A      6.295529   661A      6.330582  
     662A      6.375475   663A      6.441238   664A      6.468017  
     665A      6.523192   666A      6.575807   667A      6.604459  
     668A      6.628593   669A      6.689181   670A      6.724538  
     671A      6.742296   672A      6.747738   673A      6.780244  
     674A      6.795932   675A      6.800053   676A      6.832099  
     677A      6.842671   678A      6.854591   679A      6.882291  
     680A      6.901442   681A      6.910875   682A      6.921917  
     683A      6.950844   684A      6.964117   685A      6.982912  
     686A      6.991852   687A      7.000764   688A      7.025966  
     689A      7.076855   690A      7.092608   691A      7.105586  
     692A      7.134178   693A      7.143515   694A      7.156897  
     695A      7.284831   696A      7.342289   697A      7.369903  
     698A      7.401210   699A      7.487390   700A      7.648032  
     701A      7.717108   702A      7.731020   703A      7.802078  
     704A      7.810476   705A      7.847654   706A      7.885354  
     707A     13.257067   708A     13.586484   709A     14.293621  
     710A     15.838967   711A     16.330213   712A     16.471432  
     713A     18.048869   714A     18.277908   715A     18.525113  
     716A     18.855161   717A     19.049231  

    Final Occupation by Irrep:
              A 
    DOCC [    46 ]

  @DF-RHF Final Energy:  -905.30198351601553

   => Energetics <=

    Nuclear Repulsion Energy =            797.1753284372003918
    One-Electron Energy =               -2825.3340380317663403
    Two-Electron Energy =                1122.8567260785505368
    Total Energy =                       -905.3019835160155253

Computation Completed

*** tstop() called on c446-102.stampede2.tacc.utexas.edu at Sat Mar 20 00:56:21 2021
Module time:
	user time   =     945.83 seconds =      15.76 minutes
	system time =      63.37 seconds =       1.06 minutes
	total time  =         52 seconds =       0.87 minutes
Total time:
	user time   =     945.83 seconds =      15.76 minutes
	system time =      63.37 seconds =       1.06 minutes
	total time  =         52 seconds =       0.87 minutes
   => Loading Basis Set <=

    Name: (AUG-CC-PVTZ AUX)
    Role: RIFIT
    Keyword: DF_BASIS_MP2
    atoms 1     entry S          line   666 file /home1/07844/xy3866/miniconda3/envs/p4env/share/psi4/basis/aug-cc-pvtz-ri.gbs 
    atoms 2-3   entry O          line   264 file /home1/07844/xy3866/miniconda3/envs/p4env/share/psi4/basis/aug-cc-pvtz-ri.gbs 
    atoms 4-6   entry N          line   206 file /home1/07844/xy3866/miniconda3/envs/p4env/share/psi4/basis/aug-cc-pvtz-ri.gbs 
    atoms 7-11  entry C          line   148 file /home1/07844/xy3866/miniconda3/envs/p4env/share/psi4/basis/aug-cc-pvtz-ri.gbs 
    atoms 12-20 entry H          line    30 file /home1/07844/xy3866/miniconda3/envs/p4env/share/psi4/basis/aug-cc-pvtz-ri.gbs 


*** tstart() called on c446-102.stampede2.tacc.utexas.edu
*** at Sat Mar 20 00:56:22 2021


  //>>>>>>>>>>>>>>>>>>>>>>>>>>>>>>>>>>>//
  //               DFMP2               //
  //<<<<<<<<<<<<<<<<<<<<<<<<<<<<<<<<<<<//

	 --------------------------------------------------------
	                          DF-MP2                         
	      2nd-Order Density-Fitted Moller-Plesset Theory     
	              RMP2 Wavefunction,  32 Threads             
	                                                         
	        Rob Parrish, Justin Turney, Andy Simmonett,      
	           Ed Hohenstein, and C. David Sherrill          
	 --------------------------------------------------------

   => Auxiliary Basis Set <=

  Basis Set: (AUG-CC-PVTZ AUX)
    Blend: AUG-CC-PVTZ-RI
    Number of shells: 443
    Number of basis functions: 1621
    Number of Cartesian functions: 2046
    Spherical Harmonics?: true
    Max angular momentum: 4

	 --------------------------------------------------------
	                 NBF =   717, NAUX =  1621
	 --------------------------------------------------------
	   CLASS    FOCC     OCC    AOCC    AVIR     VIR    FVIR
	   PAIRS       0      46      46     671     671       0
	 --------------------------------------------------------

  DFHelper Memory: AOs need 6.043 GiB; user supplied 22.352 GiB. Using in-core AOs.


         ------------------------------------------------------------
                                     CPHF                           
                                  Rob Parrish                       
         ------------------------------------------------------------

  ==> Geometry <==

    Molecular point group: c1
    Full point group: C1

    Geometry (in Angstrom), charge = 0, multiplicity = 1:

       Center              X                  Y                   Z               Mass       
    ------------   -----------------  -----------------  -----------------  -----------------
         S            0.772042821331    -0.676145898448    -0.280827245993    31.972071174400
         O            0.751144821331    -1.828111898448     0.629241754007    15.994914619570
         O            1.147340821331    -0.803711898448    -1.683681245993    15.994914619570
         N            1.744903821331     0.486207101552     0.394075754007    14.003074004430
         N           -1.840729178669    -0.737745898448     0.490910754007    14.003074004430
         N           -1.318773178669     1.120565101552    -0.639448245993    14.003074004430
         C           -0.872943178669    -0.040083898448    -0.166813245993    12.000000000000
         C            1.468941821331     0.777861101552     1.804213754007    12.000000000000
         C            1.968632821331     1.686405101552    -0.426871245993    12.000000000000
         C           -2.988341178669     0.008391101552     0.429526754007    12.000000000000
         C           -2.639836178669     1.151299101552    -0.267800245993    12.000000000000
         H            1.356667821331    -0.158000898448     2.350628754007     1.007825032230
         H            0.570730821331     1.398968101552     1.927825754007     1.007825032230
         H            2.331668821331     1.316167101552     2.202583754007     1.007825032230
         H            2.179094821331     1.382224101552    -1.450699245993     1.007825032230
         H            2.844303821331     2.196351101552    -0.018784245993     1.007825032230
         H            1.102692821331     2.358099101552    -0.410496245993     1.007825032230
         H           -1.685256878669    -1.688888798448     0.946101054007     1.007825032230
         H           -3.917954178669    -0.324320898448     0.867706754007     1.007825032230
         H           -3.272405178669     1.991181101552    -0.522039245993     1.007825032230

  Nuclear repulsion =  797.175328437200392
  Reference energy  = -905.301983516015525

  ==> Basis Set <==

  Basis Set: AUG-CC-PVTZ
    Blend: AUG-CC-PVTZ
    Number of shells: 237
    Number of basis functions: 717
    Number of Cartesian functions: 834
    Spherical Harmonics?: true
    Max angular momentum: 3

  ==> CGRSolver (by Rob Parrish) <==

   Number of roots    =         1
   Preconditioning    =    JACOBI
   Convergence cutoff =     1E-06
   Maximum iterations =       100

  ==> CPHFRHamiltonian (by Rob Parrish) <== 

  ==> MemDFJK: Density-Fitted J/K Matrices <==

    J tasked:                   Yes
    K tasked:                   Yes
    wK tasked:                   No
    OpenMP threads:              32
    Memory [MiB]:             22888
    Algorithm:                 Core
    Schwarz Cutoff:           1E-12
    Mask sparsity (%):       5.3890
    Fitting Condition:        1E-10

   => Auxiliary Basis Set <=

  Basis Set: (AUG-CC-PVTZ AUX)
    Blend: AUG-CC-PVTZ-JKFIT
    Number of shells: 468
    Number of basis functions: 1600
    Number of Cartesian functions: 1985
    Spherical Harmonics?: true
    Max angular momentum: 4

  ==> CPHF Iterations <==

  => Iterations <=

             Iter  Converged  Remaining    Residual
  CGR           1          0          1   1.187E-01
  CGR           2          0          1   3.560E-02
  CGR           3          0          1   1.638E-02
  CGR           4          0          1   5.922E-03
  CGR           5          0          1   2.344E-03
  CGR           6          0          1   1.089E-03
  CGR           7          0          1   4.028E-04
  CGR           8          0          1   1.413E-04
  CGR           9          0          1   4.417E-05
  CGR          10          0          1   1.851E-05
  CGR          11          0          1   7.908E-06
  CGR          12          0          1   3.026E-06
  CGR          13          0          1   1.307E-06
  CGR          14          1          0   4.394E-07

    CGRSolver converged.

	-----------------------------------------------------------
	 ==================> DF-MP2 Energies <==================== 
	-----------------------------------------------------------
	 Reference Energy          =    -905.3019835160155253 [Eh]
	 Singles Energy            =      -0.0000000000000000 [Eh]
	 Same-Spin Energy          =      -0.5979591549531945 [Eh]
	 Opposite-Spin Energy      =      -1.7764156711989254 [Eh]
	 Correlation Energy        =      -2.3743748261521200 [Eh]
	 Total Energy              =    -907.6763583421676458 [Eh]
	-----------------------------------------------------------
	 ================> DF-SCS-MP2 Energies <================== 
	-----------------------------------------------------------
	 SCS Same-Spin Scale       =       0.3333333333333333 [-]
	 SCS Opposite-Spin Scale   =       1.2000000000000000 [-]
	 SCS Same-Spin Energy      =      -0.1993197183177315 [Eh]
	 SCS Opposite-Spin Energy  =      -2.1316988054387105 [Eh]
	 SCS Correlation Energy    =      -2.3310185237564420 [Eh]
	 SCS Total Energy          =    -907.6330020397720091 [Eh]
	-----------------------------------------------------------



Properties will be evaluated at   0.000000,   0.000000,  -0.000000 [a0]

Properties computed using the MP2 density matrix

  Nuclear Dipole Moment: [e a0]
     X:     1.4488      Y:     7.9090      Z:     5.5112

  Electronic Dipole Moment: [e a0]
     X:    -2.5014      Y:    -7.1920      Z:    -4.0943

  Dipole Moment: [e a0]
     X:    -1.0526      Y:     0.7170      Z:     1.4168     Total:     1.9051

  Dipole Moment: [D]
     X:    -2.6755      Y:     1.8224      Z:     3.6012     Total:     4.8424


*** tstop() called on c446-102.stampede2.tacc.utexas.edu at Sat Mar 20 01:02:00 2021
Module time:
	user time   =    2792.64 seconds =      46.54 minutes
	system time =      86.98 seconds =       1.45 minutes
	total time  =        338 seconds =       5.63 minutes
Total time:
	user time   =    3739.48 seconds =      62.32 minutes
	system time =     150.37 seconds =       2.51 minutes
	total time  =        391 seconds =       6.52 minutes

    Psi4 stopped on: Saturday, 20 March 2021 01:02AM
    Psi4 wall time for execution: 0:06:32.31

*** Psi4 exiting successfully. Buy a developer a beer!
