
    -----------------------------------------------------------------------
          Psi4: An Open-Source Ab Initio Electronic Structure Package
                               Psi4 1.3.2 release

                         Git: Rev {HEAD} ecbda83 


    R. M. Parrish, L. A. Burns, D. G. A. Smith, A. C. Simmonett,
    A. E. DePrince III, E. G. Hohenstein, U. Bozkaya, A. Yu. Sokolov,
    R. Di Remigio, R. M. Richard, J. F. Gonthier, A. M. James,
    H. R. McAlexander, A. Kumar, M. Saitow, X. Wang, B. P. Pritchard,
    P. Verma, H. F. Schaefer III, K. Patkowski, R. A. King, E. F. Valeev,
    F. A. Evangelista, J. M. Turney, T. D. Crawford, and C. D. Sherrill,
    J. Chem. Theory Comput. 13(7) pp 3185--3197 (2017).
    (doi: 10.1021/acs.jctc.7b00174)


                         Additional Contributions by
    P. Kraus, H. Kruse, M. H. Lechner, M. C. Schieber, R. A. Shaw,
    A. Alenaizan, R. Galvelis, Z. L. Glick, S. Lehtola, and J. P. Misiewicz

    -----------------------------------------------------------------------


    Psi4 started on: Wednesday, 03 February 2021 06:46AM

    Process ID: 2288762
    Host:       node57.bme.utexas.edu
    PSIDATADIR: /home/xy3866/psi4conda/share/psi4
    Memory:     500.0 MiB
    Threads:    8
    
  ==> Input File <==

--------------------------------------------------------------------------
#psi4
#
memory 32 gb

molecule  {
0 1
  S        0.7637890    -0.7221230    -0.3122950
  O        0.7428910    -1.8740890     0.5977740
  O        1.1390870    -0.8496890    -1.7151490
  N        1.7366500     0.4402300     0.3626080
  N       -1.8489830    -0.7837230     0.4594430
  N       -1.3270270     1.0745880    -0.6709160
  C       -0.8811970    -0.0860610    -0.1982810
  C        1.4606880     0.7318840     1.7727460
  C        1.9603790     1.6404280    -0.4583390
  C       -3.0191183    -0.0291535     0.4002052
  C       -2.6480900     1.1053220    -0.2992680
  H        1.3484140    -0.2039780     2.3191610
  H        0.5624770     1.3529910     1.8963580
  H        2.3234150     1.2701900     2.1711160
  H        2.1708410     1.3362470    -1.4821670
  H        2.8360500     2.1503740    -0.0502520
  H        1.0944390     2.3121220    -0.4419640
  H       -1.7008040    -1.6902470     0.8932800
  H       -3.9262080    -0.3702980     0.8362390
  H       -3.2806590     1.9452040    -0.5535070
units angstrom
no_reorient  #important for SAPT in psi4, default
symmetry c1  #important for SAPT in psi4, default
}

set PROPERTIES_ORIGIN ["COM"]
properties('MP2/aug-cc-pvtz', properties = ['dipole'])
--------------------------------------------------------------------------

  Memory set to  29.802 GiB by Python driver.
    SCF Algorithm Type (re)set to DF.

*** tstart() called on node57.bme.utexas.edu
*** at Wed Feb  3 06:46:27 2021

   => Loading Basis Set <=

    Name: AUG-CC-PVTZ
    Role: ORBITAL
    Keyword: BASIS
    atoms 1     entry S          line   902 file /home/xy3866/psi4conda/share/psi4/basis/aug-cc-pvtz.gbs 
    atoms 2-3   entry O          line   327 file /home/xy3866/psi4conda/share/psi4/basis/aug-cc-pvtz.gbs 
    atoms 4-6   entry N          line   281 file /home/xy3866/psi4conda/share/psi4/basis/aug-cc-pvtz.gbs 
    atoms 7-11  entry C          line   235 file /home/xy3866/psi4conda/share/psi4/basis/aug-cc-pvtz.gbs 
    atoms 12-20 entry H          line    36 file /home/xy3866/psi4conda/share/psi4/basis/aug-cc-pvtz.gbs 


         ---------------------------------------------------------
                                   SCF
               by Justin Turney, Rob Parrish, Andy Simmonett
                          and Daniel G. A. Smith
                              RHF Reference
                        8 Threads,  30517 MiB Core
         ---------------------------------------------------------

  ==> Geometry <==

    Molecular point group: c1
    Full point group: C1

    Geometry (in Angstrom), charge = 0, multiplicity = 1:

       Center              X                  Y                   Z               Mass       
    ------------   -----------------  -----------------  -----------------  -----------------
         S            0.773628901744    -0.676980889033    -0.280851434591    31.972071174400
         O            0.752730901744    -1.828946889033     0.629217565409    15.994914619570
         O            1.148926901744    -0.804546889033    -1.683705434591    15.994914619570
         N            1.746489901744     0.485372110967     0.394051565409    14.003074004430
         N           -1.839143098256    -0.738580889033     0.490886565409    14.003074004430
         N           -1.317187098256     1.119730110967    -0.639472434591    14.003074004430
         C           -0.871357098256    -0.040918889033    -0.166837434591    12.000000000000
         C            1.470527901744     0.777026110967     1.804189565409    12.000000000000
         C            1.970218901744     1.685570110967    -0.426895434591    12.000000000000
         C           -3.009278398256     0.015988610967     0.431648765409    12.000000000000
         C           -2.638250098256     1.150464110967    -0.267824434591    12.000000000000
         H            1.358253901744    -0.158835889033     2.350604565409     1.007825032230
         H            0.572316901744     1.398133110967     1.927801565409     1.007825032230
         H            2.333254901744     1.315332110967     2.202559565409     1.007825032230
         H            2.180680901744     1.381389110967    -1.450723434591     1.007825032230
         H            2.845889901744     2.195516110967    -0.018808434591     1.007825032230
         H            1.104278901744     2.357264110967    -0.410520434591     1.007825032230
         H           -1.690964098256    -1.645104889033     0.924723565409     1.007825032230
         H           -3.916368098256    -0.325155889033     0.867682565409     1.007825032230
         H           -3.270819098256     1.990346110967    -0.522063434591     1.007825032230

  Running in c1 symmetry.

  Rotational constants: A =      0.05349  B =      0.02730  C =      0.02495 [cm^-1]
  Rotational constants: A =   1603.63867  B =    818.28909  C =    747.90220 [MHz]
  Nuclear repulsion =  796.895036603124822

  Charge       = 0
  Multiplicity = 1
  Electrons    = 92
  Nalpha       = 46
  Nbeta        = 46

  ==> Algorithm <==

  SCF Algorithm Type is DF.
  DIIS enabled.
  MOM disabled.
  Fractional occupation disabled.
  Guess Type is SAD.
  Energy threshold   = 1.00e-10
  Density threshold  = 1.00e-10
  Integral threshold = 0.00e+00

  ==> Primary Basis <==

  Basis Set: AUG-CC-PVTZ
    Blend: AUG-CC-PVTZ
    Number of shells: 237
    Number of basis function: 717
    Number of Cartesian functions: 834
    Spherical Harmonics?: true
    Max angular momentum: 3

   => Loading Basis Set <=

    Name: (AUG-CC-PVTZ AUX)
    Role: JKFIT
    Keyword: DF_BASIS_SCF
    atoms 1     entry S          line   730 file /home/xy3866/psi4conda/share/psi4/basis/aug-cc-pvtz-jkfit.gbs 
    atoms 2-3   entry O          line   286 file /home/xy3866/psi4conda/share/psi4/basis/aug-cc-pvtz-jkfit.gbs 
    atoms 4-6   entry N          line   224 file /home/xy3866/psi4conda/share/psi4/basis/aug-cc-pvtz-jkfit.gbs 
    atoms 7-11  entry C          line   162 file /home/xy3866/psi4conda/share/psi4/basis/aug-cc-pvtz-jkfit.gbs 
    atoms 12-20 entry H          line    70 file /home/xy3866/psi4conda/share/psi4/basis/aug-cc-pvtz-jkfit.gbs 

  ==> Pre-Iterations <==

   -------------------------------------------------------
    Irrep   Nso     Nmo     Nalpha   Nbeta   Ndocc  Nsocc
   -------------------------------------------------------
     A        717     717       0       0       0       0
   -------------------------------------------------------
    Total     717     717      46      46      46       0
   -------------------------------------------------------

  ==> Integral Setup <==

  DFHelper Memory: AOs need 5.951 GiB; user supplied 22.352 GiB. Using in-core AOs.

  ==> MemDFJK: Density-Fitted J/K Matrices <==

    J tasked:                   Yes
    K tasked:                   Yes
    wK tasked:                   No
    OpenMP threads:               8
    Memory [MiB]:             22888
    Algorithm:                 Disk
    Schwarz Cutoff:           1E-12
    Mask sparsity (%):       5.3960
    Fitting Condition:        1E-10

   => Auxiliary Basis Set <=

  Basis Set: (AUG-CC-PVTZ AUX)
    Blend: AUG-CC-PVTZ-JKFIT
    Number of shells: 468
    Number of basis function: 1600
    Number of Cartesian functions: 1985
    Spherical Harmonics?: true
    Max angular momentum: 4

  Minimum eigenvalue in the overlap matrix is 3.2096992891E-06.
  Using Symmetric Orthogonalization.

  SCF Guess: Superposition of Atomic Densities via on-the-fly atomic UHF.

  ==> Iterations <==

                           Total Energy        Delta E     RMS |[F,P]|

   @DF-RHF iter SAD:  -905.39999131345394   -9.05400e+02   0.00000e+00 
   @DF-RHF iter   1:  -904.91510372473977    4.84888e-01   1.27175e-03 DIIS
   @DF-RHF iter   2:  -905.14723616631670   -2.32132e-01   9.01002e-04 DIIS
   @DF-RHF iter   3:  -905.29800490209118   -1.50769e-01   1.45724e-04 DIIS
   @DF-RHF iter   4:  -905.30379212434354   -5.78722e-03   5.38749e-05 DIIS
   @DF-RHF iter   5:  -905.30465065256317   -8.58528e-04   1.11530e-05 DIIS
   @DF-RHF iter   6:  -905.30470066331918   -5.00108e-05   3.98209e-06 DIIS
   @DF-RHF iter   7:  -905.30470917657078   -8.51325e-06   1.55980e-06 DIIS
   @DF-RHF iter   8:  -905.30471090022638   -1.72366e-06   7.54418e-07 DIIS
   @DF-RHF iter   9:  -905.30471131548165   -4.15255e-07   3.33711e-07 DIIS
   @DF-RHF iter  10:  -905.30471141344185   -9.79602e-08   1.22925e-07 DIIS
   @DF-RHF iter  11:  -905.30471142837223   -1.49304e-08   5.36093e-08 DIIS
   @DF-RHF iter  12:  -905.30471143092848   -2.55625e-09   2.20828e-08 DIIS
   @DF-RHF iter  13:  -905.30471143140312   -4.74643e-10   8.59014e-09 DIIS
   @DF-RHF iter  14:  -905.30471143143836   -3.52429e-11   3.05375e-09 DIIS
   @DF-RHF iter  15:  -905.30471143144200   -3.63798e-12   1.41833e-09 DIIS
   @DF-RHF iter  16:  -905.30471143144769   -5.68434e-12   6.08054e-10 DIIS
   @DF-RHF iter  17:  -905.30471143144723    4.54747e-13   2.58722e-10 DIIS
   @DF-RHF iter  18:  -905.30471143145053   -3.29692e-12   1.09507e-10 DIIS
   @DF-RHF iter  19:  -905.30471143144473    5.79803e-12   4.03181e-11 DIIS
  Energy and wave function converged.


  ==> Post-Iterations <==

    Orbital Energies [Eh]
    ---------------------

    Doubly Occupied:                                                      

       1A    -92.216376     2A    -20.558812     3A    -20.556501  
       4A    -15.653922     5A    -15.611835     6A    -15.586158  
       7A    -11.339412     8A    -11.293117     9A    -11.275532  
      10A    -11.275182    11A    -11.266411    12A     -9.180912  
      13A     -6.866135    14A     -6.865722    15A     -6.865299  
      16A     -1.464738    17A     -1.365118    18A     -1.345722  
      19A     -1.258424    20A     -1.195624    21A     -1.050164  
      22A     -0.982026    23A     -0.960844    24A     -0.877851  
      25A     -0.838812    26A     -0.816985    27A     -0.753030  
      28A     -0.710735    29A     -0.675757    30A     -0.668834  
      31A     -0.641709    32A     -0.637043    33A     -0.623371  
      34A     -0.615167    35A     -0.607795    36A     -0.577421  
      37A     -0.571344    38A     -0.542244    39A     -0.514440  
      40A     -0.508090    41A     -0.486096    42A     -0.480346  
      43A     -0.471782    44A     -0.427435    45A     -0.418422  
      46A     -0.347590  

    Virtual:                                                              

      47A      0.020127    48A      0.029247    49A      0.032852  
      50A      0.042796    51A      0.047646    52A      0.051134  
      53A      0.059660    54A      0.065572    55A      0.067383  
      56A      0.082152    57A      0.085330    58A      0.093800  
      59A      0.098508    60A      0.102393    61A      0.108069  
      62A      0.112589    63A      0.114662    64A      0.116712  
      65A      0.124540    66A      0.126418    67A      0.128000  
      68A      0.129741    69A      0.136443    70A      0.144801  
      71A      0.146772    72A      0.150073    73A      0.151326  
      74A      0.162452    75A      0.168152    76A      0.172126  
      77A      0.178034    78A      0.179443    79A      0.185160  
      80A      0.192289    81A      0.197567    82A      0.210199  
      83A      0.211597    84A      0.223134    85A      0.225227  
      86A      0.233321    87A      0.238506    88A      0.239922  
      89A      0.241615    90A      0.249855    91A      0.253722  
      92A      0.260483    93A      0.264261    94A      0.273060  
      95A      0.275938    96A      0.284696    97A      0.286985  
      98A      0.292712    99A      0.299728   100A      0.301159  
     101A      0.302169   102A      0.303739   103A      0.310359  
     104A      0.314031   105A      0.317319   106A      0.326905  
     107A      0.328703   108A      0.332667   109A      0.337257  
     110A      0.341417   111A      0.345590   112A      0.349191  
     113A      0.355665   114A      0.358790   115A      0.360936  
     116A      0.365183   117A      0.367538   118A      0.369671  
     119A      0.377749   120A      0.383741   121A      0.384978  
     122A      0.395972   123A      0.398835   124A      0.401164  
     125A      0.405051   126A      0.409439   127A      0.414913  
     128A      0.419158   129A      0.428071   130A      0.432999  
     131A      0.438450   132A      0.443463   133A      0.450122  
     134A      0.455008   135A      0.463224   136A      0.464049  
     137A      0.466612   138A      0.470319   139A      0.471075  
     140A      0.478188   141A      0.481308   142A      0.484441  
     143A      0.489356   144A      0.496274   145A      0.503258  
     146A      0.508095   147A      0.512607   148A      0.517469  
     149A      0.520144   150A      0.525311   151A      0.530609  
     152A      0.538665   153A      0.543450   154A      0.544491  
     155A      0.549044   156A      0.561426   157A      0.563423  
     158A      0.571259   159A      0.573376   160A      0.574848  
     161A      0.579854   162A      0.585007   163A      0.588702  
     164A      0.597641   165A      0.599468   166A      0.606416  
     167A      0.611127   168A      0.617343   169A      0.623519  
     170A      0.636604   171A      0.639074   172A      0.647117  
     173A      0.655247   174A      0.661204   175A      0.667245  
     176A      0.678037   177A      0.686256   178A      0.689104  
     179A      0.698302   180A      0.711465   181A      0.720537  
     182A      0.726835   183A      0.731689   184A      0.739309  
     185A      0.741448   186A      0.751721   187A      0.768684  
     188A      0.770052   189A      0.777074   190A      0.784299  
     191A      0.792384   192A      0.794216   193A      0.798203  
     194A      0.807587   195A      0.814957   196A      0.819683  
     197A      0.824288   198A      0.830745   199A      0.837303  
     200A      0.846788   201A      0.851980   202A      0.857507  
     203A      0.867163   204A      0.876865   205A      0.881315  
     206A      0.882503   207A      0.888040   208A      0.894689  
     209A      0.897369   210A      0.904949   211A      0.906853  
     212A      0.917003   213A      0.923180   214A      0.929120  
     215A      0.934103   216A      0.941800   217A      0.945350  
     218A      0.950948   219A      0.957391   220A      0.960811  
     221A      0.972506   222A      0.976695   223A      0.983548  
     224A      0.986245   225A      0.992547   226A      0.999315  
     227A      1.004730   228A      1.012757   229A      1.020171  
     230A      1.025159   231A      1.028681   232A      1.033730  
     233A      1.043790   234A      1.047140   235A      1.056561  
     236A      1.061119   237A      1.065852   238A      1.070798  
     239A      1.073780   240A      1.085106   241A      1.096866  
     242A      1.101292   243A      1.105471   244A      1.110009  
     245A      1.118937   246A      1.123078   247A      1.126272  
     248A      1.128440   249A      1.132446   250A      1.136208  
     251A      1.140458   252A      1.143444   253A      1.149722  
     254A      1.165443   255A      1.168556   256A      1.177746  
     257A      1.182416   258A      1.187241   259A      1.190711  
     260A      1.198239   261A      1.200294   262A      1.204951  
     263A      1.210505   264A      1.218258   265A      1.228782  
     266A      1.231421   267A      1.237814   268A      1.243124  
     269A      1.256648   270A      1.264593   271A      1.269808  
     272A      1.273935   273A      1.282197   274A      1.289159  
     275A      1.298086   276A      1.306381   277A      1.319248  
     278A      1.328246   279A      1.333428   280A      1.341524  
     281A      1.354980   282A      1.361244   283A      1.369182  
     284A      1.376704   285A      1.381436   286A      1.389283  
     287A      1.394377   288A      1.401288   289A      1.408764  
     290A      1.415915   291A      1.421353   292A      1.430063  
     293A      1.435097   294A      1.438180   295A      1.440930  
     296A      1.449249   297A      1.464127   298A      1.471566  
     299A      1.484874   300A      1.489194   301A      1.491484  
     302A      1.501851   303A      1.503617   304A      1.522208  
     305A      1.529271   306A      1.532582   307A      1.540718  
     308A      1.542381   309A      1.554489   310A      1.563343  
     311A      1.571543   312A      1.577670   313A      1.580367  
     314A      1.592371   315A      1.600261   316A      1.604339  
     317A      1.609321   318A      1.616066   319A      1.625063  
     320A      1.635507   321A      1.652013   322A      1.654177  
     323A      1.669449   324A      1.671704   325A      1.676525  
     326A      1.684898   327A      1.689950   328A      1.697312  
     329A      1.709623   330A      1.712285   331A      1.723177  
     332A      1.734236   333A      1.744072   334A      1.751575  
     335A      1.759615   336A      1.763984   337A      1.780133  
     338A      1.789688   339A      1.795897   340A      1.799166  
     341A      1.803750   342A      1.810471   343A      1.814360  
     344A      1.830155   345A      1.841917   346A      1.843351  
     347A      1.853910   348A      1.866727   349A      1.877558  
     350A      1.882761   351A      1.890254   352A      1.897667  
     353A      1.902940   354A      1.926631   355A      1.930643  
     356A      1.939790   357A      1.959117   358A      1.961006  
     359A      1.966405   360A      1.981883   361A      1.997131  
     362A      2.002811   363A      2.017648   364A      2.028020  
     365A      2.037864   366A      2.050211   367A      2.054797  
     368A      2.075167   369A      2.076780   370A      2.088977  
     371A      2.093837   372A      2.101073   373A      2.110908  
     374A      2.128458   375A      2.134153   376A      2.145836  
     377A      2.153283   378A      2.166068   379A      2.176404  
     380A      2.178659   381A      2.187622   382A      2.193495  
     383A      2.201887   384A      2.215966   385A      2.220567  
     386A      2.229987   387A      2.245766   388A      2.258168  
     389A      2.261898   390A      2.268822   391A      2.285041  
     392A      2.289422   393A      2.304849   394A      2.316609  
     395A      2.326523   396A      2.334159   397A      2.341540  
     398A      2.353254   399A      2.364536   400A      2.375776  
     401A      2.378134   402A      2.400107   403A      2.404569  
     404A      2.413025   405A      2.426538   406A      2.434246  
     407A      2.439213   408A      2.461024   409A      2.473470  
     410A      2.489632   411A      2.497306   412A      2.501104  
     413A      2.522524   414A      2.540913   415A      2.547247  
     416A      2.561435   417A      2.570441   418A      2.577436  
     419A      2.582574   420A      2.604254   421A      2.606127  
     422A      2.618588   423A      2.621679   424A      2.634043  
     425A      2.641831   426A      2.656864   427A      2.665476  
     428A      2.679788   429A      2.684966   430A      2.697075  
     431A      2.722846   432A      2.731791   433A      2.744525  
     434A      2.755134   435A      2.766313   436A      2.782288  
     437A      2.793880   438A      2.812122   439A      2.818098  
     440A      2.839159   441A      2.857074   442A      2.869456  
     443A      2.888670   444A      2.894398   445A      2.911086  
     446A      2.927592   447A      2.952235   448A      2.963856  
     449A      2.978728   450A      2.994800   451A      3.023270  
     452A      3.028019   453A      3.034221   454A      3.053746  
     455A      3.056769   456A      3.078861   457A      3.114843  
     458A      3.127539   459A      3.150421   460A      3.159752  
     461A      3.198893   462A      3.233983   463A      3.246275  
     464A      3.258626   465A      3.285381   466A      3.294551  
     467A      3.321541   468A      3.336199   469A      3.365661  
     470A      3.372650   471A      3.409082   472A      3.419455  
     473A      3.434722   474A      3.446870   475A      3.463100  
     476A      3.471955   477A      3.507362   478A      3.513009  
     479A      3.534408   480A      3.536589   481A      3.552203  
     482A      3.579497   483A      3.590079   484A      3.597298  
     485A      3.601712   486A      3.618489   487A      3.629668  
     488A      3.636619   489A      3.653872   490A      3.661045  
     491A      3.682303   492A      3.685600   493A      3.706289  
     494A      3.723160   495A      3.730189   496A      3.744764  
     497A      3.754950   498A      3.759958   499A      3.779474  
     500A      3.787459   501A      3.792933   502A      3.804560  
     503A      3.812359   504A      3.822200   505A      3.827561  
     506A      3.841770   507A      3.849880   508A      3.865227  
     509A      3.874080   510A      3.879860   511A      3.884775  
     512A      3.902635   513A      3.917264   514A      3.939963  
     515A      3.942804   516A      3.951610   517A      3.968210  
     518A      3.975263   519A      3.983489   520A      4.003246  
     521A      4.012595   522A      4.018505   523A      4.025485  
     524A      4.035182   525A      4.045508   526A      4.056617  
     527A      4.074275   528A      4.082590   529A      4.100928  
     530A      4.108234   531A      4.126900   532A      4.140882  
     533A      4.156877   534A      4.164671   535A      4.176544  
     536A      4.190811   537A      4.196338   538A      4.205907  
     539A      4.228311   540A      4.242841   541A      4.256732  
     542A      4.261150   543A      4.273197   544A      4.281392  
     545A      4.289451   546A      4.297278   547A      4.328236  
     548A      4.336908   549A      4.348827   550A      4.365115  
     551A      4.371641   552A      4.394642   553A      4.406112  
     554A      4.420744   555A      4.430212   556A      4.438412  
     557A      4.470973   558A      4.473775   559A      4.486660  
     560A      4.505487   561A      4.522091   562A      4.538421  
     563A      4.555080   564A      4.560433   565A      4.570561  
     566A      4.578341   567A      4.607594   568A      4.621765  
     569A      4.637532   570A      4.657546   571A      4.666117  
     572A      4.696186   573A      4.701858   574A      4.720769  
     575A      4.779008   576A      4.787774   577A      4.795468  
     578A      4.818006   579A      4.845888   580A      4.850067  
     581A      4.860951   582A      4.888275   583A      4.920929  
     584A      4.932502   585A      4.937511   586A      4.949945  
     587A      4.957075   588A      4.975167   589A      4.998890  
     590A      5.005330   591A      5.039808   592A      5.051983  
     593A      5.055770   594A      5.069680   595A      5.090920  
     596A      5.097152   597A      5.101625   598A      5.119910  
     599A      5.122451   600A      5.131332   601A      5.143289  
     602A      5.204538   603A      5.220034   604A      5.235738  
     605A      5.250561   606A      5.261009   607A      5.277513  
     608A      5.294250   609A      5.326640   610A      5.350917  
     611A      5.358435   612A      5.367887   613A      5.385830  
     614A      5.404735   615A      5.431204   616A      5.448000  
     617A      5.458236   618A      5.462893   619A      5.517249  
     620A      5.521326   621A      5.564177   622A      5.581732  
     623A      5.586453   624A      5.618338   625A      5.628126  
     626A      5.636955   627A      5.650589   628A      5.657938  
     629A      5.698097   630A      5.708435   631A      5.727002  
     632A      5.737551   633A      5.747480   634A      5.769846  
     635A      5.781939   636A      5.798396   637A      5.804940  
     638A      5.851189   639A      5.875420   640A      5.885086  
     641A      5.904484   642A      5.915091   643A      5.935827  
     644A      5.942941   645A      5.948346   646A      5.976442  
     647A      6.032350   648A      6.072379   649A      6.080022  
     650A      6.096127   651A      6.109111   652A      6.146869  
     653A      6.155051   654A      6.165341   655A      6.179015  
     656A      6.184912   657A      6.199192   658A      6.234568  
     659A      6.293915   660A      6.300574   661A      6.330009  
     662A      6.375659   663A      6.440643   664A      6.482715  
     665A      6.546281   666A      6.611059   667A      6.621506  
     668A      6.641380   669A      6.716070   670A      6.723987  
     671A      6.744924   672A      6.752614   673A      6.779749  
     674A      6.795067   675A      6.800134   676A      6.836019  
     677A      6.841488   678A      6.854096   679A      6.889325  
     680A      6.901423   681A      6.910781   682A      6.923869  
     683A      6.952734   684A      6.967608   685A      6.983332  
     686A      6.989485   687A      7.003043   688A      7.028384  
     689A      7.077335   690A      7.097227   691A      7.106154  
     692A      7.140745   693A      7.147502   694A      7.161645  
     695A      7.312295   696A      7.342304   697A      7.368426  
     698A      7.400399   699A      7.486381   700A      7.651172  
     701A      7.721311   702A      7.769022   703A      7.804845  
     704A      7.817760   705A      7.847254   706A      7.885589  
     707A     13.278088   708A     13.579496   709A     14.311233  
     710A     15.920981   711A     16.332955   712A     16.574846  
     713A     18.044687   714A     18.300878   715A     18.669087  
     716A     18.901946   717A     19.083337  

    Final Occupation by Irrep:
              A 
    DOCC [    46 ]

  @DF-RHF Final Energy:  -905.30471143144473

   => Energetics <=

    Nuclear Repulsion Energy =            796.8950366031248222
    One-Electron Energy =               -2824.7069269930898372
    Two-Electron Energy =                1122.5071789585201714
    Total Energy =                       -905.3047114314447299

Computation Completed

*** tstop() called on node57.bme.utexas.edu at Wed Feb  3 06:48:17 2021
Module time:
	user time   =     443.06 seconds =       7.38 minutes
	system time =      55.62 seconds =       0.93 minutes
	total time  =        110 seconds =       1.83 minutes
Total time:
	user time   =     443.06 seconds =       7.38 minutes
	system time =      55.62 seconds =       0.93 minutes
	total time  =        110 seconds =       1.83 minutes
   => Loading Basis Set <=

    Name: (AUG-CC-PVTZ AUX)
    Role: RIFIT
    Keyword: DF_BASIS_MP2
    atoms 1     entry S          line   666 file /home/xy3866/psi4conda/share/psi4/basis/aug-cc-pvtz-ri.gbs 
    atoms 2-3   entry O          line   264 file /home/xy3866/psi4conda/share/psi4/basis/aug-cc-pvtz-ri.gbs 
    atoms 4-6   entry N          line   206 file /home/xy3866/psi4conda/share/psi4/basis/aug-cc-pvtz-ri.gbs 
    atoms 7-11  entry C          line   148 file /home/xy3866/psi4conda/share/psi4/basis/aug-cc-pvtz-ri.gbs 
    atoms 12-20 entry H          line    30 file /home/xy3866/psi4conda/share/psi4/basis/aug-cc-pvtz-ri.gbs 


*** tstart() called on node57.bme.utexas.edu
*** at Wed Feb  3 06:48:17 2021


  //>>>>>>>>>>>>>>>>>>>>>>>>>>>>>>>>>>>//
  //               DFMP2               //
  //<<<<<<<<<<<<<<<<<<<<<<<<<<<<<<<<<<<//

	 --------------------------------------------------------
	                          DF-MP2                         
	      2nd-Order Density-Fitted Moller-Plesset Theory     
	              RMP2 Wavefunction,   8 Threads             
	                                                         
	        Rob Parrish, Justin Turney, Andy Simmonett,      
	           Ed Hohenstein, and C. David Sherrill          
	 --------------------------------------------------------

   => Auxiliary Basis Set <=

  Basis Set: (AUG-CC-PVTZ AUX)
    Blend: AUG-CC-PVTZ-RI
    Number of shells: 443
    Number of basis function: 1621
    Number of Cartesian functions: 2046
    Spherical Harmonics?: true
    Max angular momentum: 4

	 --------------------------------------------------------
	                 NBF =   717, NAUX =  1621
	 --------------------------------------------------------
	   CLASS    FOCC     OCC    AOCC    AVIR     VIR    FVIR
	   PAIRS       0      46      46     671     671       0
	 --------------------------------------------------------

  DFHelper Memory: AOs need 5.951 GiB; user supplied 22.352 GiB. Using in-core AOs.


         ------------------------------------------------------------
                                     CPHF                           
                                  Rob Parrish                       
         ------------------------------------------------------------

  ==> Geometry <==

    Molecular point group: c1
    Full point group: C1

    Geometry (in Angstrom), charge = 0, multiplicity = 1:

       Center              X                  Y                   Z               Mass       
    ------------   -----------------  -----------------  -----------------  -----------------
         S            0.773628901744    -0.676980889033    -0.280851434591    31.972071174400
         O            0.752730901744    -1.828946889033     0.629217565409    15.994914619570
         O            1.148926901744    -0.804546889033    -1.683705434591    15.994914619570
         N            1.746489901744     0.485372110967     0.394051565409    14.003074004430
         N           -1.839143098256    -0.738580889033     0.490886565409    14.003074004430
         N           -1.317187098256     1.119730110967    -0.639472434591    14.003074004430
         C           -0.871357098256    -0.040918889033    -0.166837434591    12.000000000000
         C            1.470527901744     0.777026110967     1.804189565409    12.000000000000
         C            1.970218901744     1.685570110967    -0.426895434591    12.000000000000
         C           -3.009278398256     0.015988610967     0.431648765409    12.000000000000
         C           -2.638250098256     1.150464110967    -0.267824434591    12.000000000000
         H            1.358253901744    -0.158835889033     2.350604565409     1.007825032230
         H            0.572316901744     1.398133110967     1.927801565409     1.007825032230
         H            2.333254901744     1.315332110967     2.202559565409     1.007825032230
         H            2.180680901744     1.381389110967    -1.450723434591     1.007825032230
         H            2.845889901744     2.195516110967    -0.018808434591     1.007825032230
         H            1.104278901744     2.357264110967    -0.410520434591     1.007825032230
         H           -1.690964098256    -1.645104889033     0.924723565409     1.007825032230
         H           -3.916368098256    -0.325155889033     0.867682565409     1.007825032230
         H           -3.270819098256     1.990346110967    -0.522063434591     1.007825032230

  Nuclear repulsion =  796.895036603124822
  Reference energy  = -905.304711431444730

  ==> Basis Set <==

  Basis Set: AUG-CC-PVTZ
    Blend: AUG-CC-PVTZ
    Number of shells: 237
    Number of basis function: 717
    Number of Cartesian functions: 834
    Spherical Harmonics?: true
    Max angular momentum: 3

  ==> CGRSolver (by Rob Parrish) <==

   Number of roots    =         1
   Preconditioning    =    JACOBI
   Convergence cutoff =     1E-06
   Maximum iterations =       100

  ==> CPHFRHamiltonian (by Rob Parrish) <== 

  ==> MemDFJK: Density-Fitted J/K Matrices <==

    J tasked:                   Yes
    K tasked:                   Yes
    wK tasked:                   No
    OpenMP threads:               8
    Memory [MiB]:             22888
    Algorithm:                 Disk
    Schwarz Cutoff:           1E-12
    Mask sparsity (%):       5.3960
    Fitting Condition:        1E-10

   => Auxiliary Basis Set <=

  Basis Set: (AUG-CC-PVTZ AUX)
    Blend: AUG-CC-PVTZ-JKFIT
    Number of shells: 468
    Number of basis function: 1600
    Number of Cartesian functions: 1985
    Spherical Harmonics?: true
    Max angular momentum: 4

  ==> CPHF Iterations <==

  => Iterations <=

             Iter  Converged  Remaining    Residual
  CGR           1          0          1   1.192E-01
  CGR           2          0          1   3.622E-02
  CGR           3          0          1   1.674E-02
  CGR           4          0          1   6.000E-03
  CGR           5          0          1   2.380E-03
  CGR           6          0          1   1.106E-03
  CGR           7          0          1   4.007E-04
  CGR           8          0          1   1.464E-04
  CGR           9          0          1   4.755E-05
  CGR          10          0          1   2.188E-05
  CGR          11          0          1   9.239E-06
  CGR          12          0          1   3.301E-06
  CGR          13          0          1   1.416E-06
  CGR          14          1          0   4.541E-07

    CGRSolver converged.

	-----------------------------------------------------------
	 ==================> DF-MP2 Energies <==================== 
	-----------------------------------------------------------
	 Reference Energy          =    -905.3047114314447299 [Eh]
	 Singles Energy            =      -0.0000000000000000 [Eh]
	 Same-Spin Energy          =      -0.5973900697553951 [Eh]
	 Opposite-Spin Energy      =      -1.7757781397169696 [Eh]
	 Correlation Energy        =      -2.3731682094723645 [Eh]
	 Total Energy              =    -907.6778796409171264 [Eh]
	-----------------------------------------------------------
	 ================> DF-SCS-MP2 Energies <================== 
	-----------------------------------------------------------
	 SCS Same-Spin Scale       =       0.3333333333333333 [-]
	 SCS Opposite-Spin Scale   =       1.2000000000000000 [-]
	 SCS Same-Spin Energy      =      -0.1991300232517983 [Eh]
	 SCS Opposite-Spin Energy  =      -2.1309337676603635 [Eh]
	 SCS Correlation Energy    =      -2.3300637909121620 [Eh]
	 SCS Total Energy          =    -907.6347752223568932 [Eh]
	-----------------------------------------------------------



Properties will be evaluated at   0.000000,  -0.000000,   0.000000 [a0]

Properties computed using the MP2 density matrix

  Nuclear Dipole Moment: [e a0]
     X:     1.4553      Y:     7.9438      Z:     5.4909

  Electronic Dipole Moment: [e a0]
     X:    -2.5054      Y:    -7.1932      Z:    -4.0896

  Dipole Moment: [e a0]
     X:    -1.0500      Y:     0.7506      Z:     1.4014     Total:     1.9052

  Dipole Moment: [D]
     X:    -2.6689      Y:     1.9079      Z:     3.5619     Total:     4.8425


*** tstop() called on node57.bme.utexas.edu at Wed Feb  3 06:52:47 2021
Module time:
	user time   =    1501.13 seconds =      25.02 minutes
	system time =      97.37 seconds =       1.62 minutes
	total time  =        270 seconds =       4.50 minutes
Total time:
	user time   =    1944.37 seconds =      32.41 minutes
	system time =     152.99 seconds =       2.55 minutes
	total time  =        380 seconds =       6.33 minutes

    Psi4 stopped on: Wednesday, 03 February 2021 06:52AM
    Psi4 wall time for execution: 0:06:20.53

*** Psi4 exiting successfully. Buy a developer a beer!
