61171                                                                   
Freq      RMP2-FC                                                     6-31G(d)            
Number of atoms                            I               14
Info1-9                                    I   N=           9
          26          24        1002           0           0         100
           6           2           1
Charge                                     I                0
Multiplicity                               I                1
Number of electrons                        I               56
Number of alpha electrons                  I               28
Number of beta electrons                   I               28
Number of basis functions                  I              110
Number of independent functions            I              110
Number of point charges in /Mol/           I                0
Number of translation vectors              I                0
Atomic numbers                             I   N=          14
          16           8           6           6           6           6
           1           1           1           1           1           1
           1           1
Nuclear charges                            R   N=          14
  1.60000000E+01  8.00000000E+00  6.00000000E+00  6.00000000E+00  6.00000000E+00
  6.00000000E+00  1.00000000E+00  1.00000000E+00  1.00000000E+00  1.00000000E+00
  1.00000000E+00  1.00000000E+00  1.00000000E+00  1.00000000E+00
Current cartesian coordinates              R   N=          42
  3.80102860E-01 -1.46273422E+00 -2.37329733E-02 -2.28547081E+00  2.77084332E+00
 -3.48198464E-02  2.74728055E+00  1.02283734E+00  6.70811716E-02  5.38157728E+00
 -1.35530385E-01 -1.28301100E-02 -2.38170437E+00  4.60525323E-01 -3.74411592E-02
 -4.83368181E+00 -1.00102174E+00  3.13161372E-02  2.42404421E+00  2.27445704E+00
 -1.54084387E+00  2.46287029E+00  2.12951495E+00  1.78542402E+00  5.70582600E+00
 -1.38224689E+00  1.60132003E+00  5.66955962E+00 -1.22605660E+00 -1.74262053E+00
  6.79946473E+00  1.36659712E+00  4.28543320E-02 -5.43170419E+00 -1.20348757E+00
  2.00034442E+00 -4.63929575E+00 -2.88164322E+00 -7.95234550E-01 -6.26947410E+00
  7.90029780E-02 -9.81713740E-01
Force Field                                I                0
Int Atom Types                             I   N=          14
           0           0           0           0           0           0
           0           0           0           0           0           0
           0           0
MM charges                                 R   N=          14
  0.00000000E+00  0.00000000E+00  0.00000000E+00  0.00000000E+00  0.00000000E+00
  0.00000000E+00  0.00000000E+00  0.00000000E+00  0.00000000E+00  0.00000000E+00
  0.00000000E+00  0.00000000E+00  0.00000000E+00  0.00000000E+00
Integer atomic weights                     I   N=          14
          32          16          12          12          12          12
           1           1           1           1           1           1
           1           1
Real atomic weights                        R   N=          14
  3.19720718E+01  1.59949146E+01  1.20000000E+01  1.20000000E+01  1.20000000E+01
  1.20000000E+01  1.00782504E+00  1.00782504E+00  1.00782504E+00  1.00782504E+00
  1.00782504E+00  1.00782504E+00  1.00782504E+00  1.00782504E+00
Atom fragment info                         I   N=          14
           0           0           0           0           0           0
           0           0           0           0           0           0
           0           0
Atom residue num                           I   N=          14
           0           0           0           0           0           0
           0           0           0           0           0           0
           0           0
Nuclear spins                              I   N=          14
           0           0           0           0           0           0
           1           1           1           1           1           1
           1           1
Nuclear ZEff                               R   N=          14
 -1.36000000E+01 -5.60000000E+00 -3.60000000E+00 -3.60000000E+00 -3.60000000E+00
 -3.60000000E+00 -1.00000000E+00 -1.00000000E+00 -1.00000000E+00 -1.00000000E+00
 -1.00000000E+00 -1.00000000E+00 -1.00000000E+00 -1.00000000E+00
Nuclear QMom                               R   N=          14
  0.00000000E+00  0.00000000E+00  0.00000000E+00  0.00000000E+00  0.00000000E+00
  0.00000000E+00  0.00000000E+00  0.00000000E+00  0.00000000E+00  0.00000000E+00
  0.00000000E+00  0.00000000E+00  0.00000000E+00  0.00000000E+00
Nuclear GFac                               R   N=          14
  0.00000000E+00  0.00000000E+00  0.00000000E+00  0.00000000E+00  0.00000000E+00
  0.00000000E+00  2.79284600E+00  2.79284600E+00  2.79284600E+00  2.79284600E+00
  2.79284600E+00  2.79284600E+00  2.79284600E+00  2.79284600E+00
MicOpt                                     I   N=          14
          -1          -1          -1          -1          -1          -1
          -1          -1          -1          -1          -1          -1
          -1          -1
Number of contracted shells                I               41
Number of primitive shells                 I              104
Pure/Cartesian d shells                    I                1
Pure/Cartesian f shells                    I                0
Highest angular momentum                   I                2
Largest degree of contraction              I                6
Shell types                                I   N=          41
           0          -1          -1          -1           2           0
          -1          -1           2           0          -1          -1
           2           0          -1          -1           2           0
          -1          -1           2           0          -1          -1
           2           0           0           0           0           0
           0           0           0           0           0           0
           0           0           0           0           0
Number of primitives per shell             I   N=          41
           6           6           3           1           1           6
           3           1           1           6           3           1
           1           6           3           1           1           6
           3           1           1           6           3           1
           1           3           1           3           1           3
           1           3           1           3           1           3
           1           3           1           3           1
Shell to atom map                          I   N=          41
           1           1           1           1           1           2
           2           2           2           3           3           3
           3           4           4           4           4           5
           5           5           5           6           6           6
           6           7           7           8           8           9
           9          10          10          11          11          12
          12          13          13          14          14
Primitive exponents                        R   N=         104
  2.19171000E+04  3.30149000E+03  7.54146000E+02  2.12711000E+02  6.79896000E+01
  2.30515000E+01  4.23735000E+02  1.00710000E+02  3.21599000E+01  1.18079000E+01
  4.63110000E+00  1.87025000E+00  2.61584000E+00  9.22167000E-01  3.41287000E-01
  1.17167000E-01  6.50000000E-01  5.48467166E+03  8.25234946E+02  1.88046958E+02
  5.29645000E+01  1.68975704E+01  5.79963534E+00  1.55396162E+01  3.59993359E+00
  1.01376175E+00  2.70005823E-01  8.00000000E-01  3.04752488E+03  4.57369518E+02
  1.03948685E+02  2.92101553E+01  9.28666296E+00  3.16392696E+00  7.86827235E+00
  1.88128854E+00  5.44249258E-01  1.68714478E-01  8.00000000E-01  3.04752488E+03
  4.57369518E+02  1.03948685E+02  2.92101553E+01  9.28666296E+00  3.16392696E+00
  7.86827235E+00  1.88128854E+00  5.44249258E-01  1.68714478E-01  8.00000000E-01
  3.04752488E+03  4.57369518E+02  1.03948685E+02  2.92101553E+01  9.28666296E+00
  3.16392696E+00  7.86827235E+00  1.88128854E+00  5.44249258E-01  1.68714478E-01
  8.00000000E-01  3.04752488E+03  4.57369518E+02  1.03948685E+02  2.92101553E+01
  9.28666296E+00  3.16392696E+00  7.86827235E+00  1.88128854E+00  5.44249258E-01
  1.68714478E-01  8.00000000E-01  1.87311370E+01  2.82539436E+00  6.40121692E-01
  1.61277759E-01  1.87311370E+01  2.82539436E+00  6.40121692E-01  1.61277759E-01
  1.87311370E+01  2.82539436E+00  6.40121692E-01  1.61277759E-01  1.87311370E+01
  2.82539436E+00  6.40121692E-01  1.61277759E-01  1.87311370E+01  2.82539436E+00
  6.40121692E-01  1.61277759E-01  1.87311370E+01  2.82539436E+00  6.40121692E-01
  1.61277759E-01  1.87311370E+01  2.82539436E+00  6.40121692E-01  1.61277759E-01
  1.87311370E+01  2.82539436E+00  6.40121692E-01  1.61277759E-01
Contraction coefficients                   R   N=         104
  1.86924085E-03  1.42303065E-02  6.96962317E-02  2.38487108E-01  4.83307220E-01
  3.38074154E-01 -2.37677050E-03 -3.16930067E-02 -1.13317024E-01  5.60900118E-02
  5.92255124E-01  4.55006095E-01 -2.50373114E-01  6.69567631E-02  1.05450627E+00
  1.00000000E+00  1.00000000E+00  1.83107443E-03  1.39501722E-02  6.84450781E-02
  2.32714336E-01  4.70192898E-01  3.58520853E-01 -1.10777550E-01 -1.48026263E-01
  1.13076702E+00  1.00000000E+00  1.00000000E+00  1.83473713E-03  1.40373228E-02
  6.88426223E-02  2.32184443E-01  4.67941348E-01  3.62311985E-01 -1.19332420E-01
 -1.60854152E-01  1.14345644E+00  1.00000000E+00  1.00000000E+00  1.83473713E-03
  1.40373228E-02  6.88426223E-02  2.32184443E-01  4.67941348E-01  3.62311985E-01
 -1.19332420E-01 -1.60854152E-01  1.14345644E+00  1.00000000E+00  1.00000000E+00
  1.83473713E-03  1.40373228E-02  6.88426223E-02  2.32184443E-01  4.67941348E-01
  3.62311985E-01 -1.19332420E-01 -1.60854152E-01  1.14345644E+00  1.00000000E+00
  1.00000000E+00  1.83473713E-03  1.40373228E-02  6.88426223E-02  2.32184443E-01
  4.67941348E-01  3.62311985E-01 -1.19332420E-01 -1.60854152E-01  1.14345644E+00
  1.00000000E+00  1.00000000E+00  3.34946043E-02  2.34726953E-01  8.13757326E-01
  1.00000000E+00  3.34946043E-02  2.34726953E-01  8.13757326E-01  1.00000000E+00
  3.34946043E-02  2.34726953E-01  8.13757326E-01  1.00000000E+00  3.34946043E-02
  2.34726953E-01  8.13757326E-01  1.00000000E+00  3.34946043E-02  2.34726953E-01
  8.13757326E-01  1.00000000E+00  3.34946043E-02  2.34726953E-01  8.13757326E-01
  1.00000000E+00  3.34946043E-02  2.34726953E-01  8.13757326E-01  1.00000000E+00
  3.34946043E-02  2.34726953E-01  8.13757326E-01  1.00000000E+00
P(S=P) Contraction coefficients            R   N=         104
  0.00000000E+00  0.00000000E+00  0.00000000E+00  0.00000000E+00  0.00000000E+00
  0.00000000E+00  4.06100998E-03  3.06812999E-02  1.30451999E-01  3.27204999E-01
  4.52850998E-01  2.56041999E-01 -1.45104895E-02  3.10262776E-01  7.54482456E-01
  1.00000000E+00  0.00000000E+00  0.00000000E+00  0.00000000E+00  0.00000000E+00
  0.00000000E+00  0.00000000E+00  0.00000000E+00  7.08742682E-02  3.39752839E-01
  7.27158577E-01  1.00000000E+00  0.00000000E+00  0.00000000E+00  0.00000000E+00
  0.00000000E+00  0.00000000E+00  0.00000000E+00  0.00000000E+00  6.89990666E-02
  3.16423961E-01  7.44308291E-01  1.00000000E+00  0.00000000E+00  0.00000000E+00
  0.00000000E+00  0.00000000E+00  0.00000000E+00  0.00000000E+00  0.00000000E+00
  6.89990666E-02  3.16423961E-01  7.44308291E-01  1.00000000E+00  0.00000000E+00
  0.00000000E+00  0.00000000E+00  0.00000000E+00  0.00000000E+00  0.00000000E+00
  0.00000000E+00  6.89990666E-02  3.16423961E-01  7.44308291E-01  1.00000000E+00
  0.00000000E+00  0.00000000E+00  0.00000000E+00  0.00000000E+00  0.00000000E+00
  0.00000000E+00  0.00000000E+00  6.89990666E-02  3.16423961E-01  7.44308291E-01
  1.00000000E+00  0.00000000E+00  0.00000000E+00  0.00000000E+00  0.00000000E+00
  0.00000000E+00  0.00000000E+00  0.00000000E+00  0.00000000E+00  0.00000000E+00
  0.00000000E+00  0.00000000E+00  0.00000000E+00  0.00000000E+00  0.00000000E+00
  0.00000000E+00  0.00000000E+00  0.00000000E+00  0.00000000E+00  0.00000000E+00
  0.00000000E+00  0.00000000E+00  0.00000000E+00  0.00000000E+00  0.00000000E+00
  0.00000000E+00  0.00000000E+00  0.00000000E+00  0.00000000E+00  0.00000000E+00
  0.00000000E+00  0.00000000E+00  0.00000000E+00  0.00000000E+00
Coordinates of each shell                  R   N=         123
  3.80102860E-01 -1.46273422E+00 -2.37329733E-02  3.80102860E-01 -1.46273422E+00
 -2.37329733E-02  3.80102860E-01 -1.46273422E+00 -2.37329733E-02  3.80102860E-01
 -1.46273422E+00 -2.37329733E-02  3.80102860E-01 -1.46273422E+00 -2.37329733E-02
 -2.28547081E+00  2.77084332E+00 -3.48198464E-02 -2.28547081E+00  2.77084332E+00
 -3.48198464E-02 -2.28547081E+00  2.77084332E+00 -3.48198464E-02 -2.28547081E+00
  2.77084332E+00 -3.48198464E-02  2.74728055E+00  1.02283734E+00  6.70811716E-02
  2.74728055E+00  1.02283734E+00  6.70811716E-02  2.74728055E+00  1.02283734E+00
  6.70811716E-02  2.74728055E+00  1.02283734E+00  6.70811716E-02  5.38157728E+00
 -1.35530385E-01 -1.28301100E-02  5.38157728E+00 -1.35530385E-01 -1.28301100E-02
  5.38157728E+00 -1.35530385E-01 -1.28301100E-02  5.38157728E+00 -1.35530385E-01
 -1.28301100E-02 -2.38170437E+00  4.60525323E-01 -3.74411592E-02 -2.38170437E+00
  4.60525323E-01 -3.74411592E-02 -2.38170437E+00  4.60525323E-01 -3.74411592E-02
 -2.38170437E+00  4.60525323E-01 -3.74411592E-02 -4.83368181E+00 -1.00102174E+00
  3.13161372E-02 -4.83368181E+00 -1.00102174E+00  3.13161372E-02 -4.83368181E+00
 -1.00102174E+00  3.13161372E-02 -4.83368181E+00 -1.00102174E+00  3.13161372E-02
  2.42404421E+00  2.27445704E+00 -1.54084387E+00  2.42404421E+00  2.27445704E+00
 -1.54084387E+00  2.46287029E+00  2.12951495E+00  1.78542402E+00  2.46287029E+00
  2.12951495E+00  1.78542402E+00  5.70582600E+00 -1.38224689E+00  1.60132003E+00
  5.70582600E+00 -1.38224689E+00  1.60132003E+00  5.66955962E+00 -1.22605660E+00
 -1.74262053E+00  5.66955962E+00 -1.22605660E+00 -1.74262053E+00  6.79946473E+00
  1.36659712E+00  4.28543320E-02  6.79946473E+00  1.36659712E+00  4.28543320E-02
 -5.43170419E+00 -1.20348757E+00  2.00034442E+00 -5.43170419E+00 -1.20348757E+00
  2.00034442E+00 -4.63929575E+00 -2.88164322E+00 -7.95234550E-01 -4.63929575E+00
 -2.88164322E+00 -7.95234550E-01 -6.26947410E+00  7.90029780E-02 -9.81713740E-01
 -6.26947410E+00  7.90029780E-02 -9.81713740E-01
Constraint Structure                       R   N=          42
  3.80102860E-01 -1.46273422E+00 -2.37329733E-02 -2.28547081E+00  2.77084332E+00
 -3.48198464E-02  2.74728055E+00  1.02283734E+00  6.70811716E-02  5.38157728E+00
 -1.35530385E-01 -1.28301100E-02 -2.38170437E+00  4.60525323E-01 -3.74411592E-02
 -4.83368181E+00 -1.00102174E+00  3.13161372E-02  2.42404421E+00  2.27445704E+00
 -1.54084387E+00  2.46287029E+00  2.12951495E+00  1.78542402E+00  5.70582600E+00
 -1.38224689E+00  1.60132003E+00  5.66955962E+00 -1.22605660E+00 -1.74262053E+00
  6.79946473E+00  1.36659712E+00  4.28543320E-02 -5.43170419E+00 -1.20348757E+00
  2.00034442E+00 -4.63929575E+00 -2.88164322E+00 -7.95234550E-01 -6.26947410E+00
  7.90029780E-02 -9.81713740E-01
Num ILSW                                   I              100
ILSW                                       I   N=         100
           0           1           0           0           2           0
           0           0           0           0           0          -1
           0           0           0           0           0           0
           0           0           0           0           1           0
           1           0           0           0           0           0
           0           0      100000           0          -1           0
           0           0           0           0           0           0
           0           0           0           1           1           0
           0           0           1           0           0           0
           0           0           4          40           0           0
           0           0           0           0           0           0
           0           0           0           0           0           0
           0           0           0           0           0           0
           0           0           0           0           0           0
           0           0           0           0           0           0
           0           0           0           0           0           0
           0           0           0           0
Num RLSW                                   I               40
RLSW                                       R   N=          40
  1.00000000E+00  1.00000000E+00  1.00000000E+00  1.00000000E+00  1.00000000E+00
  0.00000000E+00  0.00000000E+00  1.00000000E+00  0.00000000E+00  0.00000000E+00
  0.00000000E+00  0.00000000E+00  1.00000000E+00  0.00000000E+00  0.00000000E+00
  0.00000000E+00  0.00000000E+00  1.00000000E+00  0.00000000E+00  0.00000000E+00
  0.00000000E+00  0.00000000E+00  1.00000000E+00  0.00000000E+00  0.00000000E+00
  0.00000000E+00  0.00000000E+00  1.00000000E+00  0.00000000E+00  0.00000000E+00
  0.00000000E+00  0.00000000E+00  0.00000000E+00  0.00000000E+00  0.00000000E+00
  0.00000000E+00  0.00000000E+00  0.00000000E+00  1.00000000E+00  1.00000000E+00
MxBond                                     I                4
NBond                                      I   N=          14
           2           1           4           4           3           4
           1           1           1           1           1           1
           1           1
IBond                                      I   N=          56
           3           5           0           0           5           0
           0           0           1           4           7           8
           3           9          10          11           1           2
           6           0           5          12          13          14
           3           0           0           0           3           0
           0           0           4           0           0           0
           4           0           0           0           4           0
           0           0           6           0           0           0
           6           0           0           0           6           0
           0           0
RBond                                      R   N=          56
  1.00000000E+00  1.00000000E+00  0.00000000E+00  0.00000000E+00  2.00000000E+00
  0.00000000E+00  0.00000000E+00  0.00000000E+00  1.00000000E+00  1.00000000E+00
  1.00000000E+00  1.00000000E+00  1.00000000E+00  1.00000000E+00  1.00000000E+00
  1.00000000E+00  1.00000000E+00  2.00000000E+00  1.00000000E+00  0.00000000E+00
  1.00000000E+00  1.00000000E+00  1.00000000E+00  1.00000000E+00  1.00000000E+00
  0.00000000E+00  0.00000000E+00  0.00000000E+00  1.00000000E+00  0.00000000E+00
  0.00000000E+00  0.00000000E+00  1.00000000E+00  0.00000000E+00  0.00000000E+00
  0.00000000E+00  1.00000000E+00  0.00000000E+00  0.00000000E+00  0.00000000E+00
  1.00000000E+00  0.00000000E+00  0.00000000E+00  0.00000000E+00  1.00000000E+00
  0.00000000E+00  0.00000000E+00  0.00000000E+00  1.00000000E+00  0.00000000E+00
  0.00000000E+00  0.00000000E+00  1.00000000E+00  0.00000000E+00  0.00000000E+00
  0.00000000E+00
Virial Ratio                               R      2.001047266812146E+00
SCF Energy                                 R     -6.285084490399411E+02
MP2 Energy                                 R     -6.293319431999765E+02
Total Energy                               R     -6.293319431999765E+02
Post-SCF wavefunction norm                 R      1.603337545431666E+00
RMS Force                                  R      4.238289722248038E-08
RMS Density                                R      2.889363983802979E-09
External E-field                           R   N=          35
  0.00000000E+00  0.00000000E+00  0.00000000E+00  0.00000000E+00  0.00000000E+00
  0.00000000E+00  0.00000000E+00  0.00000000E+00  0.00000000E+00  0.00000000E+00
  0.00000000E+00  0.00000000E+00  0.00000000E+00  0.00000000E+00  0.00000000E+00
  0.00000000E+00  0.00000000E+00  0.00000000E+00  0.00000000E+00  0.00000000E+00
  0.00000000E+00  0.00000000E+00  0.00000000E+00  0.00000000E+00  0.00000000E+00
  0.00000000E+00  0.00000000E+00  0.00000000E+00  0.00000000E+00  0.00000000E+00
  0.00000000E+00  0.00000000E+00  0.00000000E+00  0.00000000E+00  0.00000000E+00
IOpCl                                      I                0
IROHF                                      I                0
Alpha Orbital Energies                     R   N=         110
 -9.19527310E+01 -2.05632294E+01 -1.13666992E+01 -1.12626190E+01 -1.12464929E+01
 -1.12317895E+01 -8.96514103E+00 -6.64797756E+00 -6.64627103E+00 -6.64472500E+00
 -1.38949128E+00 -1.08709045E+00 -1.03165456E+00 -9.58018164E-01 -8.35414144E-01
 -7.30965695E-01 -6.54234537E-01 -6.35764006E-01 -6.29075150E-01 -6.09321095E-01
 -5.77677716E-01 -5.54121119E-01 -5.25408015E-01 -5.19337646E-01 -5.00049203E-01
 -4.61206465E-01 -4.06367945E-01 -3.66337116E-01  1.47228214E-01  1.71461039E-01
  2.40142344E-01  2.46441231E-01  2.73368145E-01  2.89152255E-01  2.96398373E-01
  3.01472945E-01  3.19311893E-01  3.34193656E-01  3.40422701E-01  3.60069414E-01
  4.18964155E-01  4.56763445E-01  5.31482946E-01  5.52804294E-01  5.75793420E-01
  6.16203072E-01  7.15366343E-01  7.19757332E-01  7.67209617E-01  7.78017089E-01
  7.89383874E-01  8.33330607E-01  8.43576262E-01  8.56703661E-01  9.20615549E-01
  9.34969304E-01  9.62784032E-01  1.05862500E+00  1.06378988E+00  1.10090152E+00
  1.12665298E+00  1.13086086E+00  1.13696248E+00  1.14378555E+00  1.14951227E+00
  1.17164399E+00  1.20345400E+00  1.20847544E+00  1.23417847E+00  1.25208332E+00
  1.25530708E+00  1.26742086E+00  1.30040454E+00  1.34182730E+00  1.37950967E+00
  1.43856645E+00  1.60761640E+00  1.67793377E+00  1.75859273E+00  1.81619628E+00
  1.84156416E+00  1.84934196E+00  1.86590114E+00  2.05296593E+00  2.10896253E+00
  2.11983919E+00  2.16288909E+00  2.26687505E+00  2.27260077E+00  2.29959004E+00
  2.36831164E+00  2.44162773E+00  2.51039157E+00  2.56142614E+00  2.59078786E+00
  2.59760470E+00  2.64212019E+00  2.65879781E+00  2.69353975E+00  2.87180770E+00
  2.91931560E+00  2.96810551E+00  3.19538911E+00  3.32376973E+00  4.31746472E+00
  4.33576937E+00  4.54174074E+00  4.57998120E+00  4.78744135E+00  4.81611697E+00
Alpha MO coefficients                      R   N=       12100
  9.96252896E-01  1.42619906E-02 -9.56084057E-06  8.45208754E-05  2.01660248E-06
 -2.00197293E-02  2.12335295E-05 -1.39192024E-04 -3.68076591E-06  2.46672592E-03
  9.45323953E-05  1.18302078E-04  3.61669941E-06  6.87622994E-03  6.91058300E-03
  6.90997788E-03 -4.01945266E-06 -3.05207938E-07 -5.38424491E-07 -2.18922809E-05
 -9.24102521E-05  5.90369746E-06  2.00749038E-05  1.23338522E-06  5.92286956E-04
 -1.28200807E-04 -1.61265369E-04 -5.48480259E-06 -6.85465599E-05 -4.98316703E-05
 -7.81361740E-05  4.49387604E-05  3.60618908E-07  1.01688620E-06 -1.76602325E-05
 -1.01801646E-05 -5.43274774E-05 -7.24066902E-05 -2.55821502E-06  4.72176369E-04
  3.98781055E-05  2.49730431E-05 -4.97056641E-07 -3.81378674E-05 -3.65402635E-05
 -4.15563747E-05 -2.02960836E-05 -5.45788153E-07  1.02931818E-07 -4.00146567E-06
  1.59864861E-05  1.75728418E-05  7.75710263E-07 -6.46166552E-07 -3.20560071E-05
  1.85763627E-04 -3.23352780E-05 -6.72236011E-07 -3.80145991E-05 -1.36473195E-05
 -2.36321921E-05  4.75331324E-06  2.75439493E-07  3.33649686E-07  4.67894434E-06
  6.94078908E-05  5.98463209E-05 -3.88223268E-05 -6.95362978E-07 -2.81522082E-04
  1.49780480E-04 -5.07516580E-04  6.72375770E-06 -5.84312445E-07 -1.76835393E-05
 -8.17969857E-06  5.85870104E-05 -4.67117269E-07 -4.60159226E-08 -4.93833008E-06
  9.78458656E-06 -1.57313367E-05 -6.53293945E-07 -3.77669778E-06  5.59127392E-05
 -1.70484501E-04  1.28239306E-04  8.69754771E-06 -6.46389311E-05  1.16518330E-05
 -2.05402879E-05  9.30369263E-06  6.89552630E-06 -7.98824272E-06 -4.16829505E-05
 -1.92566717E-04 -3.85248525E-05 -1.99042434E-04  2.46834577E-05 -1.29718407E-04
  2.54140368E-05 -1.27896544E-04 -1.61078680E-05 -2.77613918E-05  1.58976356E-05
 -8.42919936E-05  1.74694510E-05 -4.59068565E-05 -1.89452270E-05 -6.67851785E-05
  3.28230253E-07 -9.01637842E-07 -4.11517098E-06  8.27184439E-06  4.38122493E-09
  4.70957826E-05  2.98509120E-05 -3.14550565E-05 -1.50951273E-07 -2.21101816E-04
  1.45445098E-04 -5.90797449E-05  3.33038454E-06 -3.70874723E-05 -3.64598486E-05
 -1.48146497E-05  2.22588066E-05  2.88181573E-07  6.11359219E-07  9.94698152E-01
  2.09348232E-02 -4.31177176E-05 -1.54125311E-03 -4.08072967E-07  4.52198179E-03
  6.52521031E-06  4.32533658E-05 -3.07312149E-06 -3.89178430E-03 -3.61536908E-03
 -4.15455329E-03  1.97615741E-05  1.60329785E-06  1.00941928E-06 -3.82021147E-06
 -1.77989253E-05 -1.62895578E-05  7.58503468E-06  2.43307909E-06  2.11797650E-04
  1.13781937E-04 -7.11193989E-05 -1.81151354E-05  2.80277317E-06 -8.99905742E-06
 -1.15186983E-05  1.89264320E-07 -7.84136445E-07 -1.33797019E-07  5.65834742E-06
  2.68120197E-05 -4.82153284E-07 -9.92023402E-06  8.02403076E-08 -2.10033656E-04
  1.09320968E-04  1.27351913E-05  8.59895535E-07 -1.37189874E-07  1.03553190E-05
  7.16992037E-06  4.96561369E-06 -3.49675710E-07  3.31375156E-07 -1.08171188E-05
  4.50542342E-04 -1.53661120E-05 -4.36839531E-05 -6.74416629E-07 -6.99372438E-05
  3.83255368E-05 -6.25590474E-04  4.69461635E-06 -6.78177445E-05 -7.71800017E-04
 -5.66537079E-05 -4.22449201E-05 -5.34144140E-07 -1.00415169E-06  2.39337427E-07
  1.27848574E-05 -4.09886838E-06 -2.20153383E-05 -2.09843716E-07 -1.36493435E-04
 -1.11405515E-04  9.52363447E-06  2.08624137E-06  2.68476410E-05 -4.42889155E-05
 -1.81171076E-05 -1.97868223E-05 -1.05109340E-06 -2.54682171E-07  2.13783818E-05
 -5.97910095E-05  2.05792818E-05 -3.27371181E-05  1.26438090E-05  1.13641919E-05
  1.22141658E-05  1.28332903E-05  3.25706514E-07 -1.75806792E-05  1.35783316E-05
 -2.14788658E-05  9.74160433E-06  9.61320494E-06  1.04371420E-05 -4.11238951E-05
 -4.00431920E-06 -3.99106350E-05  1.90642352E-05  1.16252572E-06 -2.71316276E-06
  2.41447559E-04 -2.97419795E-04  1.17911089E-04  1.40557997E-05  3.98820523E-03
 -1.75287978E-03  1.63433915E-03 -4.17004892E-05 -5.02250735E-05 -2.60225245E-04
 -2.02405729E-04  9.86504194E-05  5.32788946E-06  1.58666907E-07 -2.90218845E-04
  5.27984289E-04 -2.86985595E-05 -2.54810619E-04 -1.21730880E-06 -2.45772109E-03
  6.94010801E-05  1.40607979E-03  1.02384276E-05  1.31979345E-04 -3.03509868E-05
  3.62562353E-04  3.11069210E-05 -1.37897462E-06 -4.47539846E-06 -4.15455254E-06
  1.45960593E-04  3.56107798E-05 -3.29184533E-05 -1.10824502E-05 -1.31995517E-03
  3.59544904E-05  6.85808329E-04  9.59280045E-05  8.51937276E-06  8.22958794E-06
  3.99851535E-05 -8.47598220E-06  1.59496136E-06 -1.46757120E-06 -3.38667367E-05
 -1.41087667E-04  3.05885442E-05  5.39996529E-05  2.42819910E-06  8.49975282E-04
 -6.49067255E-04 -2.70104782E-04 -3.09078748E-05  2.95876549E-06 -8.07337004E-05
 -3.02115301E-05 -1.12287683E-05  1.27576241E-06 -4.24120523E-06  9.95935333E-01
  2.64944105E-02  3.63881053E-04  2.70116640E-04  7.56943603E-06 -1.00536162E-02
 -6.02691200E-04  3.87075942E-03  1.05556496E-05 -1.65134321E-03 -6.19894911E-04
 -2.08607214E-03  2.00503586E-04 -2.06128683E-05 -6.61612915E-06  2.48861853E-03
  1.55597034E-04 -6.14760784E-05 -3.96269595E-05  4.90651532E-05  3.19210470E-03
  1.66245561E-03 -4.78435254E-05 -3.39113352E-04 -3.74194844E-04 -3.00050861E-04
 -1.03716114E-04 -2.53182882E-04 -5.97551905E-06  4.82883540E-05  1.45486841E-05
 -1.73113507E-04  6.41926709E-06 -2.28500226E-04 -9.06619248E-05  4.34729839E-06
 -8.29102386E-05 -4.61371681E-05  1.76169089E-05  2.07892989E-04 -1.21435611E-04
  3.36148860E-04 -1.46681011E-04 -5.23284915E-04 -7.74226690E-05  1.83612376E-04
  2.68610437E-06 -2.78869407E-05 -3.99754861E-05 -4.53991093E-05 -1.50416374E-06
  3.78334715E-04  4.04442292E-04  4.26799605E-04  1.45535014E-05  2.95479739E-03
  9.66820517E-04  1.50075636E-03  5.67626197E-05 -3.96483557E-05 -1.03095465E-04
 -1.57651938E-04 -9.21471784E-07  1.00003231E-06  2.63759208E-06 -4.79094115E-05
 -2.21560987E-04 -4.65649117E-05  4.92157250E-05 -6.55961223E-06  1.08908451E-03
  1.17093131E-05 -4.90658931E-04  2.72365669E-05 -1.36183730E-04 -6.28888685E-05
 -2.12552663E-04 -9.60056642E-06  6.43180471E-06 -3.36363931E-06  9.95814189E-01
  2.81948005E-02 -3.27132898E-04 -5.40219107E-04 -1.48745616E-05 -1.53861011E-02
  1.91212803E-04  1.01596761E-03  5.13635701E-05 -1.71427703E-03 -1.72495459E-03
 -1.52836452E-03 -1.93413521E-04 -6.00345164E-06 -8.50271229E-06  9.60304384E-03
  3.28391105E-04 -3.58384227E-05 -1.90809486E-05  5.03841523E-07  3.60683102E-03
 -1.47764998E-03  5.71602175E-04  3.34514496E-05 -4.59342787E-04 -2.22280435E-04
 -1.26726692E-04  1.88194759E-04  1.32949871E-05 -7.06793499E-06  5.12180230E-05
  6.93662451E-05 -8.59934908E-05 -1.03050033E-04 -5.12008092E-08 -1.97708630E-03
  3.21339459E-04  1.38894500E-05 -4.87924769E-05  1.61326970E-05 -3.82829389E-05
  2.66875464E-05  3.49483216E-06  9.67478144E-06  7.81456284E-07 -5.99969190E-06
 -1.31953777E-04  5.10335209E-06  2.01643776E-05 -1.26485507E-05  9.12403485E-04
  4.95168981E-04  2.72316373E-04  8.45875563E-05  9.16762052E-06 -2.43172777E-05
 -3.77477567E-05  3.41236538E-05 -5.06065032E-06  3.86027166E-06  2.20181621E-04
  2.24747606E-03  2.12871348E-04  2.25169737E-03 -1.35902306E-04 -6.29173197E-05
 -1.36431258E-04 -7.12509067E-05 -1.29581524E-04 -5.98635008E-05 -4.17249599E-05
 -5.51019997E-05 -7.89933826E-05  1.93601284E-04 -2.44948789E-05  3.98215266E-05
 -1.00812675E-06 -2.77597594E-05 -1.71150879E-05 -1.77216389E-06  2.11665480E-06
 -5.96161274E-05  1.49431010E-04  5.81649407E-06 -1.69721408E-05  1.41427778E-04
 -3.01787299E-04  7.18604623E-05  7.06209624E-05 -6.13218808E-05 -1.72294623E-05
 -9.67289504E-05 -2.44405981E-05 -1.31748029E-05 -2.63355653E-06 -4.69526421E-05