049_2-Pyridone Gaussian SP Calculation on node35.bme.utexas.edu         
Freq      RMP2-FC                                                     6-31G(d)            
Number of atoms                            I               12
Info1-9                                    I   N=           9
          23          22        1002           0           0         100
           6           2           1
Charge                                     I                0
Multiplicity                               I                1
Number of electrons                        I               50
Number of alpha electrons                  I               25
Number of beta electrons                   I               25
Number of basis functions                  I              115
Number of independent functions            I              115
Number of point charges in /Mol/           I                0
Number of translation vectors              I                0
Atomic numbers                             I   N=          12
           8           7           6           6           6           6
           6           1           1           1           1           1
Nuclear charges                            R   N=          12
  8.00000000E+00  7.00000000E+00  6.00000000E+00  6.00000000E+00  6.00000000E+00
  6.00000000E+00  6.00000000E+00  1.00000000E+00  1.00000000E+00  1.00000000E+00
  1.00000000E+00  1.00000000E+00
Current cartesian coordinates              R   N=          36
 -4.34725048E+00  9.18100276E-03  7.01885708E-05 -5.68961159E-01 -2.11129483E+00
 -8.84108724E-05  2.11812732E+00  2.26939223E+00  1.40354320E-05  3.41586727E+00
 -8.74085045E-02  3.19945503E-05  2.01000476E+00 -2.25102102E+00  2.08960464E-05
 -2.01467150E+00  1.17830329E-01 -5.72030538E-06 -4.66443736E-01  2.37878779E+00
 -6.39753471E-05  3.20261772E+00  4.01572357E+00  1.14504430E-05  5.46086530E+00
 -1.88549548E-01  1.17631092E-04  2.81639639E+00 -4.13694186E+00 -8.81799932E-07
 -1.47126616E+00  4.16619726E+00 -6.54200269E-05 -1.62518603E+00 -3.71629854E+00
  1.12055762E-05
Force Field                                I                0
Int Atom Types                             I   N=          12
           0           0           0           0           0           0
           0           0           0           0           0           0
MM charges                                 R   N=          12
  0.00000000E+00  0.00000000E+00  0.00000000E+00  0.00000000E+00  0.00000000E+00
  0.00000000E+00  0.00000000E+00  0.00000000E+00  0.00000000E+00  0.00000000E+00
  0.00000000E+00  0.00000000E+00
Integer atomic weights                     I   N=          12
          16          14          12          12          12          12
          12           1           1           1           1           1
Real atomic weights                        R   N=          12
  1.59949146E+01  1.40030740E+01  1.20000000E+01  1.20000000E+01  1.20000000E+01
  1.20000000E+01  1.20000000E+01  1.00782504E+00  1.00782504E+00  1.00782504E+00
  1.00782504E+00  1.00782504E+00
Atom fragment info                         I   N=          12
           0           0           0           0           0           0
           0           0           0           0           0           0
Atom residue num                           I   N=          12
           0           0           0           0           0           0
           0           0           0           0           0           0
Nuclear spins                              I   N=          12
           0           2           0           0           0           0
           0           1           1           1           1           1
Nuclear ZEff                               R   N=          12
 -5.60000000E+00 -4.55000000E+00 -3.60000000E+00 -3.60000000E+00 -3.60000000E+00
 -3.60000000E+00 -3.60000000E+00 -1.00000000E+00 -1.00000000E+00 -1.00000000E+00
 -1.00000000E+00 -1.00000000E+00
Nuclear QMom                               R   N=          12
  0.00000000E+00  2.04400000E+00  0.00000000E+00  0.00000000E+00  0.00000000E+00
  0.00000000E+00  0.00000000E+00  0.00000000E+00  0.00000000E+00  0.00000000E+00
  0.00000000E+00  0.00000000E+00
Nuclear GFac                               R   N=          12
  0.00000000E+00  4.03761000E-01  0.00000000E+00  0.00000000E+00  0.00000000E+00
  0.00000000E+00  0.00000000E+00  2.79284600E+00  2.79284600E+00  2.79284600E+00
  2.79284600E+00  2.79284600E+00
MicOpt                                     I   N=          12
          -1          -1          -1          -1          -1          -1
          -1          -1          -1          -1          -1          -1
Number of contracted shells                I               38
Number of primitive shells                 I               97
Pure/Cartesian d shells                    I                1
Pure/Cartesian f shells                    I                0
Highest angular momentum                   I                2
Largest degree of contraction              I                6
Shell types                                I   N=          38
           0          -1          -1           2           0          -1
          -1           2           0          -1          -1           2
           0          -1          -1           2           0          -1
          -1           2           0          -1          -1           2
           0          -1          -1           2           0           0
           0           0           0           0           0           0
           0           0
Number of primitives per shell             I   N=          38
           6           3           1           1           6           3
           1           1           6           3           1           1
           6           3           1           1           6           3
           1           1           6           3           1           1
           6           3           1           1           3           1
           3           1           3           1           3           1
           3           1
Shell to atom map                          I   N=          38
           1           1           1           1           2           2
           2           2           3           3           3           3
           4           4           4           4           5           5
           5           5           6           6           6           6
           7           7           7           7           8           8
           9           9          10          10          11          11
          12          12
Primitive exponents                        R   N=          97
  5.48467166E+03  8.25234946E+02  1.88046958E+02  5.29645000E+01  1.68975704E+01
  5.79963534E+00  1.55396162E+01  3.59993359E+00  1.01376175E+00  2.70005823E-01
  8.00000000E-01  4.17351146E+03  6.27457911E+02  1.42902093E+02  4.02343293E+01
  1.28202129E+01  4.39043701E+00  1.16263619E+01  2.71627981E+00  7.72218397E-01
  2.12031498E-01  8.00000000E-01  3.04752488E+03  4.57369518E+02  1.03948685E+02
  2.92101553E+01  9.28666296E+00  3.16392696E+00  7.86827235E+00  1.88128854E+00
  5.44249258E-01  1.68714478E-01  8.00000000E-01  3.04752488E+03  4.57369518E+02
  1.03948685E+02  2.92101553E+01  9.28666296E+00  3.16392696E+00  7.86827235E+00
  1.88128854E+00  5.44249258E-01  1.68714478E-01  8.00000000E-01  3.04752488E+03
  4.57369518E+02  1.03948685E+02  2.92101553E+01  9.28666296E+00  3.16392696E+00
  7.86827235E+00  1.88128854E+00  5.44249258E-01  1.68714478E-01  8.00000000E-01
  3.04752488E+03  4.57369518E+02  1.03948685E+02  2.92101553E+01  9.28666296E+00
  3.16392696E+00  7.86827235E+00  1.88128854E+00  5.44249258E-01  1.68714478E-01
  8.00000000E-01  3.04752488E+03  4.57369518E+02  1.03948685E+02  2.92101553E+01
  9.28666296E+00  3.16392696E+00  7.86827235E+00  1.88128854E+00  5.44249258E-01
  1.68714478E-01  8.00000000E-01  1.87311370E+01  2.82539436E+00  6.40121692E-01
  1.61277759E-01  1.87311370E+01  2.82539436E+00  6.40121692E-01  1.61277759E-01
  1.87311370E+01  2.82539436E+00  6.40121692E-01  1.61277759E-01  1.87311370E+01
  2.82539436E+00  6.40121692E-01  1.61277759E-01  1.87311370E+01  2.82539436E+00
  6.40121692E-01  1.61277759E-01
Contraction coefficients                   R   N=          97
  1.83107443E-03  1.39501722E-02  6.84450781E-02  2.32714336E-01  4.70192898E-01
  3.58520853E-01 -1.10777550E-01 -1.48026263E-01  1.13076702E+00  1.00000000E+00
  1.00000000E+00  1.83477216E-03  1.39946270E-02  6.85865518E-02  2.32240873E-01
  4.69069948E-01  3.60455199E-01 -1.14961182E-01 -1.69117479E-01  1.14585195E+00
  1.00000000E+00  1.00000000E+00  1.83473713E-03  1.40373228E-02  6.88426223E-02
  2.32184443E-01  4.67941348E-01  3.62311985E-01 -1.19332420E-01 -1.60854152E-01
  1.14345644E+00  1.00000000E+00  1.00000000E+00  1.83473713E-03  1.40373228E-02
  6.88426223E-02  2.32184443E-01  4.67941348E-01  3.62311985E-01 -1.19332420E-01
 -1.60854152E-01  1.14345644E+00  1.00000000E+00  1.00000000E+00  1.83473713E-03
  1.40373228E-02  6.88426223E-02  2.32184443E-01  4.67941348E-01  3.62311985E-01
 -1.19332420E-01 -1.60854152E-01  1.14345644E+00  1.00000000E+00  1.00000000E+00
  1.83473713E-03  1.40373228E-02  6.88426223E-02  2.32184443E-01  4.67941348E-01
  3.62311985E-01 -1.19332420E-01 -1.60854152E-01  1.14345644E+00  1.00000000E+00
  1.00000000E+00  1.83473713E-03  1.40373228E-02  6.88426223E-02  2.32184443E-01
  4.67941348E-01  3.62311985E-01 -1.19332420E-01 -1.60854152E-01  1.14345644E+00
  1.00000000E+00  1.00000000E+00  3.34946043E-02  2.34726953E-01  8.13757326E-01
  1.00000000E+00  3.34946043E-02  2.34726953E-01  8.13757326E-01  1.00000000E+00
  3.34946043E-02  2.34726953E-01  8.13757326E-01  1.00000000E+00  3.34946043E-02
  2.34726953E-01  8.13757326E-01  1.00000000E+00  3.34946043E-02  2.34726953E-01
  8.13757326E-01  1.00000000E+00
P(S=P) Contraction coefficients            R   N=          97
  0.00000000E+00  0.00000000E+00  0.00000000E+00  0.00000000E+00  0.00000000E+00
  0.00000000E+00  7.08742682E-02  3.39752839E-01  7.27158577E-01  1.00000000E+00
  0.00000000E+00  0.00000000E+00  0.00000000E+00  0.00000000E+00  0.00000000E+00
  0.00000000E+00  0.00000000E+00  6.75797439E-02  3.23907296E-01  7.40895140E-01
  1.00000000E+00  0.00000000E+00  0.00000000E+00  0.00000000E+00  0.00000000E+00
  0.00000000E+00  0.00000000E+00  0.00000000E+00  6.89990666E-02  3.16423961E-01
  7.44308291E-01  1.00000000E+00  0.00000000E+00  0.00000000E+00  0.00000000E+00
  0.00000000E+00  0.00000000E+00  0.00000000E+00  0.00000000E+00  6.89990666E-02
  3.16423961E-01  7.44308291E-01  1.00000000E+00  0.00000000E+00  0.00000000E+00
  0.00000000E+00  0.00000000E+00  0.00000000E+00  0.00000000E+00  0.00000000E+00
  6.89990666E-02  3.16423961E-01  7.44308291E-01  1.00000000E+00  0.00000000E+00
  0.00000000E+00  0.00000000E+00  0.00000000E+00  0.00000000E+00  0.00000000E+00
  0.00000000E+00  6.89990666E-02  3.16423961E-01  7.44308291E-01  1.00000000E+00
  0.00000000E+00  0.00000000E+00  0.00000000E+00  0.00000000E+00  0.00000000E+00
  0.00000000E+00  0.00000000E+00  6.89990666E-02  3.16423961E-01  7.44308291E-01
  1.00000000E+00  0.00000000E+00  0.00000000E+00  0.00000000E+00  0.00000000E+00
  0.00000000E+00  0.00000000E+00  0.00000000E+00  0.00000000E+00  0.00000000E+00
  0.00000000E+00  0.00000000E+00  0.00000000E+00  0.00000000E+00  0.00000000E+00
  0.00000000E+00  0.00000000E+00  0.00000000E+00  0.00000000E+00  0.00000000E+00
  0.00000000E+00  0.00000000E+00
Coordinates of each shell                  R   N=         114
 -4.34725048E+00  9.18100276E-03  7.01885708E-05 -4.34725048E+00  9.18100276E-03
  7.01885708E-05 -4.34725048E+00  9.18100276E-03  7.01885708E-05 -4.34725048E+00
  9.18100276E-03  7.01885708E-05 -5.68961159E-01 -2.11129483E+00 -8.84108724E-05
 -5.68961159E-01 -2.11129483E+00 -8.84108724E-05 -5.68961159E-01 -2.11129483E+00
 -8.84108724E-05 -5.68961159E-01 -2.11129483E+00 -8.84108724E-05  2.11812732E+00
  2.26939223E+00  1.40354320E-05  2.11812732E+00  2.26939223E+00  1.40354320E-05
  2.11812732E+00  2.26939223E+00  1.40354320E-05  2.11812732E+00  2.26939223E+00
  1.40354320E-05  3.41586727E+00 -8.74085045E-02  3.19945503E-05  3.41586727E+00
 -8.74085045E-02  3.19945503E-05  3.41586727E+00 -8.74085045E-02  3.19945503E-05
  3.41586727E+00 -8.74085045E-02  3.19945503E-05  2.01000476E+00 -2.25102102E+00
  2.08960464E-05  2.01000476E+00 -2.25102102E+00  2.08960464E-05  2.01000476E+00
 -2.25102102E+00  2.08960464E-05  2.01000476E+00 -2.25102102E+00  2.08960464E-05
 -2.01467150E+00  1.17830329E-01 -5.72030538E-06 -2.01467150E+00  1.17830329E-01
 -5.72030538E-06 -2.01467150E+00  1.17830329E-01 -5.72030538E-06 -2.01467150E+00
  1.17830329E-01 -5.72030538E-06 -4.66443736E-01  2.37878779E+00 -6.39753471E-05
 -4.66443736E-01  2.37878779E+00 -6.39753471E-05 -4.66443736E-01  2.37878779E+00
 -6.39753471E-05 -4.66443736E-01  2.37878779E+00 -6.39753471E-05  3.20261772E+00
  4.01572357E+00  1.14504430E-05  3.20261772E+00  4.01572357E+00  1.14504430E-05
  5.46086530E+00 -1.88549548E-01  1.17631092E-04  5.46086530E+00 -1.88549548E-01
  1.17631092E-04  2.81639639E+00 -4.13694186E+00 -8.81799932E-07  2.81639639E+00
 -4.13694186E+00 -8.81799932E-07 -1.47126616E+00  4.16619726E+00 -6.54200269E-05
 -1.47126616E+00  4.16619726E+00 -6.54200269E-05 -1.62518603E+00 -3.71629854E+00
  1.12055762E-05 -1.62518603E+00 -3.71629854E+00  1.12055762E-05
Constraint Structure                       R   N=          36
 -4.34725048E+00  9.18100276E-03  7.01885708E-05 -5.68961159E-01 -2.11129483E+00
 -8.84108724E-05  2.11812732E+00  2.26939223E+00  1.40354320E-05  3.41586727E+00
 -8.74085045E-02  3.19945503E-05  2.01000476E+00 -2.25102102E+00  2.08960464E-05
 -2.01467150E+00  1.17830329E-01 -5.72030538E-06 -4.66443736E-01  2.37878779E+00
 -6.39753471E-05  3.20261772E+00  4.01572357E+00  1.14504430E-05  5.46086530E+00
 -1.88549548E-01  1.17631092E-04  2.81639639E+00 -4.13694186E+00 -8.81799932E-07
 -1.47126616E+00  4.16619726E+00 -6.54200269E-05 -1.62518603E+00 -3.71629854E+00
  1.12055762E-05
Num ILSW                                   I              100
ILSW                                       I   N=         100
           0           1           0           1           2           0
           0           0           0           0           0          -1
           0           0           0           0           0           0
           0           0           0           0           1           0
           1           0           0           0           0           0
           0           0      100000           0          -1           0
           0           0           0           0           0           0
           0           0           0           1           1           0
           0           0           1           0           0           0
           0           0           4          40           0           0
           0           0           0           0           0           0
           0           0           0           0           0           0
           0           0           0           0           0           0
           0           0           0           0           0           0
           0           0           0           0           0           0
           0           0           0           0           0           0
           0           0           0           0
Num RLSW                                   I               40
RLSW                                       R   N=          40
  1.00000000E+00  1.00000000E+00  1.00000000E+00  1.00000000E+00  1.00000000E+00
  0.00000000E+00  0.00000000E+00  1.00000000E+00  0.00000000E+00  0.00000000E+00
  0.00000000E+00  0.00000000E+00  1.00000000E+00  0.00000000E+00  0.00000000E+00
  0.00000000E+00  0.00000000E+00  1.00000000E+00  0.00000000E+00  0.00000000E+00
  0.00000000E+00  0.00000000E+00  1.00000000E+00  0.00000000E+00  0.00000000E+00
  0.00000000E+00  0.00000000E+00  1.00000000E+00  0.00000000E+00  0.00000000E+00
  0.00000000E+00  0.00000000E+00  0.00000000E+00  0.00000000E+00  0.00000000E+00
  0.00000000E+00  0.00000000E+00  0.00000000E+00  1.00000000E+00  1.00000000E+00
MxBond                                     I                3
NBond                                      I   N=          12
           1           3           3           3           3           3
           3           1           1           1           1           1
IBond                                      I   N=          36
           6           0           0           5           6          12
           4           7           8           3           5           9
           2           4          10           1           2           7
           3           6          11           3           0           0
           4           0           0           5           0           0
           7           0           0           2           0           0
RBond                                      R   N=          36
  2.00000000E+00  0.00000000E+00  0.00000000E+00  1.50000000E+00  1.00000000E+00
  1.00000000E+00  1.50000000E+00  2.00000000E+00  1.00000000E+00  1.50000000E+00
  2.00000000E+00  1.00000000E+00  1.50000000E+00  2.00000000E+00  1.00000000E+00
  2.00000000E+00  1.00000000E+00  1.00000000E+00  2.00000000E+00  1.00000000E+00
  1.00000000E+00  1.00000000E+00  0.00000000E+00  0.00000000E+00  1.00000000E+00
  0.00000000E+00  0.00000000E+00  1.00000000E+00  0.00000000E+00  0.00000000E+00
  1.00000000E+00  0.00000000E+00  0.00000000E+00  1.00000000E+00  0.00000000E+00
  0.00000000E+00
Virial Ratio                               R      2.002793863022082E+00
SCF Energy                                 R     -3.215626455143430E+02
MP2 Energy                                 R     -3.225287945737643E+02
Total Energy                               R     -3.225287945737643E+02
Post-SCF wavefunction norm                 R      1.629298812158354E+00
RMS Force                                  R      1.381223299183427E-06
RMS Density                                R      3.043972605415046E-09
External E-field                           R   N=          35
  0.00000000E+00  0.00000000E+00  0.00000000E+00  0.00000000E+00  0.00000000E+00
  0.00000000E+00  0.00000000E+00  0.00000000E+00  0.00000000E+00  0.00000000E+00
  0.00000000E+00  0.00000000E+00  0.00000000E+00  0.00000000E+00  0.00000000E+00
  0.00000000E+00  0.00000000E+00  0.00000000E+00  0.00000000E+00  0.00000000E+00
  0.00000000E+00  0.00000000E+00  0.00000000E+00  0.00000000E+00  0.00000000E+00
  0.00000000E+00  0.00000000E+00  0.00000000E+00  0.00000000E+00  0.00000000E+00
  0.00000000E+00  0.00000000E+00  0.00000000E+00  0.00000000E+00  0.00000000E+00
IOpCl                                      I                0
IROHF                                      I                0
Alpha Orbital Energies                     R   N=         115
 -2.05110783E+01 -1.56292569E+01 -1.13541521E+01 -1.13156848E+01 -1.12735105E+01
 -1.12442123E+01 -1.12386589E+01 -1.36494787E+00 -1.26906396E+00 -1.10358370E+00
 -1.02751057E+00 -8.83485847E-01 -8.57640446E-01 -7.51919420E-01 -6.90302912E-01
 -6.73496901E-01 -6.34814875E-01 -6.04695529E-01 -5.98077578E-01 -5.53740545E-01
 -5.34557090E-01 -4.76682716E-01 -4.19442530E-01 -4.16355715E-01 -3.07558022E-01
  9.84236093E-02  1.70564016E-01  2.06393227E-01  2.56738955E-01  2.77498023E-01
  3.06239614E-01  3.22404948E-01  3.43742652E-01  3.93594916E-01  4.46974703E-01
  4.58553330E-01  4.90965118E-01  5.09041418E-01  6.40326104E-01  6.79125727E-01
  7.24783116E-01  7.28468409E-01  7.48706887E-01  7.94075460E-01  8.00753659E-01
  8.09055440E-01  8.25515130E-01  8.39013095E-01  8.62837249E-01  8.89936358E-01
  9.26628127E-01  9.41754636E-01  1.02849169E+00  1.06631668E+00  1.06676890E+00
  1.09002205E+00  1.11457875E+00  1.11870863E+00  1.14404209E+00  1.17216048E+00
  1.18793835E+00  1.22896260E+00  1.26457406E+00  1.29661957E+00  1.34338138E+00
  1.36698666E+00  1.43316511E+00  1.44658069E+00  1.47340556E+00  1.57500037E+00
  1.62700787E+00  1.66128589E+00  1.69285115E+00  1.72865189E+00  1.73763227E+00
  1.74803910E+00  1.76105284E+00  1.87318509E+00  1.97711899E+00  2.04624888E+00
  2.11707150E+00  2.12636905E+00  2.20032695E+00  2.21852713E+00  2.24390942E+00
  2.29082014E+00  2.29776406E+00  2.39149770E+00  2.40565354E+00  2.43466425E+00
  2.45798499E+00  2.51482204E+00  2.55675051E+00  2.60211340E+00  2.63733819E+00
  2.67368690E+00  2.86560745E+00  2.89451655E+00  2.97414948E+00  2.98448450E+00
  3.00150346E+00  3.02482745E+00  3.10375454E+00  3.12095264E+00  3.18437397E+00
  3.36859064E+00  3.52086275E+00  3.75127520E+00  4.37197008E+00  4.47305997E+00
  4.51709068E+00  4.62262509E+00  4.67885751E+00  4.87684538E+00  5.11468851E+00
Alpha MO coefficients                      R   N=       13225
  9.94689858E-01  2.09541075E-02  1.54652084E-03  3.27956520E-05 -5.17073903E-08
  4.58528682E-03 -3.55477863E-05 -1.81986296E-05  1.55335068E-09 -3.66493259E-03
 -3.91630681E-03 -4.08750021E-03  9.63852507E-06 -1.47404627E-08 -9.69621358E-10
 -1.10641891E-05 -3.41381808E-05  3.71391402E-05 -2.24852770E-05 -2.96684184E-09
  1.51217106E-04 -1.16713681E-04  8.20406230E-05  9.25425358E-09 -1.01601735E-04
  3.60711499E-05 -5.13146530E-05  4.02317845E-05  7.29199591E-10  1.81856946E-09
  4.63979755E-06  2.72955540E-05 -2.30183906E-05  2.37336649E-06 -1.23724837E-09
 -1.05982260E-04  7.16127485E-05  7.03269946E-05 -8.12157666E-10  2.07687388E-05
 -3.61824713E-06  1.06177200E-05 -2.24029218E-05  1.45698300E-09 -4.02738703E-10
  4.24118510E-07  1.45546893E-06 -1.07887224E-05 -1.02446569E-06 -5.48085830E-10
  1.97763790E-04 -7.77364904E-05 -4.92132412E-05  2.39719594E-09  8.70150092E-06
 -1.40248081E-05  6.01016116E-06  1.05485745E-06 -2.09392350E-10 -7.99790749E-11
  7.64012011E-06  3.31460490E-05 -3.26061575E-05  7.83013112E-06 -1.68260826E-09
 -1.43574194E-04 -5.89905834E-06 -2.05415181E-04 -6.76875679E-09  4.19185202E-05
 -4.46826596E-06  1.68032913E-05  1.81334529E-05  3.57382742E-09  6.78252276E-10
 -6.09983398E-06  5.22243056E-04 -6.61265081E-06 -8.99798096E-06 -1.11505778E-09
 -4.11521209E-04  6.28735796E-04  1.98265459E-04 -1.96276424E-08 -7.80750237E-04
 -4.78410168E-05 -5.27575676E-05 -4.43617494E-05  2.76822339E-08  2.12802873E-09
  5.51803369E-07  4.44602883E-06  1.42730672E-05 -1.43880603E-05 -1.17779857E-09
 -1.59582694E-04  6.04744502E-05  8.05053565E-05  1.94620000E-09 -7.02407831E-05
  7.19751025E-05 -1.46722819E-05 -2.22518846E-05  1.76654844E-09 -5.48807001E-10
  5.54744399E-07 -3.85994485E-05 -2.92254973E-06  9.74412869E-06 -7.84373019E-06
 -7.42146425E-05 -5.07700655E-07 -1.22337636E-05 -1.32476307E-05 -2.63531792E-05
 -3.95363444E-05 -2.13597834E-04 -3.20143233E-05 -5.30929817E-06 -2.32190059E-09
  1.39321762E-03  2.38765633E-04  2.81636628E-04 -5.10575559E-09 -1.32998772E-04
 -1.14578753E-04 -1.45340036E-04  5.70652138E-05 -8.43338629E-10 -2.25678270E-09
  9.94996689E-01  2.54106141E-02  2.35064922E-04  1.06956664E-05  1.56004505E-07
 -4.92276683E-03 -6.99736893E-04 -1.39641699E-03 -1.77910834E-07 -3.33564331E-03
 -3.41448610E-03 -3.32362568E-03  3.29134880E-06 -9.48539893E-09 -1.72918662E-08
 -2.71756630E-05 -1.38788357E-04 -2.76125476E-06  4.68998854E-06  4.25916238E-09
  2.93608656E-03 -9.69752829E-04 -1.14732069E-03 -4.98820928E-08  3.75647118E-06
 -1.16052101E-05 -5.37606932E-05 -9.77664123E-06  5.56719524E-09  5.10289220E-09
  3.25669458E-05  1.52380223E-04  1.45887300E-05  3.16854653E-05  2.27792535E-09
 -2.57063417E-03  1.80026796E-03 -1.04288527E-04  3.09442398E-08 -3.38345700E-06
  3.19092350E-05  3.82110750E-05 -1.68403675E-05  5.54665680E-09 -2.93853080E-10
  9.86539874E-06  1.50319521E-04 -2.03693230E-04  1.04399033E-05 -3.54331788E-09
  3.05764446E-03 -1.11414087E-03  1.60392573E-03 -2.91998803E-08 -1.79181267E-04
 -3.38306121E-05 -9.01318661E-05 -2.93188069E-05 -7.20041749E-09 -8.53161613E-09
 -9.67600852E-06  5.16144839E-05  1.44931702E-04 -2.03559674E-04 -1.69064063E-09
  2.32196923E-03  2.42447583E-03 -9.92779646E-04 -5.90684673E-08 -3.92382810E-05
 -9.17570007E-05 -1.03706181E-04 -4.96977089E-06 -4.22020402E-09 -4.59090571E-09
  2.64287174E-05  1.15729362E-04  3.84727452E-05  3.36897350E-05  8.78472478E-10
 -2.37646057E-03 -1.43868467E-03  1.33299970E-03 -3.60932083E-08  2.21671116E-05
 -9.62204694E-06  2.85205391E-05  7.85592336E-06 -9.19741771E-09  6.29409807E-09
  2.10470438E-05  3.28243772E-04 -7.00040561E-05 -4.56590154E-04  1.19378404E-05
  4.68104603E-04 -9.70689230E-05 -4.65198756E-04  1.89838150E-04  1.07331477E-04
 -1.25251082E-04  1.11887659E-03  2.92915791E-04 -1.98333315E-05 -9.55392782E-09
 -6.42105036E-03 -2.52603234E-03  5.20876676E-04  8.38768822E-08  2.24570445E-04
  5.57366113E-04  7.08141561E-04  1.50768999E-04  1.85263201E-08 -3.97155429E-09
 -2.49016222E-04  2.89262644E-04 -1.48132063E-04  4.65491380E-05  3.42609417E-09
  1.40307439E-03  2.22586681E-03 -6.67508519E-04 -8.84604475E-08 -4.32426858E-04
 -6.45043023E-04  7.63723425E-05  4.31380002E-04  3.38953496E-08 -3.53351885E-08
 -1.21099875E-05 -1.68673455E-04  1.52651572E-04  1.73604492E-05 -4.93879393E-09
 -1.09110708E-03 -1.85008853E-04  3.75386409E-04  4.90776339E-08  7.90487267E-05
  3.97145463E-05 -7.57056148E-05  8.51251144E-06  6.33208986E-10 -1.18956150E-08
 -7.05602848E-05  1.93515743E-05  1.04100401E-04  6.56515263E-05 -6.94118267E-10
 -1.32979007E-03  5.28380447E-04  8.74304106E-04 -4.48207687E-08 -8.08918220E-05
 -1.27321272E-05 -3.78881803E-05 -2.90083396E-05  1.66721556E-09  5.17112408E-09
 -4.22121036E-04 -4.72210384E-04  1.70504369E-04 -1.85293192E-04 -1.05011563E-08
  4.19045053E-04  5.47325077E-04  2.40241978E-03  1.50355367E-07  3.13125741E-05
 -1.85428646E-05 -2.01500257E-04 -1.02512834E-06 -5.09487609E-09  8.46868097E-09
  9.95897521E-01  2.63618557E-02  2.50922364E-04 -7.23671869E-04 -2.45703279E-08
 -7.34332567E-03 -6.82114405E-03 -3.43876998E-03  2.14559861E-07 -4.81090853E-04
 -1.19514602E-03 -2.19634963E-03 -2.86270999E-05 -6.72944639E-08  9.89456956E-09
  3.47161652E-03 -7.93401687E-05 -3.47330625E-05  1.27300596E-04 -2.02469114E-09
  6.74935978E-03 -3.99969175E-04 -3.57529961E-03  3.81973247E-08 -3.63046392E-04
 -4.31050112E-04 -2.06572570E-04 -1.76353678E-04  1.04069782E-08  5.64374256E-09
  7.97293027E-06  1.76048701E-04  1.95889415E-05 -8.92833189E-05  1.80609579E-04
  9.71263619E-04 -1.55544210E-06  6.61929180E-04  8.37231824E-05  2.64869663E-05
 -9.88616072E-05 -4.33527821E-04 -2.85347788E-06 -9.74212689E-06  2.58867274E-09
  3.15422923E-03  6.54617518E-04 -1.79895551E-04 -4.66708853E-08 -2.59650682E-04
 -2.97878158E-04 -2.25317826E-04 -2.95449251E-05 -2.62326585E-09 -2.17236410E-09
 -2.58434524E-04  4.01840592E-04  8.52807988E-05  2.01209564E-05 -3.05885672E-09
 -8.50059686E-04 -2.58580104E-03 -6.96417757E-04 -7.67976924E-08 -8.07193728E-04
 -1.02971459E-04  1.51485786E-04  9.52423531E-05 -6.99837209E-08 -1.45005347E-08
  2.96662623E-06 -2.73683812E-04 -3.40608172E-05  1.12713014E-05  5.71660175E-10
  2.37716512E-03 -1.97238028E-04 -1.60779108E-03 -4.13096878E-11  3.04138789E-05
  1.62075508E-04 -5.12878834E-05 -2.67121817E-05  1.96850040E-09  5.73104160E-09
  9.48125161E-03  1.61398266E-04  8.79425981E-05  1.22529115E-04  7.71715827E-10
  1.86611539E-03  5.16387828E-04 -2.26926240E-03  2.84152977E-09 -2.78550186E-04
 -3.33061009E-04 -5.26502180E-05  4.06725077E-05  4.38459495E-09  3.09011807E-09
  9.95633954E-01  2.69904922E-02 -1.10497807E-03  6.03851810E-05 -7.31640013E-08
 -8.12832238E-03 -1.99451422E-03 -1.57393344E-04 -2.62054908E-08 -1.21787723E-03
 -1.59708100E-03 -2.44328724E-03  9.23885196E-05  5.06775161E-08  1.61504366E-09
  2.63903794E-04 -4.64766292E-04 -5.63947425E-05 -6.13956342E-05 -8.94118972E-09
  1.47800633E-03  3.81269044E-03  1.87026078E-03 -2.15905314E-08  4.51535588E-06
  3.93101382E-06 -1.53651895E-04 -6.54123751E-05 -2.65842328E-09 -1.76594624E-09
 -7.93740571E-05  1.63626941E-04  3.76994329E-05  7.88060091E-05  4.18403872E-09
 -3.57191565E-03 -1.46258684E-04  2.13807438E-03 -9.04070392E-08  7.01344165E-06
 -4.53708674E-05  2.85498838E-05 -1.26808498E-05 -2.48841340E-09  1.36968732E-08
  2.60794329E-05  4.51113737E-04 -1.23783224E-04 -4.10866437E-04 -1.72352648E-04
  2.13489459E-03 -4.76619036E-05 -4.13559374E-04 -2.56035906E-04 -3.99135402E-04
 -1.56664207E-05 -6.91303888E-05 -1.22957096E-05 -1.82263202E-05  6.08204822E-09
  2.81712010E-04  1.37491423E-04  1.89345972E-04 -2.91075803E-08 -3.23678799E-05
 -4.44923734E-05 -5.17852968E-05  4.77223429E-05 -3.94601346E-09 -2.77266257E-09
 -1.32872570E-05 -7.59563567E-05 -2.83520042E-05 -1.39349425E-05  8.57645502E-10
  6.15404433E-04  2.94269454E-04  1.48069507E-04 -5.87918998E-09 -3.22954350E-05
 -2.86887624E-05 -4.14137804E-05  1.11740665E-06  4.03571768E-09  1.45865086E-09
  9.95371712E-01  2.75122306E-02 -1.24374175E-05 -2.86363387E-04 -1.84160701E-08
 -1.44052202E-02  1.29558980E-03  2.28311428E-03  8.74053524E-08 -1.46454065E-03
 -1.66596706E-03 -2.34858417E-03 -1.43710717E-04  1.98510832E-08 -1.32343930E-08
  1.64469076E-02  3.39101418E-04  1.24390865E-04 -1.14547672E-04  1.56713945E-09
  5.14975257E-03 -1.94506089E-03  1.28441504E-03 -5.40279906E-08 -3.28399310E-04
 -6.10069544E-04 -1.88056174E-04  1.24875772E-04 -2.60421906E-09 -6.43060127E-10
 -1.97329882E-04 -1.38075678E-04  9.91527638E-06 -3.33775040E-05 -3.26303458E-09
 -1.22131915E-03  2.14203467E-04 -4.35825340E-04  3.60941724E-08  4.45838999E-05
  1.09100448E-04 -2.71622741E-05  2.43375080E-05 -2.04509077E-09  3.58586791E-09
 -7.55965207E-05 -7.42810153E-05 -2.44989531E-05 -2.09847282E-05 -8.41438525E-09
 -1.49802318E-03 -5.13626141E-04 -5.80749256E-04  5.81623959E-08  4.42495201E-05
  4.44577306E-05 -6.88107152E-06  4.33666876E-05  5.39948732E-09 -3.71895815E-09
  1.93010230E-02  1.91551930E-04 -1.76697357E-04  5.08251695E-05 -6.80654516E-09
  5.87818725E-03  1.90431416E-03 -1.53497847E-03  5.81072541E-08 -4.46543548E-04
 -3.26073176E-04 -1.75998049E-04 -4.67887314E-05 -1.30298879E-08 -3.72689820E-09