18622355                                                                
Freq      RMP2-FC                                                     6-31G(d)            
Number of atoms                            I               16
Info1-9                                    I   N=           9
          28          26        1002           0           0         100
           6           2           1
Charge                                     I                0
Multiplicity                               I                1
Number of electrons                        I               60
Number of alpha electrons                  I               30
Number of beta electrons                   I               30
Number of basis functions                  I              136
Number of independent functions            I              136
Number of point charges in /Mol/           I                0
Number of translation vectors              I                0
Atomic numbers                             I   N=          16
           8           7           7           6           6           6
           6           6           1           1           1           1
           1           1           1           1
Nuclear charges                            R   N=          16
  8.00000000E+00  7.00000000E+00  7.00000000E+00  6.00000000E+00  6.00000000E+00
  6.00000000E+00  6.00000000E+00  6.00000000E+00  1.00000000E+00  1.00000000E+00
  1.00000000E+00  1.00000000E+00  1.00000000E+00  1.00000000E+00  1.00000000E+00
  1.00000000E+00
Current cartesian coordinates              R   N=          48
 -2.71621907E+00  1.28740534E+00  2.12398724E-02  1.67054171E+00  9.61570856E-01
 -6.16827013E-02  3.60839251E+00 -7.17462531E-01 -3.53474975E-02 -6.20056290E-01
 -1.97020797E-01  6.03582840E-03 -1.95112233E-01 -2.78397826E+00  4.13925194E-02
  2.16199681E+00  3.65310626E+00  3.30914292E-02  2.45717031E+00 -2.98337013E+00
  1.32577848E-02 -5.01985749E+00 -1.26686950E-01 -2.55163475E-02 -1.57422335E+00
 -4.28776434E+00  6.58009473E-02  2.25864794E+00  4.31512529E+00  1.98754664E+00
  3.96578250E+00  3.98070588E+00 -9.02892517E-01  6.48693686E-01  4.64194877E+00
 -9.55659418E-01  3.60035509E+00 -4.67983555E+00  1.30625271E-02 -6.53139281E+00
  1.26979816E+00 -2.47590316E-02 -5.16831923E+00 -1.33104588E+00  1.64930396E+00
 -5.12717749E+00 -1.28923402E+00 -1.73267798E+00
Force Field                                I                0
Int Atom Types                             I   N=          16
           0           0           0           0           0           0
           0           0           0           0           0           0
           0           0           0           0
MM charges                                 R   N=          16
  0.00000000E+00  0.00000000E+00  0.00000000E+00  0.00000000E+00  0.00000000E+00
  0.00000000E+00  0.00000000E+00  0.00000000E+00  0.00000000E+00  0.00000000E+00
  0.00000000E+00  0.00000000E+00  0.00000000E+00  0.00000000E+00  0.00000000E+00
  0.00000000E+00
Integer atomic weights                     I   N=          16
          16          14          14          12          12          12
          12          12           1           1           1           1
           1           1           1           1
Real atomic weights                        R   N=          16
  1.59949146E+01  1.40030740E+01  1.40030740E+01  1.20000000E+01  1.20000000E+01
  1.20000000E+01  1.20000000E+01  1.20000000E+01  1.00782504E+00  1.00782504E+00
  1.00782504E+00  1.00782504E+00  1.00782504E+00  1.00782504E+00  1.00782504E+00
  1.00782504E+00
Atom fragment info                         I   N=          16
           0           0           0           0           0           0
           0           0           0           0           0           0
           0           0           0           0
Atom residue num                           I   N=          16
           0           0           0           0           0           0
           0           0           0           0           0           0
           0           0           0           0
Nuclear spins                              I   N=          16
           0           2           2           0           0           0
           0           0           1           1           1           1
           1           1           1           1
Nuclear ZEff                               R   N=          16
 -5.60000000E+00 -4.55000000E+00 -4.55000000E+00 -3.60000000E+00 -3.60000000E+00
 -3.60000000E+00 -3.60000000E+00 -3.60000000E+00 -1.00000000E+00 -1.00000000E+00
 -1.00000000E+00 -1.00000000E+00 -1.00000000E+00 -1.00000000E+00 -1.00000000E+00
 -1.00000000E+00
Nuclear QMom                               R   N=          16
  0.00000000E+00  2.04400000E+00  2.04400000E+00  0.00000000E+00  0.00000000E+00
  0.00000000E+00  0.00000000E+00  0.00000000E+00  0.00000000E+00  0.00000000E+00
  0.00000000E+00  0.00000000E+00  0.00000000E+00  0.00000000E+00  0.00000000E+00
  0.00000000E+00
Nuclear GFac                               R   N=          16
  0.00000000E+00  4.03761000E-01  4.03761000E-01  0.00000000E+00  0.00000000E+00
  0.00000000E+00  0.00000000E+00  0.00000000E+00  2.79284600E+00  2.79284600E+00
  2.79284600E+00  2.79284600E+00  2.79284600E+00  2.79284600E+00  2.79284600E+00
  2.79284600E+00
MicOpt                                     I   N=          16
          -1          -1          -1          -1          -1          -1
          -1          -1          -1          -1          -1          -1
          -1          -1          -1          -1
Number of contracted shells                I               48
Number of primitive shells                 I              120
Pure/Cartesian d shells                    I                1
Pure/Cartesian f shells                    I                0
Highest angular momentum                   I                2
Largest degree of contraction              I                6
Shell types                                I   N=          48
           0          -1          -1           2           0          -1
          -1           2           0          -1          -1           2
           0          -1          -1           2           0          -1
          -1           2           0          -1          -1           2
           0          -1          -1           2           0          -1
          -1           2           0           0           0           0
           0           0           0           0           0           0
           0           0           0           0           0           0
Number of primitives per shell             I   N=          48
           6           3           1           1           6           3
           1           1           6           3           1           1
           6           3           1           1           6           3
           1           1           6           3           1           1
           6           3           1           1           6           3
           1           1           3           1           3           1
           3           1           3           1           3           1
           3           1           3           1           3           1
Shell to atom map                          I   N=          48
           1           1           1           1           2           2
           2           2           3           3           3           3
           4           4           4           4           5           5
           5           5           6           6           6           6
           7           7           7           7           8           8
           8           8           9           9          10          10
          11          11          12          12          13          13
          14          14          15          15          16          16
Primitive exponents                        R   N=         120
  5.48467166E+03  8.25234946E+02  1.88046958E+02  5.29645000E+01  1.68975704E+01
  5.79963534E+00  1.55396162E+01  3.59993359E+00  1.01376175E+00  2.70005823E-01
  8.00000000E-01  4.17351146E+03  6.27457911E+02  1.42902093E+02  4.02343293E+01
  1.28202129E+01  4.39043701E+00  1.16263619E+01  2.71627981E+00  7.72218397E-01
  2.12031498E-01  8.00000000E-01  4.17351146E+03  6.27457911E+02  1.42902093E+02
  4.02343293E+01  1.28202129E+01  4.39043701E+00  1.16263619E+01  2.71627981E+00
  7.72218397E-01  2.12031498E-01  8.00000000E-01  3.04752488E+03  4.57369518E+02
  1.03948685E+02  2.92101553E+01  9.28666296E+00  3.16392696E+00  7.86827235E+00
  1.88128854E+00  5.44249258E-01  1.68714478E-01  8.00000000E-01  3.04752488E+03
  4.57369518E+02  1.03948685E+02  2.92101553E+01  9.28666296E+00  3.16392696E+00
  7.86827235E+00  1.88128854E+00  5.44249258E-01  1.68714478E-01  8.00000000E-01
  3.04752488E+03  4.57369518E+02  1.03948685E+02  2.92101553E+01  9.28666296E+00
  3.16392696E+00  7.86827235E+00  1.88128854E+00  5.44249258E-01  1.68714478E-01
  8.00000000E-01  3.04752488E+03  4.57369518E+02  1.03948685E+02  2.92101553E+01
  9.28666296E+00  3.16392696E+00  7.86827235E+00  1.88128854E+00  5.44249258E-01
  1.68714478E-01  8.00000000E-01  3.04752488E+03  4.57369518E+02  1.03948685E+02
  2.92101553E+01  9.28666296E+00  3.16392696E+00  7.86827235E+00  1.88128854E+00
  5.44249258E-01  1.68714478E-01  8.00000000E-01  1.87311370E+01  2.82539436E+00
  6.40121692E-01  1.61277759E-01  1.87311370E+01  2.82539436E+00  6.40121692E-01
  1.61277759E-01  1.87311370E+01  2.82539436E+00  6.40121692E-01  1.61277759E-01
  1.87311370E+01  2.82539436E+00  6.40121692E-01  1.61277759E-01  1.87311370E+01
  2.82539436E+00  6.40121692E-01  1.61277759E-01  1.87311370E+01  2.82539436E+00
  6.40121692E-01  1.61277759E-01  1.87311370E+01  2.82539436E+00  6.40121692E-01
  1.61277759E-01  1.87311370E+01  2.82539436E+00  6.40121692E-01  1.61277759E-01
Contraction coefficients                   R   N=         120
  1.83107443E-03  1.39501722E-02  6.84450781E-02  2.32714336E-01  4.70192898E-01
  3.58520853E-01 -1.10777550E-01 -1.48026263E-01  1.13076702E+00  1.00000000E+00
  1.00000000E+00  1.83477216E-03  1.39946270E-02  6.85865518E-02  2.32240873E-01
  4.69069948E-01  3.60455199E-01 -1.14961182E-01 -1.69117479E-01  1.14585195E+00
  1.00000000E+00  1.00000000E+00  1.83477216E-03  1.39946270E-02  6.85865518E-02
  2.32240873E-01  4.69069948E-01  3.60455199E-01 -1.14961182E-01 -1.69117479E-01
  1.14585195E+00  1.00000000E+00  1.00000000E+00  1.83473713E-03  1.40373228E-02
  6.88426223E-02  2.32184443E-01  4.67941348E-01  3.62311985E-01 -1.19332420E-01
 -1.60854152E-01  1.14345644E+00  1.00000000E+00  1.00000000E+00  1.83473713E-03
  1.40373228E-02  6.88426223E-02  2.32184443E-01  4.67941348E-01  3.62311985E-01
 -1.19332420E-01 -1.60854152E-01  1.14345644E+00  1.00000000E+00  1.00000000E+00
  1.83473713E-03  1.40373228E-02  6.88426223E-02  2.32184443E-01  4.67941348E-01
  3.62311985E-01 -1.19332420E-01 -1.60854152E-01  1.14345644E+00  1.00000000E+00
  1.00000000E+00  1.83473713E-03  1.40373228E-02  6.88426223E-02  2.32184443E-01
  4.67941348E-01  3.62311985E-01 -1.19332420E-01 -1.60854152E-01  1.14345644E+00
  1.00000000E+00  1.00000000E+00  1.83473713E-03  1.40373228E-02  6.88426223E-02
  2.32184443E-01  4.67941348E-01  3.62311985E-01 -1.19332420E-01 -1.60854152E-01
  1.14345644E+00  1.00000000E+00  1.00000000E+00  3.34946043E-02  2.34726953E-01
  8.13757326E-01  1.00000000E+00  3.34946043E-02  2.34726953E-01  8.13757326E-01
  1.00000000E+00  3.34946043E-02  2.34726953E-01  8.13757326E-01  1.00000000E+00
  3.34946043E-02  2.34726953E-01  8.13757326E-01  1.00000000E+00  3.34946043E-02
  2.34726953E-01  8.13757326E-01  1.00000000E+00  3.34946043E-02  2.34726953E-01
  8.13757326E-01  1.00000000E+00  3.34946043E-02  2.34726953E-01  8.13757326E-01
  1.00000000E+00  3.34946043E-02  2.34726953E-01  8.13757326E-01  1.00000000E+00
P(S=P) Contraction coefficients            R   N=         120
  0.00000000E+00  0.00000000E+00  0.00000000E+00  0.00000000E+00  0.00000000E+00
  0.00000000E+00  7.08742682E-02  3.39752839E-01  7.27158577E-01  1.00000000E+00
  0.00000000E+00  0.00000000E+00  0.00000000E+00  0.00000000E+00  0.00000000E+00
  0.00000000E+00  0.00000000E+00  6.75797439E-02  3.23907296E-01  7.40895140E-01
  1.00000000E+00  0.00000000E+00  0.00000000E+00  0.00000000E+00  0.00000000E+00
  0.00000000E+00  0.00000000E+00  0.00000000E+00  6.75797439E-02  3.23907296E-01
  7.40895140E-01  1.00000000E+00  0.00000000E+00  0.00000000E+00  0.00000000E+00
  0.00000000E+00  0.00000000E+00  0.00000000E+00  0.00000000E+00  6.89990666E-02
  3.16423961E-01  7.44308291E-01  1.00000000E+00  0.00000000E+00  0.00000000E+00
  0.00000000E+00  0.00000000E+00  0.00000000E+00  0.00000000E+00  0.00000000E+00
  6.89990666E-02  3.16423961E-01  7.44308291E-01  1.00000000E+00  0.00000000E+00
  0.00000000E+00  0.00000000E+00  0.00000000E+00  0.00000000E+00  0.00000000E+00
  0.00000000E+00  6.89990666E-02  3.16423961E-01  7.44308291E-01  1.00000000E+00
  0.00000000E+00  0.00000000E+00  0.00000000E+00  0.00000000E+00  0.00000000E+00
  0.00000000E+00  0.00000000E+00  6.89990666E-02  3.16423961E-01  7.44308291E-01
  1.00000000E+00  0.00000000E+00  0.00000000E+00  0.00000000E+00  0.00000000E+00
  0.00000000E+00  0.00000000E+00  0.00000000E+00  6.89990666E-02  3.16423961E-01
  7.44308291E-01  1.00000000E+00  0.00000000E+00  0.00000000E+00  0.00000000E+00
  0.00000000E+00  0.00000000E+00  0.00000000E+00  0.00000000E+00  0.00000000E+00
  0.00000000E+00  0.00000000E+00  0.00000000E+00  0.00000000E+00  0.00000000E+00
  0.00000000E+00  0.00000000E+00  0.00000000E+00  0.00000000E+00  0.00000000E+00
  0.00000000E+00  0.00000000E+00  0.00000000E+00  0.00000000E+00  0.00000000E+00
  0.00000000E+00  0.00000000E+00  0.00000000E+00  0.00000000E+00  0.00000000E+00
  0.00000000E+00  0.00000000E+00  0.00000000E+00  0.00000000E+00  0.00000000E+00
Coordinates of each shell                  R   N=         144
 -2.71621907E+00  1.28740534E+00  2.12398724E-02 -2.71621907E+00  1.28740534E+00
  2.12398724E-02 -2.71621907E+00  1.28740534E+00  2.12398724E-02 -2.71621907E+00
  1.28740534E+00  2.12398724E-02  1.67054171E+00  9.61570856E-01 -6.16827013E-02
  1.67054171E+00  9.61570856E-01 -6.16827013E-02  1.67054171E+00  9.61570856E-01
 -6.16827013E-02  1.67054171E+00  9.61570856E-01 -6.16827013E-02  3.60839251E+00
 -7.17462531E-01 -3.53474975E-02  3.60839251E+00 -7.17462531E-01 -3.53474975E-02
  3.60839251E+00 -7.17462531E-01 -3.53474975E-02  3.60839251E+00 -7.17462531E-01
 -3.53474975E-02 -6.20056290E-01 -1.97020797E-01  6.03582840E-03 -6.20056290E-01
 -1.97020797E-01  6.03582840E-03 -6.20056290E-01 -1.97020797E-01  6.03582840E-03
 -6.20056290E-01 -1.97020797E-01  6.03582840E-03 -1.95112233E-01 -2.78397826E+00
  4.13925194E-02 -1.95112233E-01 -2.78397826E+00  4.13925194E-02 -1.95112233E-01
 -2.78397826E+00  4.13925194E-02 -1.95112233E-01 -2.78397826E+00  4.13925194E-02
  2.16199681E+00  3.65310626E+00  3.30914292E-02  2.16199681E+00  3.65310626E+00
  3.30914292E-02  2.16199681E+00  3.65310626E+00  3.30914292E-02  2.16199681E+00
  3.65310626E+00  3.30914292E-02  2.45717031E+00 -2.98337013E+00  1.32577848E-02
  2.45717031E+00 -2.98337013E+00  1.32577848E-02  2.45717031E+00 -2.98337013E+00
  1.32577848E-02  2.45717031E+00 -2.98337013E+00  1.32577848E-02 -5.01985749E+00
 -1.26686950E-01 -2.55163475E-02 -5.01985749E+00 -1.26686950E-01 -2.55163475E-02
 -5.01985749E+00 -1.26686950E-01 -2.55163475E-02 -5.01985749E+00 -1.26686950E-01
 -2.55163475E-02 -1.57422335E+00 -4.28776434E+00  6.58009473E-02 -1.57422335E+00
 -4.28776434E+00  6.58009473E-02  2.25864794E+00  4.31512529E+00  1.98754664E+00
  2.25864794E+00  4.31512529E+00  1.98754664E+00  3.96578250E+00  3.98070588E+00
 -9.02892517E-01  3.96578250E+00  3.98070588E+00 -9.02892517E-01  6.48693686E-01
  4.64194877E+00 -9.55659418E-01  6.48693686E-01  4.64194877E+00 -9.55659418E-01
  3.60035509E+00 -4.67983555E+00  1.30625271E-02  3.60035509E+00 -4.67983555E+00
  1.30625271E-02 -6.53139281E+00  1.26979816E+00 -2.47590316E-02 -6.53139281E+00
  1.26979816E+00 -2.47590316E-02 -5.16831923E+00 -1.33104588E+00  1.64930396E+00
 -5.16831923E+00 -1.33104588E+00  1.64930396E+00 -5.12717749E+00 -1.28923402E+00
 -1.73267798E+00 -5.12717749E+00 -1.28923402E+00 -1.73267798E+00
Constraint Structure                       R   N=          48
 -2.71621907E+00  1.28740534E+00  2.12398724E-02  1.67054171E+00  9.61570856E-01
 -6.16827013E-02  3.60839251E+00 -7.17462531E-01 -3.53474975E-02 -6.20056290E-01
 -1.97020797E-01  6.03582840E-03 -1.95112233E-01 -2.78397826E+00  4.13925194E-02
  2.16199681E+00  3.65310626E+00  3.30914292E-02  2.45717031E+00 -2.98337013E+00
  1.32577848E-02 -5.01985749E+00 -1.26686950E-01 -2.55163475E-02 -1.57422335E+00
 -4.28776434E+00  6.58009473E-02  2.25864794E+00  4.31512529E+00  1.98754664E+00
  3.96578250E+00  3.98070588E+00 -9.02892517E-01  6.48693686E-01  4.64194877E+00
 -9.55659418E-01  3.60035509E+00 -4.67983555E+00  1.30625271E-02 -6.53139281E+00
  1.26979816E+00 -2.47590316E-02 -5.16831923E+00 -1.33104588E+00  1.64930396E+00
 -5.12717749E+00 -1.28923402E+00 -1.73267798E+00
Num ILSW                                   I              100
ILSW                                       I   N=         100
           0           1           0           0           2           0
           0           0           0           0           0          -1
           0           0           0           0           0           0
           0           0           0           0           1           0
           1           0           0           0           0           0
           0           0      100000           0          -1           0
           0           0           0           0           0           0
           0           0           0           1           1           0
           0           0           1           0           0           0
           0           0           4          40           0           0
           0           0           0           0           0           0
           0           0           0           0           0           0
           0           0           0           0           0           0
           0           0           0           0           0           0
           0           0           0           0           0           0
           0           0           0           0           0           0
           0           0           0           0
Num RLSW                                   I               40
RLSW                                       R   N=          40
  1.00000000E+00  1.00000000E+00  1.00000000E+00  1.00000000E+00  1.00000000E+00
  0.00000000E+00  0.00000000E+00  1.00000000E+00  0.00000000E+00  0.00000000E+00
  0.00000000E+00  0.00000000E+00  1.00000000E+00  0.00000000E+00  0.00000000E+00
  0.00000000E+00  0.00000000E+00  1.00000000E+00  0.00000000E+00  0.00000000E+00
  0.00000000E+00  0.00000000E+00  1.00000000E+00  0.00000000E+00  0.00000000E+00
  0.00000000E+00  0.00000000E+00  1.00000000E+00  0.00000000E+00  0.00000000E+00
  0.00000000E+00  0.00000000E+00  0.00000000E+00  0.00000000E+00  0.00000000E+00
  0.00000000E+00  0.00000000E+00  0.00000000E+00  1.00000000E+00  1.00000000E+00
MxBond                                     I                4
NBond                                      I   N=          16
           2           3           2           3           3           4
           3           4           1           1           1           1
           1           1           1           1
IBond                                      I   N=          64
           4           8           0           0           3           4
           6           0           2           7           0           0
           1           2           5           0           4           7
           9           0           2          10          11          12
           3           5          13           0           1          14
          15          16           5           0           0           0
           6           0           0           0           6           0
           0           0           6           0           0           0
           7           0           0           0           8           0
           0           0           8           0           0           0
           8           0           0           0
RBond                                      R   N=          64
  1.00000000E+00  1.00000000E+00  0.00000000E+00  0.00000000E+00  1.50000000E+00
  1.50000000E+00  1.00000000E+00  0.00000000E+00  1.50000000E+00  1.50000000E+00
  0.00000000E+00  0.00000000E+00  1.00000000E+00  1.50000000E+00  1.50000000E+00
  0.00000000E+00  1.50000000E+00  1.50000000E+00  1.00000000E+00  0.00000000E+00
  1.00000000E+00  1.00000000E+00  1.00000000E+00  1.00000000E+00  1.50000000E+00
  1.50000000E+00  1.00000000E+00  0.00000000E+00  1.00000000E+00  1.00000000E+00
  1.00000000E+00  1.00000000E+00  1.00000000E+00  0.00000000E+00  0.00000000E+00
  0.00000000E+00  1.00000000E+00  0.00000000E+00  0.00000000E+00  0.00000000E+00
  1.00000000E+00  0.00000000E+00  0.00000000E+00  0.00000000E+00  1.00000000E+00
  0.00000000E+00  0.00000000E+00  0.00000000E+00  1.00000000E+00  0.00000000E+00
  0.00000000E+00  0.00000000E+00  1.00000000E+00  0.00000000E+00  0.00000000E+00
  0.00000000E+00  1.00000000E+00  0.00000000E+00  0.00000000E+00  0.00000000E+00
  1.00000000E+00  0.00000000E+00  0.00000000E+00  0.00000000E+00
Virial Ratio                               R      2.002673689738591E+00
SCF Energy                                 R     -3.777053156981387E+02
MP2 Energy                                 R     -3.788554797430481E+02
Total Energy                               R     -3.788554797430481E+02
Post-SCF wavefunction norm                 R      1.660299097062397E+00
RMS Force                                  R      2.165325703488311E-07
RMS Density                                R      1.715268923102344E-09
External E-field                           R   N=          35
  0.00000000E+00  0.00000000E+00  0.00000000E+00  0.00000000E+00  0.00000000E+00
  0.00000000E+00  0.00000000E+00  0.00000000E+00  0.00000000E+00  0.00000000E+00
  0.00000000E+00  0.00000000E+00  0.00000000E+00  0.00000000E+00  0.00000000E+00
  0.00000000E+00  0.00000000E+00  0.00000000E+00  0.00000000E+00  0.00000000E+00
  0.00000000E+00  0.00000000E+00  0.00000000E+00  0.00000000E+00  0.00000000E+00
  0.00000000E+00  0.00000000E+00  0.00000000E+00  0.00000000E+00  0.00000000E+00
  0.00000000E+00  0.00000000E+00  0.00000000E+00  0.00000000E+00  0.00000000E+00
IOpCl                                      I                0
IROHF                                      I                0
Alpha Orbital Energies                     R   N=         136
 -2.06129351E+01 -1.56304281E+01 -1.55724529E+01 -1.13331632E+01 -1.12986998E+01
 -1.12631307E+01 -1.12490714E+01 -1.12139129E+01 -1.43353108E+00 -1.35284795E+00
 -1.11075117E+00 -1.04600681E+00 -9.62717360E-01 -9.31903107E-01 -8.00869000E-01
 -7.67095480E-01 -7.23214277E-01 -6.77559689E-01 -6.41526949E-01 -6.29712455E-01
 -6.16708453E-01 -5.92394940E-01 -5.74657279E-01 -5.43324638E-01 -5.42132507E-01
 -5.19697444E-01 -4.96368984E-01 -4.41756887E-01 -3.44172956E-01 -3.13871072E-01
  1.88083900E-01  2.37382633E-01  2.52626309E-01  2.57608950E-01  2.81133622E-01
  2.98560024E-01  2.99490023E-01  3.12329223E-01  3.14180425E-01  3.28511484E-01
  3.41728812E-01  3.65271096E-01  4.09764861E-01  4.44182960E-01  4.97645324E-01
  5.26131930E-01  6.09594240E-01  6.43626912E-01  7.24528705E-01  7.33806128E-01
  7.40225035E-01  7.52490359E-01  7.68294072E-01  7.86130792E-01  7.99697076E-01
  8.42124178E-01  8.61309864E-01  8.75688078E-01  8.91583036E-01  9.22732939E-01
  9.40143170E-01  9.90186952E-01  1.01908020E+00  1.06908769E+00  1.08543028E+00
  1.09971370E+00  1.10991126E+00  1.11998683E+00  1.12089237E+00  1.13002685E+00
  1.15403340E+00  1.16691225E+00  1.17857113E+00  1.19518488E+00  1.20889912E+00
  1.23129909E+00  1.25614175E+00  1.32117196E+00  1.33228886E+00  1.36213710E+00
  1.45387405E+00  1.49733889E+00  1.52398644E+00  1.56786589E+00  1.60681472E+00
  1.64234054E+00  1.67078093E+00  1.68995922E+00  1.74545578E+00  1.77284967E+00
  1.78588454E+00  1.79575043E+00  1.80636636E+00  1.94481574E+00  2.06449307E+00
  2.16208221E+00  2.16623313E+00  2.21952586E+00  2.23565608E+00  2.26358274E+00
  2.32943101E+00  2.34407059E+00  2.37800792E+00  2.39083024E+00  2.43558930E+00
  2.45557062E+00  2.49209021E+00  2.52907320E+00  2.55007790E+00  2.57762902E+00
  2.59496816E+00  2.61889859E+00  2.67442724E+00  2.69252388E+00  2.71580530E+00
  2.77652368E+00  2.78569421E+00  2.92903801E+00  2.95492700E+00  2.97501525E+00
  3.04020811E+00  3.06102862E+00  3.14360362E+00  3.19852961E+00  3.23133677E+00
  3.40285744E+00  3.54013824E+00  3.62649847E+00  4.23262786E+00  4.47495280E+00
  4.55414289E+00  4.57714384E+00  4.69408054E+00  4.78285957E+00  4.79509936E+00
  5.05494631E+00
Alpha MO coefficients                      R   N=       18496
  9.94652069E-01  2.12443224E-02  7.95245797E-05 -1.33558880E-03 -2.84338659E-05
  3.83380691E-03  1.51860722E-04  8.58024497E-04  1.26528662E-05 -4.18135574E-03
 -4.08517033E-03 -3.85262191E-03 -3.73891973E-05 -4.87174735E-06 -6.37621668E-06
 -2.33860960E-05 -7.19028647E-05  2.24377536E-05  4.58776965E-06 -5.97569882E-06
  9.02353644E-04 -2.40772560E-04 -8.67638043E-05  6.01928466E-05 -1.06198075E-04
 -7.32326876E-06 -5.98958643E-05  3.02330635E-05  1.83432518E-06  3.60528221E-06
  7.28447380E-06  3.03803649E-05  8.88971530E-07  2.38296463E-06 -3.46214525E-07
 -3.35691508E-04  1.12998136E-04  1.09493658E-04 -1.25920767E-05  3.22691556E-06
  2.60815904E-05  1.42918281E-05 -1.86170800E-05  3.54807484E-06 -2.28742836E-06
 -1.17168379E-05  3.94745255E-04 -2.80745312E-04  2.16580114E-04  2.95543854E-06
 -1.95784096E-05 -4.81530130E-04 -7.65187715E-04 -5.22078955E-06 -1.00438830E-04
 -6.60418067E-05 -7.15889917E-05  3.69299490E-05 -2.29355190E-06 -1.83716498E-06
  1.13577904E-05  6.70596817E-05  8.72888597E-06  3.72446206E-06 -6.12485344E-07
 -6.65097983E-04  2.56344183E-04 -3.37831833E-04  9.37556440E-06 -1.44574666E-05
  6.57862933E-06  1.67926557E-05  5.88209558E-05 -8.91783230E-07  4.34326675E-07
  2.49990653E-06  1.18744291E-05 -2.75019804E-05 -2.05815978E-06  2.58859113E-05
  1.76718329E-05  1.19234821E-04  1.34854349E-04 -1.55758920E-04  1.39775884E-05
 -2.13030571E-05  8.63849982E-06 -1.00644196E-05 -1.45630016E-05  1.68935050E-06
 -2.38735237E-06 -4.84428678E-06  6.61378527E-06 -4.21996855E-06  4.75997292E-07
  1.37858693E-04  2.07198299E-05  2.55899533E-04 -4.96324949E-06 -1.00845384E-07
  2.09820686E-06 -8.56891303E-06  1.36925642E-05  5.19536620E-07 -3.52408376E-07
 -5.88271281E-06  2.49049976E-04  3.63670035E-04  2.23463480E-04  7.34603217E-06
  1.34835077E-05 -8.51859354E-05 -2.05601807E-04 -3.85104869E-06  1.05198081E-04
 -1.15579253E-05 -1.19782933E-05  8.91816568E-05  3.36078782E-06  9.94722878E-07
  1.89564451E-05  3.32148093E-05  1.33590976E-05  7.53813635E-05 -1.83311304E-05
 -1.13864963E-04  7.03953994E-05 -2.15128627E-04  1.69518222E-05  6.54174951E-05
  1.16371706E-05 -5.92258185E-05 -3.71811406E-05 -9.19921997E-05 -3.60378395E-05
 -9.62066005E-05 -1.56507966E-05 -1.12135632E-04 -1.54786919E-05  2.40809745E-05
  2.03003841E-06  6.18535961E-04  1.56941431E-05 -2.74749739E-04 -4.13739887E-06
 -8.12585785E-05 -4.10907004E-07 -9.06071223E-05 -1.84582672E-05 -3.59220753E-07
 -9.57175164E-07  9.95026613E-01  2.52552811E-02  2.62258879E-05 -2.49157464E-04
  1.13354974E-04 -4.82974816E-03  7.42025343E-04  1.01939915E-03 -1.40676253E-04
 -3.33360723E-03 -3.29807374E-03 -3.20400869E-03 -3.09465740E-06  2.89148333E-06
 -1.21011414E-07  5.95037615E-03  2.75710701E-04 -1.90024056E-04  1.84913172E-04
 -1.51673479E-06  1.29152925E-03 -4.99271982E-04  8.77000539E-05  2.02831974E-05
 -1.56942843E-04 -1.63015603E-04 -6.74572848E-05  6.15368263E-05 -4.10043861E-06
  4.02379089E-06  1.52923343E-05  1.23485969E-04  1.68187230E-04  1.21428364E-04
 -3.32105669E-06  2.92967721E-03  2.54247075E-03  7.91235360E-05 -1.53077383E-05
 -1.16161422E-04 -4.61489519E-05 -7.77574978E-05  1.86475328E-05  3.44070966E-06
  1.95855638E-07  1.11993374E-05  1.98868261E-06  2.96157935E-05 -4.76192667E-05
 -9.25645596E-07 -1.19057955E-03 -1.02815572E-03 -7.40614076E-04  1.87282207E-05
  4.22836892E-05  1.29549109E-05  4.28323780E-06 -1.34567889E-05  4.70794658E-08
 -6.98255529E-07 -1.03908052E-05  1.35922206E-04 -5.09454695E-05 -2.04357481E-04
  7.60185383E-06  8.15401115E-04 -9.90938155E-05 -2.74654117E-04 -2.79132669E-05
 -9.40928312E-05 -1.26038951E-04 -6.36565151E-05  1.71258628E-05  3.05144625E-06
 -1.06185964E-05 -4.86757587E-06 -9.77533538E-05 -5.13511943E-05 -5.37541581E-05
 -2.25706189E-07  4.14196338E-04 -3.54706031E-04  1.85840327E-05  1.98628745E-06
  3.14768292E-05  4.82735693E-05 -1.77214794E-05 -2.48039692E-05 -9.87527107E-07
 -1.95880272E-06 -2.28440437E-05 -9.43704644E-05 -4.65502502E-05  2.33265952E-06
 -1.38127396E-06  3.22670578E-04  2.90934371E-04 -1.58544123E-04  4.12052500E-06
 -1.52847717E-05 -4.41727506E-05 -3.20765751E-05 -6.69866924E-06  7.52519933E-08
 -7.43169042E-07 -6.60832449E-05 -4.39384738E-04 -8.36242476E-05 -2.42166222E-05
 -5.97230337E-05 -1.01923899E-04 -6.89536445E-05 -1.13321493E-04 -1.07443364E-05
  8.39252872E-05  1.01304782E-05  1.27791561E-04 -2.83966253E-05 -4.42454066E-05
 -2.62219074E-05 -4.36177390E-05 -5.07282692E-05 -2.11331409E-04 -3.70592865E-05
  4.23722601E-06  1.23594913E-07  1.42487448E-03  4.68658559E-04 -1.20554218E-04
 -3.57585948E-06 -1.31444727E-04 -1.55321666E-04 -1.31152042E-04 -1.56956906E-05
 -3.73085316E-07  2.54065144E-07 -6.12722882E-03  1.60172234E-04  1.20499245E-04
 -1.61760348E-04  3.46115236E-07  1.38464311E-03  2.56616087E-04  5.74431242E-04
  5.16467688E-06 -3.76044487E-04 -3.45629514E-04 -7.74374435E-06  3.42448627E-04