
    -----------------------------------------------------------------------
          Psi4: An Open-Source Ab Initio Electronic Structure Package
                               Psi4 1.4a3.dev225 

                         Git: Rev {master} 7105e37 


    D. G. A. Smith, L. A. Burns, A. C. Simmonett, R. M. Parrish,
    M. C. Schieber, R. Galvelis, P. Kraus, H. Kruse, R. Di Remigio,
    A. Alenaizan, A. M. James, S. Lehtola, J. P. Misiewicz, M. Scheurer,
    R. A. Shaw, J. B. Schriber, Y. Xie, Z. L. Glick, D. A. Sirianni,
    J. S. O'Brien, J. M. Waldrop, A. Kumar, E. G. Hohenstein,
    B. P. Pritchard, B. R. Brooks, H. F. Schaefer III, A. Yu. Sokolov,
    K. Patkowski, A. E. DePrince III, U. Bozkaya, R. A. King,
    F. A. Evangelista, J. M. Turney, T. D. Crawford, C. D. Sherrill,
    J. Chem. Phys. 152(18) 184108 (2020). https://doi.org/10.1063/5.0006002

                            Additional Code Authors
    E. T. Seidl, C. L. Janssen, E. F. Valeev, M. L. Leininger,
    J. F. Gonthier, R. M. Richard, H. R. McAlexander, M. Saitow, X. Wang,
    P. Verma, and M. H. Lechner

             Previous Authors, Complete List of Code Contributors,
                       and Citations for Specific Modules
    https://github.com/psi4/psi4/blob/master/codemeta.json
    https://github.com/psi4/psi4/graphs/contributors
    http://psicode.org/psi4manual/master/introduction.html#citing-psifour

    -----------------------------------------------------------------------


    Psi4 started on: Saturday, 27 February 2021 02:09PM

    Process ID: 272663
    Host:       c404-052.stampede2.tacc.utexas.edu
    PSIDATADIR: /home1/07844/xy3866/miniconda3/envs/p4env/share/psi4
    Memory:     500.0 MiB
    Threads:    32
    
  ==> Input File <==

--------------------------------------------------------------------------
#psi4
#
memory 32 gb

molecule  {
0 1
  O        0.3445260    -1.4915130    -0.1284710
  O        1.3620620     2.0495660    -0.4184890
  O       -1.2647860     2.3345150     0.4675600
  O       -2.9390480     0.0425350    -0.1674130
  O        2.8793210    -0.7013140     0.9576500
  O       -1.7069560    -2.3717120     0.0066660
  C        0.6456770     0.9144350     0.0711800
  C       -0.8241260     1.1660500    -0.2009330
  C        1.0869890    -0.3499130    -0.6435990
  C       -1.6195880    -0.0062280     0.3304940
  C        2.5464540    -0.6897970    -0.4256590
  C       -1.0085030    -1.3756800     0.0131050
  H        0.7972300     0.7916990     1.1507440
  H       -0.9848220     1.2466540    -1.2883090
  H        0.8858480    -0.2577880    -1.7199730
  H       -1.6065420     0.0748220     1.4324700
  H        3.1677010     0.0783010    -0.8925020
  H        2.7689760    -1.6509780    -0.9066980
  H        2.1781240     2.1240460     0.1069910
  H       -0.7701665     2.8902865     0.2473721
  H       -3.3011060    -0.8556610    -0.0346520
  H        2.3748870    -1.4344510     1.3537630
units angstrom
no_reorient  #important for SAPT in psi4, default
symmetry c1  #important for SAPT in psi4, default
}

set PROPERTIES_ORIGIN ["COM"]
properties('MP2/aug-cc-pvtz', properties = ['dipole'])
--------------------------------------------------------------------------

  Memory set to  29.802 GiB by Python driver.
    SCF Algorithm Type (re)set to DF.

*** tstart() called on c404-052.stampede2.tacc.utexas.edu
*** at Sat Feb 27 14:09:33 2021

   => Loading Basis Set <=

    Name: AUG-CC-PVTZ
    Role: ORBITAL
    Keyword: BASIS
    atoms 1-6   entry O          line   331 file /home1/07844/xy3866/miniconda3/envs/p4env/share/psi4/basis/aug-cc-pvtz.gbs 
    atoms 7-12  entry C          line   239 file /home1/07844/xy3866/miniconda3/envs/p4env/share/psi4/basis/aug-cc-pvtz.gbs 
    atoms 13-22 entry H          line    40 file /home1/07844/xy3866/miniconda3/envs/p4env/share/psi4/basis/aug-cc-pvtz.gbs 


         ---------------------------------------------------------
                                   SCF
               by Justin Turney, Rob Parrish, Andy Simmonett
                          and Daniel G. A. Smith
                              RHF Reference
                       32 Threads,  30517 MiB Core
         ---------------------------------------------------------

  ==> Geometry <==

    Molecular point group: c1
    Full point group: C1

    Geometry (in Angstrom), charge = 0, multiplicity = 1:

       Center              X                  Y                   Z               Mass       
    ------------   -----------------  -----------------  -----------------  -----------------
         O            0.376625683479    -1.473151616604    -0.132157378448    15.994914619570
         O            1.394161683479     2.067927383396    -0.422175378448    15.994914619570
         O           -1.232686316521     2.352876383396     0.463873621552    15.994914619570
         O           -2.906948316521     0.060896383396    -0.171099378448    15.994914619570
         O            2.911420683479    -0.682952616604     0.953963621552    15.994914619570
         O           -1.674856316521    -2.353350616604     0.002979621552    15.994914619570
         C            0.677776683479     0.932796383396     0.067493621552    12.000000000000
         C           -0.792026316521     1.184411383396    -0.204619378448    12.000000000000
         C            1.119088683479    -0.331551616604    -0.647285378448    12.000000000000
         C           -1.587488316521     0.012133383396     0.326807621552    12.000000000000
         C            2.578553683479    -0.671435616604    -0.429345378448    12.000000000000
         C           -0.976403316521    -1.357318616604     0.009418621552    12.000000000000
         H            0.829329683479     0.810060383396     1.147057621552     1.007825032230
         H           -0.952722316521     1.265015383396    -1.291995378448     1.007825032230
         H            0.917947683479    -0.239426616604    -1.723659378448     1.007825032230
         H           -1.574442316521     0.093183383396     1.428783621552     1.007825032230
         H            3.199800683479     0.096662383396    -0.896188378448     1.007825032230
         H            2.801075683479    -1.632616616604    -0.910384378448     1.007825032230
         H            2.210223683479     2.142407383396     0.103304621552     1.007825032230
         H           -0.738066816521     2.908647883396     0.243685721552     1.007825032230
         H           -3.269006316521    -0.837299616604    -0.038338378448     1.007825032230
         H            2.406986683479    -1.416089616604     1.350076621552     1.007825032230

  Running in c1 symmetry.

  Rotational constants: A =      0.04142  B =      0.02762  C =      0.01807 [cm^-1]
  Rotational constants: A =   1241.64752  B =    827.94763  C =    541.73579 [MHz]
  Nuclear repulsion =  802.788600651093475

  Charge       = 0
  Multiplicity = 1
  Electrons    = 94
  Nalpha       = 47
  Nbeta        = 47

  ==> Algorithm <==

  SCF Algorithm Type is DF.
  DIIS enabled.
  MOM disabled.
  Fractional occupation disabled.
  Guess Type is SAD.
  Energy threshold   = 1.00e-10
  Density threshold  = 1.00e-10
  Integral threshold = 1.00e-12

  ==> Primary Basis <==

  Basis Set: AUG-CC-PVTZ
    Blend: AUG-CC-PVTZ
    Number of shells: 258
    Number of basis functions: 782
    Number of Cartesian functions: 910
    Spherical Harmonics?: true
    Max angular momentum: 3

   => Loading Basis Set <=

    Name: (AUG-CC-PVTZ AUX)
    Role: JKFIT
    Keyword: DF_BASIS_SCF
    atoms 1-6   entry O          line   286 file /home1/07844/xy3866/miniconda3/envs/p4env/share/psi4/basis/aug-cc-pvtz-jkfit.gbs 
    atoms 7-12  entry C          line   162 file /home1/07844/xy3866/miniconda3/envs/p4env/share/psi4/basis/aug-cc-pvtz-jkfit.gbs 
    atoms 13-22 entry H          line    70 file /home1/07844/xy3866/miniconda3/envs/p4env/share/psi4/basis/aug-cc-pvtz-jkfit.gbs 

  ==> Integral Setup <==

  DFHelper Memory: AOs need 7.268 GiB; user supplied 22.352 GiB. Using in-core AOs.

  ==> MemDFJK: Density-Fitted J/K Matrices <==

    J tasked:                   Yes
    K tasked:                   Yes
    wK tasked:                   No
    OpenMP threads:              32
    Memory [MiB]:             22888
    Algorithm:                 Core
    Schwarz Cutoff:           1E-12
    Mask sparsity (%):      10.3352
    Fitting Condition:        1E-10

   => Auxiliary Basis Set <=

  Basis Set: (AUG-CC-PVTZ AUX)
    Blend: AUG-CC-PVTZ-JKFIT
    Number of shells: 500
    Number of basis functions: 1708
    Number of Cartesian functions: 2122
    Spherical Harmonics?: true
    Max angular momentum: 4

  Minimum eigenvalue in the overlap matrix is 2.0475047525E-06.
  Reciprocal condition number of the overlap matrix is 9.1896104851E-08.
    Using symmetric orthogonalization.

  ==> Pre-Iterations <==

  SCF Guess: Superposition of Atomic Densities via on-the-fly atomic UHF (no occupation information).

   -------------------------
    Irrep   Nso     Nmo    
   -------------------------
     A        782     782 
   -------------------------
    Total     782     782
   -------------------------

  ==> Iterations <==

                           Total Energy        Delta E     RMS |[F,P]|

   @DF-RHF iter SAD:  -681.70884606415234   -6.81709e+02   0.00000e+00 
   @DF-RHF iter   1:  -682.03235634606665   -3.23510e-01   1.16389e-03 DIIS
   @DF-RHF iter   2:  -682.30230004390285   -2.69944e-01   7.18963e-04 DIIS
   @DF-RHF iter   3:  -682.40326956575791   -1.00970e-01   1.28448e-04 DIIS
   @DF-RHF iter   4:  -682.40899737518509   -5.72781e-03   5.45928e-05 DIIS
   @DF-RHF iter   5:  -682.40988972221726   -8.92347e-04   1.22932e-05 DIIS
   @DF-RHF iter   6:  -682.40996963799455   -7.99158e-05   5.46479e-06 DIIS
   @DF-RHF iter   7:  -682.40998673102695   -1.70930e-05   2.03255e-06 DIIS
   @DF-RHF iter   8:  -682.40999056757880   -3.83655e-06   8.12320e-07 DIIS
   @DF-RHF iter   9:  -682.40999114267936   -5.75101e-07   2.72830e-07 DIIS
   @DF-RHF iter  10:  -682.40999120149581   -5.88165e-08   9.08054e-08 DIIS
   @DF-RHF iter  11:  -682.40999120744243   -5.94662e-09   3.37979e-08 DIIS
   @DF-RHF iter  12:  -682.40999120804361   -6.01176e-10   1.16153e-08 DIIS
   @DF-RHF iter  13:  -682.40999120814377   -1.00158e-10   3.50159e-09 DIIS
   @DF-RHF iter  14:  -682.40999120815968   -1.59162e-11   1.58468e-09 DIIS
   @DF-RHF iter  15:  -682.40999120816298   -3.29692e-12   7.38639e-10 DIIS
   @DF-RHF iter  16:  -682.40999120816400   -1.02318e-12   3.00900e-10 DIIS
   @DF-RHF iter  17:  -682.40999120816389    1.13687e-13   1.21446e-10 DIIS
   @DF-RHF iter  18:  -682.40999120816298    9.09495e-13   4.22523e-11 DIIS
  Energy and wave function converged.


  ==> Post-Iterations <==

    Orbital Energies [Eh]
    ---------------------

    Doubly Occupied:                                                      

       1A    -20.630560     2A    -20.599730     3A    -20.588064  
       4A    -20.576761     5A    -20.570165     6A    -20.556113  
       7A    -11.407864     8A    -11.327154     9A    -11.322689  
      10A    -11.315934    11A    -11.310245    12A    -11.308051  
      13A     -1.478759    14A     -1.445291    15A     -1.403268  
      16A     -1.391453    17A     -1.384105    18A     -1.368812  
      19A     -1.105372    20A     -1.062758    21A     -0.957435  
      22A     -0.892393    23A     -0.869767    24A     -0.803562  
      25A     -0.769245    26A     -0.743244    27A     -0.736487  
      28A     -0.711838    29A     -0.702895    30A     -0.688382  
      31A     -0.670732    32A     -0.644945    33A     -0.629637  
      34A     -0.620476    35A     -0.616459    36A     -0.592140  
      37A     -0.584535    38A     -0.566540    39A     -0.545466  
      40A     -0.535769    41A     -0.521219    42A     -0.504988  
      43A     -0.487356    44A     -0.480176    45A     -0.475661  
      46A     -0.466829    47A     -0.447566  

    Virtual:                                                              

      48A      0.023640    49A      0.029520    50A      0.033293  
      51A      0.038313    52A      0.048345    53A      0.051679  
      54A      0.052918    55A      0.058181    56A      0.067253  
      57A      0.073996    58A      0.084801    59A      0.095253  
      60A      0.100694    61A      0.107277    62A      0.110297  
      63A      0.114092    64A      0.116611    65A      0.118582  
      66A      0.122552    67A      0.127228    68A      0.131075  
      69A      0.138032    70A      0.138400    71A      0.142366  
      72A      0.144099    73A      0.149548    74A      0.153305  
      75A      0.160208    76A      0.165163    77A      0.170131  
      78A      0.176482    79A      0.184108    80A      0.189003  
      81A      0.191456    82A      0.205900    83A      0.211894  
      84A      0.217717    85A      0.223738    86A      0.227949  
      87A      0.232550    88A      0.239782    89A      0.242644  
      90A      0.247960    91A      0.251126    92A      0.257850  
      93A      0.260849    94A      0.268685    95A      0.269156  
      96A      0.272118    97A      0.274395    98A      0.279410  
      99A      0.285384   100A      0.289804   101A      0.290897  
     102A      0.292855   103A      0.298994   104A      0.303494  
     105A      0.307725   106A      0.314958   107A      0.320193  
     108A      0.329678   109A      0.331935   110A      0.333738  
     111A      0.339425   112A      0.348554   113A      0.350142  
     114A      0.354148   115A      0.359959   116A      0.363426  
     117A      0.374952   118A      0.376714   119A      0.386699  
     120A      0.390370   121A      0.394220   122A      0.396872  
     123A      0.405806   124A      0.407615   125A      0.413023  
     126A      0.416222   127A      0.421275   128A      0.425575  
     129A      0.428104   130A      0.436090   131A      0.441854  
     132A      0.444326   133A      0.449482   134A      0.455257  
     135A      0.457549   136A      0.461837   137A      0.468981  
     138A      0.470381   139A      0.477013   140A      0.480532  
     141A      0.483546   142A      0.487637   143A      0.491307  
     144A      0.498556   145A      0.500505   146A      0.508799  
     147A      0.509976   148A      0.515920   149A      0.528463  
     150A      0.532910   151A      0.537922   152A      0.540079  
     153A      0.542559   154A      0.546927   155A      0.552865  
     156A      0.553480   157A      0.562445   158A      0.568173  
     159A      0.570548   160A      0.576645   161A      0.579749  
     162A      0.585144   163A      0.585934   164A      0.593077  
     165A      0.601501   166A      0.606933   167A      0.620859  
     168A      0.625805   169A      0.625846   170A      0.631685  
     171A      0.641070   172A      0.642334   173A      0.650416  
     174A      0.653779   175A      0.660141   176A      0.665005  
     177A      0.674626   178A      0.682404   179A      0.687840  
     180A      0.697619   181A      0.700677   182A      0.703654  
     183A      0.710099   184A      0.719797   185A      0.725454  
     186A      0.736234   187A      0.736436   188A      0.743477  
     189A      0.750581   190A      0.765219   191A      0.772860  
     192A      0.780939   193A      0.788185   194A      0.797384  
     195A      0.804960   196A      0.812548   197A      0.817583  
     198A      0.826324   199A      0.831878   200A      0.833586  
     201A      0.840164   202A      0.851524   203A      0.854218  
     204A      0.858461   205A      0.867831   206A      0.870368  
     207A      0.883130   208A      0.885261   209A      0.893015  
     210A      0.897498   211A      0.900259   212A      0.906011  
     213A      0.914987   214A      0.918001   215A      0.926997  
     216A      0.936295   217A      0.939132   218A      0.947011  
     219A      0.954283   220A      0.959604   221A      0.962326  
     222A      0.967807   223A      0.981097   224A      0.987811  
     225A      0.991892   226A      0.997022   227A      1.002872  
     228A      1.010116   229A      1.016487   230A      1.027991  
     231A      1.034641   232A      1.041422   233A      1.043779  
     234A      1.047140   235A      1.056022   236A      1.057136  
     237A      1.059658   238A      1.062132   239A      1.076327  
     240A      1.078966   241A      1.086011   242A      1.089822  
     243A      1.092606   244A      1.100224   245A      1.104750  
     246A      1.107872   247A      1.112099   248A      1.122698  
     249A      1.129257   250A      1.137684   251A      1.141614  
     252A      1.144501   253A      1.146735   254A      1.155768  
     255A      1.159383   256A      1.163218   257A      1.171734  
     258A      1.173929   259A      1.182636   260A      1.190831  
     261A      1.197242   262A      1.202596   263A      1.204895  
     264A      1.217962   265A      1.223294   266A      1.225770  
     267A      1.239839   268A      1.241964   269A      1.254544  
     270A      1.257952   271A      1.263003   272A      1.269985  
     273A      1.274605   274A      1.291091   275A      1.295147  
     276A      1.298082   277A      1.305000   278A      1.313493  
     279A      1.318359   280A      1.329480   281A      1.334144  
     282A      1.347801   283A      1.355798   284A      1.362543  
     285A      1.380775   286A      1.387625   287A      1.389684  
     288A      1.396609   289A      1.407946   290A      1.410815  
     291A      1.413581   292A      1.429967   293A      1.435334  
     294A      1.437041   295A      1.441140   296A      1.449268  
     297A      1.457370   298A      1.472830   299A      1.476006  
     300A      1.480967   301A      1.487266   302A      1.497488  
     303A      1.503293   304A      1.511085   305A      1.516902  
     306A      1.529441   307A      1.533170   308A      1.544328  
     309A      1.549268   310A      1.553826   311A      1.559057  
     312A      1.567894   313A      1.573591   314A      1.589789  
     315A      1.592854   316A      1.595538   317A      1.601174  
     318A      1.613820   319A      1.618474   320A      1.619617  
     321A      1.625756   322A      1.643602   323A      1.645827  
     324A      1.649500   325A      1.657362   326A      1.666486  
     327A      1.679445   328A      1.687976   329A      1.698675  
     330A      1.701770   331A      1.703963   332A      1.713285  
     333A      1.721024   334A      1.724201   335A      1.735285  
     336A      1.741860   337A      1.755456   338A      1.756981  
     339A      1.765911   340A      1.771079   341A      1.776348  
     342A      1.786242   343A      1.796849   344A      1.800078  
     345A      1.811839   346A      1.815590   347A      1.830713  
     348A      1.834730   349A      1.840014   350A      1.842463  
     351A      1.851966   352A      1.868213   353A      1.869504  
     354A      1.883896   355A      1.892613   356A      1.895739  
     357A      1.903149   358A      1.906766   359A      1.915566  
     360A      1.920857   361A      1.927795   362A      1.934112  
     363A      1.938617   364A      1.942289   365A      1.956238  
     366A      1.967313   367A      1.975534   368A      1.986285  
     369A      1.998597   370A      2.007483   371A      2.016840  
     372A      2.025745   373A      2.034843   374A      2.041323  
     375A      2.043385   376A      2.056968   377A      2.061563  
     378A      2.074858   379A      2.083067   380A      2.097968  
     381A      2.101124   382A      2.111939   383A      2.125646  
     384A      2.137280   385A      2.143258   386A      2.166676  
     387A      2.171987   388A      2.177977   389A      2.194107  
     390A      2.195118   391A      2.205902   392A      2.236254  
     393A      2.241010   394A      2.255189   395A      2.268388  
     396A      2.271096   397A      2.291448   398A      2.298587  
     399A      2.308213   400A      2.321570   401A      2.335503  
     402A      2.354247   403A      2.374263   404A      2.378921  
     405A      2.387266   406A      2.393988   407A      2.418780  
     408A      2.433757   409A      2.435271   410A      2.457935  
     411A      2.460360   412A      2.468224   413A      2.478234  
     414A      2.498838   415A      2.513276   416A      2.529547  
     417A      2.537057   418A      2.543952   419A      2.555752  
     420A      2.571450   421A      2.581284   422A      2.594378  
     423A      2.605055   424A      2.612800   425A      2.617577  
     426A      2.625449   427A      2.641586   428A      2.649416  
     429A      2.665600   430A      2.674294   431A      2.688151  
     432A      2.703931   433A      2.708549   434A      2.714559  
     435A      2.725669   436A      2.735514   437A      2.754900  
     438A      2.766997   439A      2.779239   440A      2.783564  
     441A      2.787644   442A      2.802687   443A      2.812900  
     444A      2.825628   445A      2.834891   446A      2.842881  
     447A      2.866744   448A      2.868048   449A      2.877583  
     450A      2.886511   451A      2.892931   452A      2.897361  
     453A      2.910157   454A      2.923882   455A      2.930671  
     456A      2.947011   457A      2.964603   458A      2.972957  
     459A      2.981936   460A      2.998316   461A      3.002325  
     462A      3.022201   463A      3.029477   464A      3.034685  
     465A      3.047049   466A      3.052580   467A      3.065208  
     468A      3.081756   469A      3.089621   470A      3.103861  
     471A      3.110949   472A      3.115955   473A      3.126794  
     474A      3.133678   475A      3.148486   476A      3.158814  
     477A      3.173573   478A      3.181292   479A      3.189295  
     480A      3.198498   481A      3.210366   482A      3.220964  
     483A      3.246125   484A      3.260106   485A      3.270086  
     486A      3.273202   487A      3.276814   488A      3.299626  
     489A      3.318362   490A      3.336022   491A      3.337639  
     492A      3.353778   493A      3.374979   494A      3.385719  
     495A      3.406645   496A      3.414299   497A      3.439870  
     498A      3.465413   499A      3.499068   500A      3.519153  
     501A      3.547229   502A      3.549420   503A      3.577893  
     504A      3.604077   505A      3.609499   506A      3.615188  
     507A      3.630146   508A      3.651378   509A      3.658787  
     510A      3.669085   511A      3.682379   512A      3.688929  
     513A      3.697311   514A      3.733663   515A      3.749556  
     516A      3.755188   517A      3.765366   518A      3.790776  
     519A      3.802121   520A      3.807128   521A      3.821303  
     522A      3.845540   523A      3.850368   524A      3.872830  
     525A      3.887500   526A      3.898245   527A      3.920420  
     528A      3.932329   529A      3.944347   530A      3.948568  
     531A      3.966422   532A      3.975498   533A      3.987255  
     534A      4.005069   535A      4.023847   536A      4.033711  
     537A      4.036660   538A      4.050553   539A      4.066904  
     540A      4.074070   541A      4.082861   542A      4.100954  
     543A      4.109042   544A      4.126314   545A      4.144073  
     546A      4.144792   547A      4.156363   548A      4.170658  
     549A      4.182645   550A      4.190813   551A      4.196881  
     552A      4.215238   553A      4.222568   554A      4.226467  
     555A      4.237653   556A      4.250505   557A      4.263522  
     558A      4.269993   559A      4.289558   560A      4.296169  
     561A      4.314749   562A      4.341218   563A      4.350910  
     564A      4.359802   565A      4.360438   566A      4.377674  
     567A      4.393061   568A      4.398250   569A      4.405728  
     570A      4.413755   571A      4.421952   572A      4.444438  
     573A      4.449384   574A      4.464422   575A      4.480530  
     576A      4.489264   577A      4.493954   578A      4.515051  
     579A      4.522326   580A      4.530878   581A      4.552446  
     582A      4.555130   583A      4.565483   584A      4.587128  
     585A      4.591607   586A      4.605452   587A      4.625349  
     588A      4.635431   589A      4.639384   590A      4.653693  
     591A      4.667721   592A      4.689262   593A      4.698946  
     594A      4.724331   595A      4.739112   596A      4.743225  
     597A      4.753081   598A      4.761059   599A      4.771454  
     600A      4.787547   601A      4.816670   602A      4.827375  
     603A      4.852654   604A      4.870554   605A      4.872688  
     606A      4.884430   607A      4.905836   608A      4.911020  
     609A      4.923876   610A      4.952053   611A      4.962116  
     612A      4.968547   613A      4.986905   614A      5.008736  
     615A      5.015210   616A      5.028868   617A      5.042134  
     618A      5.054320   619A      5.066280   620A      5.075086  
     621A      5.094596   622A      5.106948   623A      5.111001  
     624A      5.137767   625A      5.155639   626A      5.175151  
     627A      5.193081   628A      5.201603   629A      5.217180  
     630A      5.233364   631A      5.237982   632A      5.251608  
     633A      5.261400   634A      5.276953   635A      5.282180  
     636A      5.299050   637A      5.320677   638A      5.323816  
     639A      5.340056   640A      5.356713   641A      5.396362  
     642A      5.398820   643A      5.418954   644A      5.425422  
     645A      5.445435   646A      5.460866   647A      5.468138  
     648A      5.469450   649A      5.485807   650A      5.504076  
     651A      5.525300   652A      5.534141   653A      5.550393  
     654A      5.567267   655A      5.597561   656A      5.626554  
     657A      5.634984   658A      5.652761   659A      5.661314  
     660A      5.684071   661A      5.698421   662A      5.731351  
     663A      5.741005   664A      5.760246   665A      5.799057  
     666A      5.816783   667A      5.842618   668A      5.876484  
     669A      5.897087   670A      5.919078   671A      5.934870  
     672A      5.979272   673A      5.999172   674A      6.010339  
     675A      6.034628   676A      6.060474   677A      6.104562  
     678A      6.130703   679A      6.168651   680A      6.225516  
     681A      6.259530   682A      6.277747   683A      6.305459  
     684A      6.357474   685A      6.406439   686A      6.433406  
     687A      6.450286   688A      6.557721   689A      6.632461  
     690A      6.665109   691A      6.690612   692A      6.709915  
     693A      6.758295   694A      6.768178   695A      6.785215  
     696A      6.797081   697A      6.837956   698A      6.852390  
     699A      6.873718   700A      6.910273   701A      6.963600  
     702A      6.976689   703A      6.997243   704A      6.997722  
     705A      7.003089   706A      7.011337   707A      7.026322  
     708A      7.045485   709A      7.052813   710A      7.065943  
     711A      7.080734   712A      7.088927   713A      7.121245  
     714A      7.148249   715A      7.155169   716A      7.183801  
     717A      7.189602   718A      7.214395   719A      7.263680  
     720A      7.324877   721A      7.330156   722A      7.338348  
     723A      7.347604   724A      7.349854   725A      7.363560  
     726A      7.375893   727A      7.406918   728A      7.419986  
     729A      7.454844   730A      7.458477   731A      7.472939  
     732A      7.511365   733A      7.519416   734A      7.527122  
     735A      7.545336   736A      7.561394   737A      7.576659  
     738A      7.631309   739A      7.642490   740A      7.670087  
     741A      7.707983   742A      7.719947   743A      7.742710  
     744A      7.755956   745A      7.777184   746A      7.828691  
     747A      7.840889   748A      7.871028   749A      7.890175  
     750A      7.915251   751A      7.941689   752A      7.961660  
     753A      7.979002   754A      8.016569   755A      8.056173  
     756A      8.074534   757A      8.080715   758A      8.109786  
     759A      8.141057   760A      8.238376   761A      8.250345  
     762A      8.300351   763A      8.328994   764A      8.483209  
     765A      8.529404   766A      8.588629   767A      8.635705  
     768A      8.687794   769A      9.030141   770A      9.191010  
     771A     15.795053   772A     16.152464   773A     16.424450  
     774A     16.514403   775A     16.931883   776A     18.109145  
     777A     18.510812   778A     18.940016   779A     19.227039  
     780A     19.598277   781A     20.793201   782A     21.232145  

    Final Occupation by Irrep:
              A 
    DOCC [    47 ]

  @DF-RHF Final Energy:  -682.40999120816298

   => Energetics <=

    Nuclear Repulsion Energy =            802.7886006510934749
    One-Electron Energy =               -2531.5594008501661847
    Two-Electron Energy =                1046.3608089909098453
    Total Energy =                       -682.4099912081628645

Computation Completed

*** tstop() called on c404-052.stampede2.tacc.utexas.edu at Sat Feb 27 14:10:28 2021
Module time:
	user time   =    1086.51 seconds =      18.11 minutes
	system time =      64.60 seconds =       1.08 minutes
	total time  =         55 seconds =       0.92 minutes
Total time:
	user time   =    1086.51 seconds =      18.11 minutes
	system time =      64.60 seconds =       1.08 minutes
	total time  =         55 seconds =       0.92 minutes
   => Loading Basis Set <=

    Name: (AUG-CC-PVTZ AUX)
    Role: RIFIT
    Keyword: DF_BASIS_MP2
    atoms 1-6   entry O          line   264 file /home1/07844/xy3866/miniconda3/envs/p4env/share/psi4/basis/aug-cc-pvtz-ri.gbs 
    atoms 7-12  entry C          line   148 file /home1/07844/xy3866/miniconda3/envs/p4env/share/psi4/basis/aug-cc-pvtz-ri.gbs 
    atoms 13-22 entry H          line    30 file /home1/07844/xy3866/miniconda3/envs/p4env/share/psi4/basis/aug-cc-pvtz-ri.gbs 


*** tstart() called on c404-052.stampede2.tacc.utexas.edu
*** at Sat Feb 27 14:10:29 2021


  //>>>>>>>>>>>>>>>>>>>>>>>>>>>>>>>>>>>//
  //               DFMP2               //
  //<<<<<<<<<<<<<<<<<<<<<<<<<<<<<<<<<<<//

	 --------------------------------------------------------
	                          DF-MP2                         
	      2nd-Order Density-Fitted Moller-Plesset Theory     
	              RMP2 Wavefunction,  32 Threads             
	                                                         
	        Rob Parrish, Justin Turney, Andy Simmonett,      
	           Ed Hohenstein, and C. David Sherrill          
	 --------------------------------------------------------

   => Auxiliary Basis Set <=

  Basis Set: (AUG-CC-PVTZ AUX)
    Blend: AUG-CC-PVTZ-RI
    Number of shells: 476
    Number of basis functions: 1732
    Number of Cartesian functions: 2182
    Spherical Harmonics?: true
    Max angular momentum: 4

	 --------------------------------------------------------
	                 NBF =   782, NAUX =  1732
	 --------------------------------------------------------
	   CLASS    FOCC     OCC    AOCC    AVIR     VIR    FVIR
	   PAIRS       0      47      47     735     735       0
	 --------------------------------------------------------

  DFHelper Memory: AOs need 7.548 GiB; user supplied 22.352 GiB. Using in-core AOs.


         ------------------------------------------------------------
                                     CPHF                           
                                  Rob Parrish                       
         ------------------------------------------------------------

  ==> Geometry <==

    Molecular point group: c1
    Full point group: C1

    Geometry (in Angstrom), charge = 0, multiplicity = 1:

       Center              X                  Y                   Z               Mass       
    ------------   -----------------  -----------------  -----------------  -----------------
         O            0.376625683479    -1.473151616604    -0.132157378448    15.994914619570
         O            1.394161683479     2.067927383396    -0.422175378448    15.994914619570
         O           -1.232686316521     2.352876383396     0.463873621552    15.994914619570
         O           -2.906948316521     0.060896383396    -0.171099378448    15.994914619570
         O            2.911420683479    -0.682952616604     0.953963621552    15.994914619570
         O           -1.674856316521    -2.353350616604     0.002979621552    15.994914619570
         C            0.677776683479     0.932796383396     0.067493621552    12.000000000000
         C           -0.792026316521     1.184411383396    -0.204619378448    12.000000000000
         C            1.119088683479    -0.331551616604    -0.647285378448    12.000000000000
         C           -1.587488316521     0.012133383396     0.326807621552    12.000000000000
         C            2.578553683479    -0.671435616604    -0.429345378448    12.000000000000
         C           -0.976403316521    -1.357318616604     0.009418621552    12.000000000000
         H            0.829329683479     0.810060383396     1.147057621552     1.007825032230
         H           -0.952722316521     1.265015383396    -1.291995378448     1.007825032230
         H            0.917947683479    -0.239426616604    -1.723659378448     1.007825032230
         H           -1.574442316521     0.093183383396     1.428783621552     1.007825032230
         H            3.199800683479     0.096662383396    -0.896188378448     1.007825032230
         H            2.801075683479    -1.632616616604    -0.910384378448     1.007825032230
         H            2.210223683479     2.142407383396     0.103304621552     1.007825032230
         H           -0.738066816521     2.908647883396     0.243685721552     1.007825032230
         H           -3.269006316521    -0.837299616604    -0.038338378448     1.007825032230
         H            2.406986683479    -1.416089616604     1.350076621552     1.007825032230

  Nuclear repulsion =  802.788600651093475
  Reference energy  = -682.409991208162978

  ==> Basis Set <==

  Basis Set: AUG-CC-PVTZ
    Blend: AUG-CC-PVTZ
    Number of shells: 258
    Number of basis functions: 782
    Number of Cartesian functions: 910
    Spherical Harmonics?: true
    Max angular momentum: 3

  ==> CGRSolver (by Rob Parrish) <==

   Number of roots    =         1
   Preconditioning    =    JACOBI
   Convergence cutoff =     1E-06
   Maximum iterations =       100

  ==> CPHFRHamiltonian (by Rob Parrish) <== 

  ==> MemDFJK: Density-Fitted J/K Matrices <==

    J tasked:                   Yes
    K tasked:                   Yes
    wK tasked:                   No
    OpenMP threads:              32
    Memory [MiB]:             22888
    Algorithm:                 Core
    Schwarz Cutoff:           1E-12
    Mask sparsity (%):       6.7353
    Fitting Condition:        1E-10

   => Auxiliary Basis Set <=

  Basis Set: (AUG-CC-PVTZ AUX)
    Blend: AUG-CC-PVTZ-JKFIT
    Number of shells: 500
    Number of basis functions: 1708
    Number of Cartesian functions: 2122
    Spherical Harmonics?: true
    Max angular momentum: 4

  ==> CPHF Iterations <==

  => Iterations <=

             Iter  Converged  Remaining    Residual
  CGR           1          0          1   9.919E-02
  CGR           2          0          1   2.647E-02
  CGR           3          0          1   1.076E-02
  CGR           4          0          1   3.490E-03
  CGR           5          0          1   1.280E-03
  CGR           6          0          1   4.266E-04
  CGR           7          0          1   1.562E-04
  CGR           8          0          1   7.538E-05
  CGR           9          0          1   2.961E-05
  CGR          10          0          1   1.139E-05
  CGR          11          0          1   4.000E-06
  CGR          12          0          1   1.180E-06
  CGR          13          1          0   4.746E-07

    CGRSolver converged.

	-----------------------------------------------------------
	 ==================> DF-MP2 Energies <==================== 
	-----------------------------------------------------------
	 Reference Energy          =    -682.4099912081629782 [Eh]
	 Singles Energy            =      -0.0000000000000000 [Eh]
	 Same-Spin Energy          =      -0.6599184772666065 [Eh]
	 Opposite-Spin Energy      =      -2.0051579344393584 [Eh]
	 Correlation Energy        =      -2.6650764117059649 [Eh]
	 Total Energy              =    -685.0750676198689462 [Eh]
	-----------------------------------------------------------
	 ================> DF-SCS-MP2 Energies <================== 
	-----------------------------------------------------------
	 SCS Same-Spin Scale       =       0.3333333333333333 [-]
	 SCS Opposite-Spin Scale   =       1.2000000000000000 [-]
	 SCS Same-Spin Energy      =      -0.2199728257555355 [Eh]
	 SCS Opposite-Spin Energy  =      -2.4061895213272302 [Eh]
	 SCS Correlation Energy    =      -2.6261623470827655 [Eh]
	 SCS Total Energy          =    -685.0361535552457326 [Eh]
	-----------------------------------------------------------



Properties will be evaluated at   0.000000,  -0.000000,   0.000000 [a0]

Properties computed using the MP2 density matrix

  Nuclear Dipole Moment: [e a0]
     X:     5.4611      Y:     2.9909      Z:    -0.5476

  Electronic Dipole Moment: [e a0]
     X:    -4.1643      Y:    -2.8397      Z:     0.4538

  Dipole Moment: [e a0]
     X:     1.2967      Y:     0.1512      Z:    -0.0938     Total:     1.3089

  Dipole Moment: [D]
     X:     3.2959      Y:     0.3842      Z:    -0.2383     Total:     3.3268


*** tstop() called on c404-052.stampede2.tacc.utexas.edu at Sat Feb 27 14:16:10 2021
Module time:
	user time   =    3387.29 seconds =      56.45 minutes
	system time =      93.78 seconds =       1.56 minutes
	total time  =        341 seconds =       5.68 minutes
Total time:
	user time   =    4474.90 seconds =      74.58 minutes
	system time =     158.41 seconds =       2.64 minutes
	total time  =        397 seconds =       6.62 minutes

    Psi4 stopped on: Saturday, 27 February 2021 02:16PM
    Psi4 wall time for execution: 0:06:38.42

*** Psi4 exiting successfully. Buy a developer a beer!
