6956                                                                    
Freq      RMP2-FC                                                     6-31G(d)            
Number of atoms                            I               20
Info1-9                                    I   N=           9
          32          30        1002           0           0         100
           6           2           1
Charge                                     I                0
Multiplicity                               I                1
Number of electrons                        I               86
Number of alpha electrons                  I               43
Number of beta electrons                   I               43
Number of basis functions                  I              196
Number of independent functions            I              196
Number of point charges in /Mol/           I                0
Number of translation vectors              I                0
Atomic numbers                             I   N=          20
           8           8           7           7           6           6
           6           6           6           6           6           6
           1           1           1           1           1           1
           1           1
Nuclear charges                            R   N=          20
  8.00000000E+00  8.00000000E+00  7.00000000E+00  7.00000000E+00  6.00000000E+00
  6.00000000E+00  6.00000000E+00  6.00000000E+00  6.00000000E+00  6.00000000E+00
  6.00000000E+00  6.00000000E+00  1.00000000E+00  1.00000000E+00  1.00000000E+00
  1.00000000E+00  1.00000000E+00  1.00000000E+00  1.00000000E+00  1.00000000E+00
Current cartesian coordinates              R   N=          60
 -8.29181564E-01  5.21705737E+00  1.57865765E+00 -4.03106286E+00 -2.12087491E+00
 -1.58222943E+00 -3.44192399E+00  3.11111279E+00 -1.12749363E+00 -2.57589482E+00
 -4.33759971E+00  1.79519897E+00  6.67241436E-01  1.29693705E+00 -5.04911528E-02
  2.40669691E-01 -1.33467416E+00 -1.11380179E-01  3.16671305E+00  2.17718477E+00
 -8.20846388E-02  2.31073491E+00 -2.99093075E+00 -2.74844839E-01  5.20373337E+00
  5.24421252E-01 -2.89498885E-01  4.77622651E+00 -2.07601990E+00 -3.92913884E-01
 -1.29506734E+00  3.35357530E+00  2.50753940E-01 -2.32362757E+00 -2.54871580E+00
 -4.21723623E-02  3.46781477E+00  4.20165600E+00  6.94856137E-02  1.96342584E+00
 -5.01553894E+00 -3.40019575E-01  7.11965069E+00  1.26372593E+00 -3.52301184E-01
  6.34964189E+00 -3.38699878E+00 -5.57442976E-01 -3.90581252E+00  1.44524645E+00
 -1.96297972E+00 -4.79888346E+00  4.42482391E+00 -8.23123163E-01 -1.36668000E+00
 -4.39021693E+00  3.27150539E+00 -4.30221452E+00 -5.13741552E+00  2.00530435E+00
Force Field                                I                0
Int Atom Types                             I   N=          20
           0           0           0           0           0           0
           0           0           0           0           0           0
           0           0           0           0           0           0
           0           0
MM charges                                 R   N=          20
  0.00000000E+00  0.00000000E+00  0.00000000E+00  0.00000000E+00  0.00000000E+00
  0.00000000E+00  0.00000000E+00  0.00000000E+00  0.00000000E+00  0.00000000E+00
  0.00000000E+00  0.00000000E+00  0.00000000E+00  0.00000000E+00  0.00000000E+00
  0.00000000E+00  0.00000000E+00  0.00000000E+00  0.00000000E+00  0.00000000E+00
Integer atomic weights                     I   N=          20
          16          16          14          14          12          12
          12          12          12          12          12          12
           1           1           1           1           1           1
           1           1
Real atomic weights                        R   N=          20
  1.59949146E+01  1.59949146E+01  1.40030740E+01  1.40030740E+01  1.20000000E+01
  1.20000000E+01  1.20000000E+01  1.20000000E+01  1.20000000E+01  1.20000000E+01
  1.20000000E+01  1.20000000E+01  1.00782504E+00  1.00782504E+00  1.00782504E+00
  1.00782504E+00  1.00782504E+00  1.00782504E+00  1.00782504E+00  1.00782504E+00
Atom fragment info                         I   N=          20
           0           0           0           0           0           0
           0           0           0           0           0           0
           0           0           0           0           0           0
           0           0
Atom residue num                           I   N=          20
           0           0           0           0           0           0
           0           0           0           0           0           0
           0           0           0           0           0           0
           0           0
Nuclear spins                              I   N=          20
           0           0           2           2           0           0
           0           0           0           0           0           0
           1           1           1           1           1           1
           1           1
Nuclear ZEff                               R   N=          20
 -5.60000000E+00 -5.60000000E+00 -4.55000000E+00 -4.55000000E+00 -3.60000000E+00
 -3.60000000E+00 -3.60000000E+00 -3.60000000E+00 -3.60000000E+00 -3.60000000E+00
 -3.60000000E+00 -3.60000000E+00 -1.00000000E+00 -1.00000000E+00 -1.00000000E+00
 -1.00000000E+00 -1.00000000E+00 -1.00000000E+00 -1.00000000E+00 -1.00000000E+00
Nuclear QMom                               R   N=          20
  0.00000000E+00  0.00000000E+00  2.04400000E+00  2.04400000E+00  0.00000000E+00
  0.00000000E+00  0.00000000E+00  0.00000000E+00  0.00000000E+00  0.00000000E+00
  0.00000000E+00  0.00000000E+00  0.00000000E+00  0.00000000E+00  0.00000000E+00
  0.00000000E+00  0.00000000E+00  0.00000000E+00  0.00000000E+00  0.00000000E+00
Nuclear GFac                               R   N=          20
  0.00000000E+00  0.00000000E+00  4.03761000E-01  4.03761000E-01  0.00000000E+00
  0.00000000E+00  0.00000000E+00  0.00000000E+00  0.00000000E+00  0.00000000E+00
  0.00000000E+00  0.00000000E+00  2.79284600E+00  2.79284600E+00  2.79284600E+00
  2.79284600E+00  2.79284600E+00  2.79284600E+00  2.79284600E+00  2.79284600E+00
MicOpt                                     I   N=          20
          -1          -1          -1          -1          -1          -1
          -1          -1          -1          -1          -1          -1
          -1          -1          -1          -1          -1          -1
          -1          -1
Number of contracted shells                I               64
Number of primitive shells                 I              164
Pure/Cartesian d shells                    I                1
Pure/Cartesian f shells                    I                0
Highest angular momentum                   I                2
Largest degree of contraction              I                6
Shell types                                I   N=          64
           0          -1          -1           2           0          -1
          -1           2           0          -1          -1           2
           0          -1          -1           2           0          -1
          -1           2           0          -1          -1           2
           0          -1          -1           2           0          -1
          -1           2           0          -1          -1           2
           0          -1          -1           2           0          -1
          -1           2           0          -1          -1           2
           0           0           0           0           0           0
           0           0           0           0           0           0
           0           0           0           0
Number of primitives per shell             I   N=          64
           6           3           1           1           6           3
           1           1           6           3           1           1
           6           3           1           1           6           3
           1           1           6           3           1           1
           6           3           1           1           6           3
           1           1           6           3           1           1
           6           3           1           1           6           3
           1           1           6           3           1           1
           3           1           3           1           3           1
           3           1           3           1           3           1
           3           1           3           1
Shell to atom map                          I   N=          64
           1           1           1           1           2           2
           2           2           3           3           3           3
           4           4           4           4           5           5
           5           5           6           6           6           6
           7           7           7           7           8           8
           8           8           9           9           9           9
          10          10          10          10          11          11
          11          11          12          12          12          12
          13          13          14          14          15          15
          16          16          17          17          18          18
          19          19          20          20
Primitive exponents                        R   N=         164
  5.48467166E+03  8.25234946E+02  1.88046958E+02  5.29645000E+01  1.68975704E+01
  5.79963534E+00  1.55396162E+01  3.59993359E+00  1.01376175E+00  2.70005823E-01
  8.00000000E-01  5.48467166E+03  8.25234946E+02  1.88046958E+02  5.29645000E+01
  1.68975704E+01  5.79963534E+00  1.55396162E+01  3.59993359E+00  1.01376175E+00
  2.70005823E-01  8.00000000E-01  4.17351146E+03  6.27457911E+02  1.42902093E+02
  4.02343293E+01  1.28202129E+01  4.39043701E+00  1.16263619E+01  2.71627981E+00
  7.72218397E-01  2.12031498E-01  8.00000000E-01  4.17351146E+03  6.27457911E+02
  1.42902093E+02  4.02343293E+01  1.28202129E+01  4.39043701E+00  1.16263619E+01
  2.71627981E+00  7.72218397E-01  2.12031498E-01  8.00000000E-01  3.04752488E+03
  4.57369518E+02  1.03948685E+02  2.92101553E+01  9.28666296E+00  3.16392696E+00
  7.86827235E+00  1.88128854E+00  5.44249258E-01  1.68714478E-01  8.00000000E-01
  3.04752488E+03  4.57369518E+02  1.03948685E+02  2.92101553E+01  9.28666296E+00
  3.16392696E+00  7.86827235E+00  1.88128854E+00  5.44249258E-01  1.68714478E-01
  8.00000000E-01  3.04752488E+03  4.57369518E+02  1.03948685E+02  2.92101553E+01
  9.28666296E+00  3.16392696E+00  7.86827235E+00  1.88128854E+00  5.44249258E-01
  1.68714478E-01  8.00000000E-01  3.04752488E+03  4.57369518E+02  1.03948685E+02
  2.92101553E+01  9.28666296E+00  3.16392696E+00  7.86827235E+00  1.88128854E+00
  5.44249258E-01  1.68714478E-01  8.00000000E-01  3.04752488E+03  4.57369518E+02
  1.03948685E+02  2.92101553E+01  9.28666296E+00  3.16392696E+00  7.86827235E+00
  1.88128854E+00  5.44249258E-01  1.68714478E-01  8.00000000E-01  3.04752488E+03
  4.57369518E+02  1.03948685E+02  2.92101553E+01  9.28666296E+00  3.16392696E+00
  7.86827235E+00  1.88128854E+00  5.44249258E-01  1.68714478E-01  8.00000000E-01
  3.04752488E+03  4.57369518E+02  1.03948685E+02  2.92101553E+01  9.28666296E+00
  3.16392696E+00  7.86827235E+00  1.88128854E+00  5.44249258E-01  1.68714478E-01
  8.00000000E-01  3.04752488E+03  4.57369518E+02  1.03948685E+02  2.92101553E+01
  9.28666296E+00  3.16392696E+00  7.86827235E+00  1.88128854E+00  5.44249258E-01
  1.68714478E-01  8.00000000E-01  1.87311370E+01  2.82539436E+00  6.40121692E-01
  1.61277759E-01  1.87311370E+01  2.82539436E+00  6.40121692E-01  1.61277759E-01
  1.87311370E+01  2.82539436E+00  6.40121692E-01  1.61277759E-01  1.87311370E+01
  2.82539436E+00  6.40121692E-01  1.61277759E-01  1.87311370E+01  2.82539436E+00
  6.40121692E-01  1.61277759E-01  1.87311370E+01  2.82539436E+00  6.40121692E-01
  1.61277759E-01  1.87311370E+01  2.82539436E+00  6.40121692E-01  1.61277759E-01
  1.87311370E+01  2.82539436E+00  6.40121692E-01  1.61277759E-01
Contraction coefficients                   R   N=         164
  1.83107443E-03  1.39501722E-02  6.84450781E-02  2.32714336E-01  4.70192898E-01
  3.58520853E-01 -1.10777550E-01 -1.48026263E-01  1.13076702E+00  1.00000000E+00
  1.00000000E+00  1.83107443E-03  1.39501722E-02  6.84450781E-02  2.32714336E-01
  4.70192898E-01  3.58520853E-01 -1.10777550E-01 -1.48026263E-01  1.13076702E+00
  1.00000000E+00  1.00000000E+00  1.83477216E-03  1.39946270E-02  6.85865518E-02
  2.32240873E-01  4.69069948E-01  3.60455199E-01 -1.14961182E-01 -1.69117479E-01
  1.14585195E+00  1.00000000E+00  1.00000000E+00  1.83477216E-03  1.39946270E-02
  6.85865518E-02  2.32240873E-01  4.69069948E-01  3.60455199E-01 -1.14961182E-01
 -1.69117479E-01  1.14585195E+00  1.00000000E+00  1.00000000E+00  1.83473713E-03
  1.40373228E-02  6.88426223E-02  2.32184443E-01  4.67941348E-01  3.62311985E-01
 -1.19332420E-01 -1.60854152E-01  1.14345644E+00  1.00000000E+00  1.00000000E+00
  1.83473713E-03  1.40373228E-02  6.88426223E-02  2.32184443E-01  4.67941348E-01
  3.62311985E-01 -1.19332420E-01 -1.60854152E-01  1.14345644E+00  1.00000000E+00
  1.00000000E+00  1.83473713E-03  1.40373228E-02  6.88426223E-02  2.32184443E-01
  4.67941348E-01  3.62311985E-01 -1.19332420E-01 -1.60854152E-01  1.14345644E+00
  1.00000000E+00  1.00000000E+00  1.83473713E-03  1.40373228E-02  6.88426223E-02
  2.32184443E-01  4.67941348E-01  3.62311985E-01 -1.19332420E-01 -1.60854152E-01
  1.14345644E+00  1.00000000E+00  1.00000000E+00  1.83473713E-03  1.40373228E-02
  6.88426223E-02  2.32184443E-01  4.67941348E-01  3.62311985E-01 -1.19332420E-01
 -1.60854152E-01  1.14345644E+00  1.00000000E+00  1.00000000E+00  1.83473713E-03
  1.40373228E-02  6.88426223E-02  2.32184443E-01  4.67941348E-01  3.62311985E-01
 -1.19332420E-01 -1.60854152E-01  1.14345644E+00  1.00000000E+00  1.00000000E+00
  1.83473713E-03  1.40373228E-02  6.88426223E-02  2.32184443E-01  4.67941348E-01
  3.62311985E-01 -1.19332420E-01 -1.60854152E-01  1.14345644E+00  1.00000000E+00
  1.00000000E+00  1.83473713E-03  1.40373228E-02  6.88426223E-02  2.32184443E-01
  4.67941348E-01  3.62311985E-01 -1.19332420E-01 -1.60854152E-01  1.14345644E+00
  1.00000000E+00  1.00000000E+00  3.34946043E-02  2.34726953E-01  8.13757326E-01
  1.00000000E+00  3.34946043E-02  2.34726953E-01  8.13757326E-01  1.00000000E+00
  3.34946043E-02  2.34726953E-01  8.13757326E-01  1.00000000E+00  3.34946043E-02
  2.34726953E-01  8.13757326E-01  1.00000000E+00  3.34946043E-02  2.34726953E-01
  8.13757326E-01  1.00000000E+00  3.34946043E-02  2.34726953E-01  8.13757326E-01
  1.00000000E+00  3.34946043E-02  2.34726953E-01  8.13757326E-01  1.00000000E+00
  3.34946043E-02  2.34726953E-01  8.13757326E-01  1.00000000E+00
P(S=P) Contraction coefficients            R   N=         164
  0.00000000E+00  0.00000000E+00  0.00000000E+00  0.00000000E+00  0.00000000E+00
  0.00000000E+00  7.08742682E-02  3.39752839E-01  7.27158577E-01  1.00000000E+00
  0.00000000E+00  0.00000000E+00  0.00000000E+00  0.00000000E+00  0.00000000E+00
  0.00000000E+00  0.00000000E+00  7.08742682E-02  3.39752839E-01  7.27158577E-01
  1.00000000E+00  0.00000000E+00  0.00000000E+00  0.00000000E+00  0.00000000E+00
  0.00000000E+00  0.00000000E+00  0.00000000E+00  6.75797439E-02  3.23907296E-01
  7.40895140E-01  1.00000000E+00  0.00000000E+00  0.00000000E+00  0.00000000E+00
  0.00000000E+00  0.00000000E+00  0.00000000E+00  0.00000000E+00  6.75797439E-02
  3.23907296E-01  7.40895140E-01  1.00000000E+00  0.00000000E+00  0.00000000E+00
  0.00000000E+00  0.00000000E+00  0.00000000E+00  0.00000000E+00  0.00000000E+00
  6.89990666E-02  3.16423961E-01  7.44308291E-01  1.00000000E+00  0.00000000E+00
  0.00000000E+00  0.00000000E+00  0.00000000E+00  0.00000000E+00  0.00000000E+00
  0.00000000E+00  6.89990666E-02  3.16423961E-01  7.44308291E-01  1.00000000E+00
  0.00000000E+00  0.00000000E+00  0.00000000E+00  0.00000000E+00  0.00000000E+00
  0.00000000E+00  0.00000000E+00  6.89990666E-02  3.16423961E-01  7.44308291E-01
  1.00000000E+00  0.00000000E+00  0.00000000E+00  0.00000000E+00  0.00000000E+00
  0.00000000E+00  0.00000000E+00  0.00000000E+00  6.89990666E-02  3.16423961E-01
  7.44308291E-01  1.00000000E+00  0.00000000E+00  0.00000000E+00  0.00000000E+00
  0.00000000E+00  0.00000000E+00  0.00000000E+00  0.00000000E+00  6.89990666E-02
  3.16423961E-01  7.44308291E-01  1.00000000E+00  0.00000000E+00  0.00000000E+00
  0.00000000E+00  0.00000000E+00  0.00000000E+00  0.00000000E+00  0.00000000E+00
  6.89990666E-02  3.16423961E-01  7.44308291E-01  1.00000000E+00  0.00000000E+00
  0.00000000E+00  0.00000000E+00  0.00000000E+00  0.00000000E+00  0.00000000E+00
  0.00000000E+00  6.89990666E-02  3.16423961E-01  7.44308291E-01  1.00000000E+00
  0.00000000E+00  0.00000000E+00  0.00000000E+00  0.00000000E+00  0.00000000E+00
  0.00000000E+00  0.00000000E+00  6.89990666E-02  3.16423961E-01  7.44308291E-01
  1.00000000E+00  0.00000000E+00  0.00000000E+00  0.00000000E+00  0.00000000E+00
  0.00000000E+00  0.00000000E+00  0.00000000E+00  0.00000000E+00  0.00000000E+00
  0.00000000E+00  0.00000000E+00  0.00000000E+00  0.00000000E+00  0.00000000E+00
  0.00000000E+00  0.00000000E+00  0.00000000E+00  0.00000000E+00  0.00000000E+00
  0.00000000E+00  0.00000000E+00  0.00000000E+00  0.00000000E+00  0.00000000E+00
  0.00000000E+00  0.00000000E+00  0.00000000E+00  0.00000000E+00  0.00000000E+00
  0.00000000E+00  0.00000000E+00  0.00000000E+00  0.00000000E+00
Coordinates of each shell                  R   N=         192
 -8.29181564E-01  5.21705737E+00  1.57865765E+00 -8.29181564E-01  5.21705737E+00
  1.57865765E+00 -8.29181564E-01  5.21705737E+00  1.57865765E+00 -8.29181564E-01
  5.21705737E+00  1.57865765E+00 -4.03106286E+00 -2.12087491E+00 -1.58222943E+00
 -4.03106286E+00 -2.12087491E+00 -1.58222943E+00 -4.03106286E+00 -2.12087491E+00
 -1.58222943E+00 -4.03106286E+00 -2.12087491E+00 -1.58222943E+00 -3.44192399E+00
  3.11111279E+00 -1.12749363E+00 -3.44192399E+00  3.11111279E+00 -1.12749363E+00
 -3.44192399E+00  3.11111279E+00 -1.12749363E+00 -3.44192399E+00  3.11111279E+00
 -1.12749363E+00 -2.57589482E+00 -4.33759971E+00  1.79519897E+00 -2.57589482E+00
 -4.33759971E+00  1.79519897E+00 -2.57589482E+00 -4.33759971E+00  1.79519897E+00
 -2.57589482E+00 -4.33759971E+00  1.79519897E+00  6.67241436E-01  1.29693705E+00
 -5.04911528E-02  6.67241436E-01  1.29693705E+00 -5.04911528E-02  6.67241436E-01
  1.29693705E+00 -5.04911528E-02  6.67241436E-01  1.29693705E+00 -5.04911528E-02
  2.40669691E-01 -1.33467416E+00 -1.11380179E-01  2.40669691E-01 -1.33467416E+00
 -1.11380179E-01  2.40669691E-01 -1.33467416E+00 -1.11380179E-01  2.40669691E-01
 -1.33467416E+00 -1.11380179E-01  3.16671305E+00  2.17718477E+00 -8.20846388E-02
  3.16671305E+00  2.17718477E+00 -8.20846388E-02  3.16671305E+00  2.17718477E+00
 -8.20846388E-02  3.16671305E+00  2.17718477E+00 -8.20846388E-02  2.31073491E+00
 -2.99093075E+00 -2.74844839E-01  2.31073491E+00 -2.99093075E+00 -2.74844839E-01
  2.31073491E+00 -2.99093075E+00 -2.74844839E-01  2.31073491E+00 -2.99093075E+00
 -2.74844839E-01  5.20373337E+00  5.24421252E-01 -2.89498885E-01  5.20373337E+00
  5.24421252E-01 -2.89498885E-01  5.20373337E+00  5.24421252E-01 -2.89498885E-01
  5.20373337E+00  5.24421252E-01 -2.89498885E-01  4.77622651E+00 -2.07601990E+00
 -3.92913884E-01  4.77622651E+00 -2.07601990E+00 -3.92913884E-01  4.77622651E+00
 -2.07601990E+00 -3.92913884E-01  4.77622651E+00 -2.07601990E+00 -3.92913884E-01
 -1.29506734E+00  3.35357530E+00  2.50753940E-01 -1.29506734E+00  3.35357530E+00
  2.50753940E-01 -1.29506734E+00  3.35357530E+00  2.50753940E-01 -1.29506734E+00
  3.35357530E+00  2.50753940E-01 -2.32362757E+00 -2.54871580E+00 -4.21723623E-02
 -2.32362757E+00 -2.54871580E+00 -4.21723623E-02 -2.32362757E+00 -2.54871580E+00
 -4.21723623E-02 -2.32362757E+00 -2.54871580E+00 -4.21723623E-02  3.46781477E+00
  4.20165600E+00  6.94856137E-02  3.46781477E+00  4.20165600E+00  6.94856137E-02
  1.96342584E+00 -5.01553894E+00 -3.40019575E-01  1.96342584E+00 -5.01553894E+00
 -3.40019575E-01  7.11965069E+00  1.26372593E+00 -3.52301184E-01  7.11965069E+00
  1.26372593E+00 -3.52301184E-01  6.34964189E+00 -3.38699878E+00 -5.57442976E-01
  6.34964189E+00 -3.38699878E+00 -5.57442976E-01 -3.90581252E+00  1.44524645E+00
 -1.96297972E+00 -3.90581252E+00  1.44524645E+00 -1.96297972E+00 -4.79888346E+00
  4.42482391E+00 -8.23123163E-01 -4.79888346E+00  4.42482391E+00 -8.23123163E-01
 -1.36668000E+00 -4.39021693E+00  3.27150539E+00 -1.36668000E+00 -4.39021693E+00
  3.27150539E+00 -4.30221452E+00 -5.13741552E+00  2.00530435E+00 -4.30221452E+00
 -5.13741552E+00  2.00530435E+00
Constraint Structure                       R   N=          60
 -8.29181564E-01  5.21705737E+00  1.57865765E+00 -4.03106286E+00 -2.12087491E+00
 -1.58222943E+00 -3.44192399E+00  3.11111279E+00 -1.12749363E+00 -2.57589482E+00
 -4.33759971E+00  1.79519897E+00  6.67241436E-01  1.29693705E+00 -5.04911528E-02
  2.40669691E-01 -1.33467416E+00 -1.11380179E-01  3.16671305E+00  2.17718477E+00
 -8.20846388E-02  2.31073491E+00 -2.99093075E+00 -2.74844839E-01  5.20373337E+00
  5.24421252E-01 -2.89498885E-01  4.77622651E+00 -2.07601990E+00 -3.92913884E-01
 -1.29506734E+00  3.35357530E+00  2.50753940E-01 -2.32362757E+00 -2.54871580E+00
 -4.21723623E-02  3.46781477E+00  4.20165600E+00  6.94856137E-02  1.96342584E+00
 -5.01553894E+00 -3.40019575E-01  7.11965069E+00  1.26372593E+00 -3.52301184E-01
  6.34964189E+00 -3.38699878E+00 -5.57442976E-01 -3.90581252E+00  1.44524645E+00
 -1.96297972E+00 -4.79888346E+00  4.42482391E+00 -8.23123163E-01 -1.36668000E+00
 -4.39021693E+00  3.27150539E+00 -4.30221452E+00 -5.13741552E+00  2.00530435E+00
Num ILSW                                   I              100
ILSW                                       I   N=         100
           0           1           0           0           2           0
           0           0           0           0           0          -1
           0           0           0           0           0           0
           0           0           0           0           1           0
           1           0           0           0           0           0
           0           0      100000           0          -1           0
           0           0           0           0           0           0
           0           0           0           1           1           0
           0           0           1           0           0           0
           0           0           4          40           0           0
           0           0           0           0           0           0
           0           0           0           0           0           0
           0           0           0           0           0           0
           0           0           0           0           0           0
           0           0           0           0           0           0
           0           0           0           0           0           0
           0           0           0           0
Num RLSW                                   I               40
RLSW                                       R   N=          40
  1.00000000E+00  1.00000000E+00  1.00000000E+00  1.00000000E+00  1.00000000E+00
  0.00000000E+00  0.00000000E+00  1.00000000E+00  0.00000000E+00  0.00000000E+00
  0.00000000E+00  0.00000000E+00  1.00000000E+00  0.00000000E+00  0.00000000E+00
  0.00000000E+00  0.00000000E+00  1.00000000E+00  0.00000000E+00  0.00000000E+00
  0.00000000E+00  0.00000000E+00  1.00000000E+00  0.00000000E+00  0.00000000E+00
  0.00000000E+00  0.00000000E+00  1.00000000E+00  0.00000000E+00  0.00000000E+00
  0.00000000E+00  0.00000000E+00  0.00000000E+00  0.00000000E+00  0.00000000E+00
  0.00000000E+00  0.00000000E+00  0.00000000E+00  1.00000000E+00  1.00000000E+00
MxBond                                     I                3
NBond                                      I   N=          20
           1           1           3           3           3           3
           3           3           3           3           3           3
           1           1           1           1           1           1
           1           1
IBond                                      I   N=          60
          11           0           0          12           0           0
          11          17          18          12          19          20
           6           7          11           5           8          12
           5           9          13           6          10          14
           7          10          15           8           9          16
           1           3           5           2           4           6
           7           0           0           8           0           0
           9           0           0          10           0           0
           3           0           0           3           0           0
           4           0           0           4           0           0
RBond                                      R   N=          60
  2.00000000E+00  0.00000000E+00  0.00000000E+00  2.00000000E+00  0.00000000E+00
  0.00000000E+00  1.00000000E+00  1.00000000E+00  1.00000000E+00  1.00000000E+00
  1.00000000E+00  1.00000000E+00  1.50000000E+00  1.50000000E+00  1.00000000E+00
  1.50000000E+00  1.50000000E+00  1.00000000E+00  1.50000000E+00  1.50000000E+00
  1.00000000E+00  1.50000000E+00  1.50000000E+00  1.00000000E+00  1.50000000E+00
  1.50000000E+00  1.00000000E+00  1.50000000E+00  1.50000000E+00  1.00000000E+00
  2.00000000E+00  1.00000000E+00  1.00000000E+00  2.00000000E+00  1.00000000E+00
  1.00000000E+00  1.00000000E+00  0.00000000E+00  0.00000000E+00  1.00000000E+00
  0.00000000E+00  0.00000000E+00  1.00000000E+00  0.00000000E+00  0.00000000E+00
  1.00000000E+00  0.00000000E+00  0.00000000E+00  1.00000000E+00  0.00000000E+00
  0.00000000E+00  1.00000000E+00  0.00000000E+00  0.00000000E+00  1.00000000E+00
  0.00000000E+00  0.00000000E+00  1.00000000E+00  0.00000000E+00  0.00000000E+00
Virial Ratio                               R      2.002848240196553E+00
SCF Energy                                 R     -5.662618698872594E+02
MP2 Energy                                 R     -5.679533931393672E+02
Total Energy                               R     -5.679533931393672E+02
Post-SCF wavefunction norm                 R      1.770549395217881E+00
RMS Force                                  R      9.639526293184221E-07
RMS Density                                R      2.605787384764813E-09
External E-field                           R   N=          35
  0.00000000E+00  0.00000000E+00  0.00000000E+00  0.00000000E+00  0.00000000E+00
  0.00000000E+00  0.00000000E+00  0.00000000E+00  0.00000000E+00  0.00000000E+00
  0.00000000E+00  0.00000000E+00  0.00000000E+00  0.00000000E+00  0.00000000E+00
  0.00000000E+00  0.00000000E+00  0.00000000E+00  0.00000000E+00  0.00000000E+00
  0.00000000E+00  0.00000000E+00  0.00000000E+00  0.00000000E+00  0.00000000E+00
  0.00000000E+00  0.00000000E+00  0.00000000E+00  0.00000000E+00  0.00000000E+00
  0.00000000E+00  0.00000000E+00  0.00000000E+00  0.00000000E+00  0.00000000E+00
IOpCl                                      I                0
IROHF                                      I                0
Alpha Orbital Energies                     R   N=         196
 -2.05508985E+01 -2.05168226E+01 -1.56104247E+01 -1.55715906E+01 -1.13852948E+01
 -1.13553609E+01 -1.12774856E+01 -1.12699624E+01 -1.12640555E+01 -1.12603481E+01
 -1.12568120E+01 -1.12534984E+01 -1.39629615E+00 -1.36303047E+00 -1.23206044E+00
 -1.19758154E+00 -1.16999568E+00 -1.05077629E+00 -1.04192321E+00 -9.03431834E-01
 -8.64199030E-01 -8.17424797E-01 -7.82433479E-01 -7.59129094E-01 -7.19557441E-01
 -6.97739772E-01 -6.81033738E-01 -6.53735308E-01 -6.43358113E-01 -6.24847457E-01
 -6.05795264E-01 -5.85774552E-01 -5.74298437E-01 -5.59429187E-01 -5.33145225E-01
 -5.18097754E-01 -5.10843533E-01 -4.47533527E-01 -4.32467237E-01 -4.19741698E-01
 -3.92990013E-01 -3.56773171E-01 -3.50099264E-01  9.02171689E-02  1.12840295E-01
  1.84438257E-01  2.12486461E-01  2.32214257E-01  2.37359133E-01  2.64331247E-01
  2.66439428E-01  2.91609606E-01  3.11516763E-01  3.27264394E-01  3.48630865E-01
  3.62152635E-01  4.13270814E-01  4.20001723E-01  4.58810628E-01  4.74202304E-01
  4.93289932E-01  5.17793826E-01  5.25617403E-01  5.66675709E-01  5.98279883E-01
  6.15014678E-01  6.82095605E-01  7.11908142E-01  7.23529235E-01  7.35523457E-01
  7.41424543E-01  7.60199958E-01  7.89353849E-01  7.92564769E-01  8.03299428E-01
  8.16959271E-01  8.24306001E-01  8.40392369E-01  8.55478907E-01  8.76511692E-01
  8.89644058E-01  8.98128667E-01  9.04896795E-01  9.11786655E-01  9.24339386E-01
  9.35347554E-01  9.59719758E-01  9.88508560E-01  1.00189863E+00  1.04897976E+00
  1.05795839E+00  1.06756049E+00  1.08924017E+00  1.09715352E+00  1.11678910E+00
  1.13535475E+00  1.14402782E+00  1.15386046E+00  1.16501821E+00  1.18062538E+00
  1.19912443E+00  1.20351209E+00  1.22686835E+00  1.27255842E+00  1.28725486E+00
  1.30374466E+00  1.30507263E+00  1.33006804E+00  1.36583945E+00  1.37669938E+00
  1.38614709E+00  1.40888460E+00  1.42188792E+00  1.46683242E+00  1.48164421E+00
  1.50917959E+00  1.52877185E+00  1.56558439E+00  1.58069499E+00  1.61185783E+00
  1.65586688E+00  1.67711506E+00  1.68834362E+00  1.71776241E+00  1.73225693E+00
  1.75195348E+00  1.76013828E+00  1.80215175E+00  1.83515633E+00  1.89745473E+00
  1.93452961E+00  1.98476912E+00  2.01929602E+00  2.05116563E+00  2.06430055E+00
  2.07268469E+00  2.08976967E+00  2.13025702E+00  2.14369746E+00  2.14790403E+00
  2.16740621E+00  2.19622471E+00  2.21039385E+00  2.22845456E+00  2.24060560E+00
  2.29390576E+00  2.34098333E+00  2.34873920E+00  2.36087227E+00  2.38643268E+00
  2.43035353E+00  2.43624412E+00  2.46852995E+00  2.51598230E+00  2.53740017E+00
  2.54944667E+00  2.55180074E+00  2.58991542E+00  2.60874948E+00  2.62279097E+00