
    -----------------------------------------------------------------------
          Psi4: An Open-Source Ab Initio Electronic Structure Package
                               Psi4 1.4a3.dev225 

                         Git: Rev {master} 7105e37 


    D. G. A. Smith, L. A. Burns, A. C. Simmonett, R. M. Parrish,
    M. C. Schieber, R. Galvelis, P. Kraus, H. Kruse, R. Di Remigio,
    A. Alenaizan, A. M. James, S. Lehtola, J. P. Misiewicz, M. Scheurer,
    R. A. Shaw, J. B. Schriber, Y. Xie, Z. L. Glick, D. A. Sirianni,
    J. S. O'Brien, J. M. Waldrop, A. Kumar, E. G. Hohenstein,
    B. P. Pritchard, B. R. Brooks, H. F. Schaefer III, A. Yu. Sokolov,
    K. Patkowski, A. E. DePrince III, U. Bozkaya, R. A. King,
    F. A. Evangelista, J. M. Turney, T. D. Crawford, C. D. Sherrill,
    J. Chem. Phys. 152(18) 184108 (2020). https://doi.org/10.1063/5.0006002

                            Additional Code Authors
    E. T. Seidl, C. L. Janssen, E. F. Valeev, M. L. Leininger,
    J. F. Gonthier, R. M. Richard, H. R. McAlexander, M. Saitow, X. Wang,
    P. Verma, and M. H. Lechner

             Previous Authors, Complete List of Code Contributors,
                       and Citations for Specific Modules
    https://github.com/psi4/psi4/blob/master/codemeta.json
    https://github.com/psi4/psi4/graphs/contributors
    http://psicode.org/psi4manual/master/introduction.html#citing-psifour

    -----------------------------------------------------------------------


    Psi4 started on: Saturday, 06 March 2021 03:56PM

    Process ID: 102765
    Host:       c420-112.stampede2.tacc.utexas.edu
    PSIDATADIR: /home1/07844/xy3866/miniconda3/envs/p4env/share/psi4
    Memory:     500.0 MiB
    Threads:    32
    
  ==> Input File <==

--------------------------------------------------------------------------
#psi4
#
memory 32 gb

molecule  {
0 1
  N        1.6268380     0.6089620    -0.4693990
  C        0.3031040     0.1485790    -0.2066970
  C       -0.7706010     1.0561020    -0.0842670
  C        0.0806060    -1.2405240    -0.1151990
  C       -2.0579110     0.5582020     0.1415980
  C       -1.2176000    -1.6989120     0.1341680
  C       -2.1318550    -0.9392912     0.2437026
  C       -0.5406870     2.5426280    -0.1993030
  C        1.2072340    -2.2197810    -0.3093320
  C        2.5023020     0.6131830     0.7097540
  H       -2.8885640     1.2560570     0.2350690
  H       -1.3937740    -2.7714120     0.2029680
  H        1.5916390     1.5501200    -0.8540680
  H       -3.2895990    -1.1861590     0.4450020
  H        0.2351210     2.8885850     0.4923550
  H       -0.2380210     2.8365620    -1.2118290
  H       -1.4595390     3.0868260     0.0338520
  H        1.9415750    -1.8136360    -1.0094830
  H        1.7264620    -2.4417900     0.6300600
  H        0.8237630    -3.1662910    -0.7010550
  H        2.0935470     1.1833990     1.5571020
  H        3.4676080     1.0418550     0.4271840
  H        2.6734620    -0.4116070     1.0419720
units angstrom
no_reorient  #important for SAPT in psi4, default
symmetry c1  #important for SAPT in psi4, default
}

set PROPERTIES_ORIGIN ["COM"]
properties('MP2/aug-cc-pvtz', properties = ['dipole'])
--------------------------------------------------------------------------

  Memory set to  29.802 GiB by Python driver.
    SCF Algorithm Type (re)set to DF.

*** tstart() called on c420-112.stampede2.tacc.utexas.edu
*** at Sat Mar  6 15:56:30 2021

   => Loading Basis Set <=

    Name: AUG-CC-PVTZ
    Role: ORBITAL
    Keyword: BASIS
    atoms 1     entry N          line   285 file /home1/07844/xy3866/miniconda3/envs/p4env/share/psi4/basis/aug-cc-pvtz.gbs 
    atoms 2-10  entry C          line   239 file /home1/07844/xy3866/miniconda3/envs/p4env/share/psi4/basis/aug-cc-pvtz.gbs 
    atoms 11-23 entry H          line    40 file /home1/07844/xy3866/miniconda3/envs/p4env/share/psi4/basis/aug-cc-pvtz.gbs 


         ---------------------------------------------------------
                                   SCF
               by Justin Turney, Rob Parrish, Andy Simmonett
                          and Daniel G. A. Smith
                              RHF Reference
                       32 Threads,  30517 MiB Core
         ---------------------------------------------------------

  ==> Geometry <==

    Molecular point group: c1
    Full point group: C1

    Geometry (in Angstrom), charge = 0, multiplicity = 1:

       Center              X                  Y                   Z               Mass       
    ------------   -----------------  -----------------  -----------------  -----------------
         N            1.651997269996     0.635325685926    -0.458291198760    14.003074004430
         C            0.328263269996     0.174942685926    -0.195589198760    12.000000000000
         C           -0.745441730004     1.082465685926    -0.073159198760    12.000000000000
         C            0.105765269996    -1.214160314074    -0.104091198760    12.000000000000
         C           -2.032751730004     0.584565685926     0.152705801240    12.000000000000
         C           -1.192440730004    -1.672548314074     0.145275801240    12.000000000000
         C           -2.106695730004    -0.912927514074     0.254810401240    12.000000000000
         C           -0.515527730004     2.568991685926    -0.188195198760    12.000000000000
         C            1.232393269996    -2.193417314074    -0.298224198760    12.000000000000
         C            2.527461269996     0.639546685926     0.720861801240    12.000000000000
         H           -2.863404730004     1.282420685926     0.246176801240     1.007825032230
         H           -1.368614730004    -2.745048314074     0.214075801240     1.007825032230
         H            1.616798269996     1.576483685926    -0.842960198760     1.007825032230
         H           -3.264439730004    -1.159795314074     0.456109801240     1.007825032230
         H            0.260280269996     2.914948685926     0.503462801240     1.007825032230
         H           -0.212861730004     2.862925685926    -1.200721198760     1.007825032230
         H           -1.434379730004     3.113189685926     0.044959801240     1.007825032230
         H            1.966734269996    -1.787272314074    -0.998375198760     1.007825032230
         H            1.751621269996    -2.415426314074     0.641167801240     1.007825032230
         H            0.848922269996    -3.139927314074    -0.689947198760     1.007825032230
         H            2.118706269996     1.209762685926     1.568209801240     1.007825032230
         H            3.492767269996     1.068218685926     0.438291801240     1.007825032230
         H            2.698621269996    -0.385243314074     1.053079801240     1.007825032230

  Running in c1 symmetry.

  Rotational constants: A =      0.05453  B =      0.04905  C =      0.02760 [cm^-1]
  Rotational constants: A =   1634.80367  B =   1470.60108  C =    827.56654 [MHz]
  Nuclear repulsion =  523.708310884102957

  Charge       = 0
  Multiplicity = 1
  Electrons    = 74
  Nalpha       = 37
  Nbeta        = 37

  ==> Algorithm <==

  SCF Algorithm Type is DF.
  DIIS enabled.
  MOM disabled.
  Fractional occupation disabled.
  Guess Type is SAD.
  Energy threshold   = 1.00e-10
  Density threshold  = 1.00e-10
  Integral threshold = 1.00e-12

  ==> Primary Basis <==

  Basis Set: AUG-CC-PVTZ
    Blend: AUG-CC-PVTZ
    Number of shells: 257
    Number of basis functions: 759
    Number of Cartesian functions: 875
    Spherical Harmonics?: true
    Max angular momentum: 3

   => Loading Basis Set <=

    Name: (AUG-CC-PVTZ AUX)
    Role: JKFIT
    Keyword: DF_BASIS_SCF
    atoms 1     entry N          line   224 file /home1/07844/xy3866/miniconda3/envs/p4env/share/psi4/basis/aug-cc-pvtz-jkfit.gbs 
    atoms 2-10  entry C          line   162 file /home1/07844/xy3866/miniconda3/envs/p4env/share/psi4/basis/aug-cc-pvtz-jkfit.gbs 
    atoms 11-23 entry H          line    70 file /home1/07844/xy3866/miniconda3/envs/p4env/share/psi4/basis/aug-cc-pvtz-jkfit.gbs 

  ==> Integral Setup <==

  DFHelper Memory: AOs need 6.704 GiB; user supplied 22.352 GiB. Using in-core AOs.

  ==> MemDFJK: Density-Fitted J/K Matrices <==

    J tasked:                   Yes
    K tasked:                   Yes
    wK tasked:                   No
    OpenMP threads:              32
    Memory [MiB]:             22888
    Algorithm:                 Core
    Schwarz Cutoff:           1E-12
    Mask sparsity (%):       8.5318
    Fitting Condition:        1E-10

   => Auxiliary Basis Set <=

  Basis Set: (AUG-CC-PVTZ AUX)
    Blend: AUG-CC-PVTZ-JKFIT
    Number of shells: 482
    Number of basis functions: 1638
    Number of Cartesian functions: 2025
    Spherical Harmonics?: true
    Max angular momentum: 4

  Minimum eigenvalue in the overlap matrix is 4.1828706412E-07.
  Reciprocal condition number of the overlap matrix is 1.8839535327E-08.
    Using symmetric orthogonalization.

  ==> Pre-Iterations <==

  SCF Guess: Superposition of Atomic Densities via on-the-fly atomic UHF (no occupation information).

   -------------------------
    Irrep   Nso     Nmo    
   -------------------------
     A        759     759 
   -------------------------
    Total     759     759
   -------------------------

  ==> Iterations <==

                           Total Energy        Delta E     RMS |[F,P]|

   @DF-RHF iter SAD:  -402.67651649940353   -4.02677e+02   0.00000e+00 
   @DF-RHF iter   1:  -402.52057032331493    1.55946e-01   1.02743e-03 DIIS
   @DF-RHF iter   2:  -402.82594225098291   -3.05372e-01   4.80301e-04 DIIS
   @DF-RHF iter   3:  -402.89374359227446   -6.78013e-02   1.00856e-04 DIIS
   @DF-RHF iter   4:  -402.89823738099915   -4.49379e-03   4.14583e-05 DIIS
   @DF-RHF iter   5:  -402.89887765650906   -6.40276e-04   9.50357e-06 DIIS
   @DF-RHF iter   6:  -402.89892690811968   -4.92516e-05   3.43468e-06 DIIS
   @DF-RHF iter   7:  -402.89893651772036   -9.60960e-06   1.25660e-06 DIIS
   @DF-RHF iter   8:  -402.89893894798422   -2.43026e-06   5.66927e-07 DIIS
   @DF-RHF iter   9:  -402.89893951482435   -5.66840e-07   2.25454e-07 DIIS
   @DF-RHF iter  10:  -402.89893959666654   -8.18422e-08   7.01631e-08 DIIS
   @DF-RHF iter  11:  -402.89893960342340   -6.75686e-09   3.14448e-08 DIIS
   @DF-RHF iter  12:  -402.89893960403339   -6.09987e-10   1.03179e-08 DIIS
   @DF-RHF iter  13:  -402.89893960413053   -9.71454e-11   3.42805e-09 DIIS
   @DF-RHF iter  14:  -402.89893960414048   -9.94760e-12   1.04470e-09 DIIS
   @DF-RHF iter  15:  -402.89893960414150   -1.02318e-12   3.64177e-10 DIIS
   @DF-RHF iter  16:  -402.89893960414042    1.08002e-12   1.21290e-10 DIIS
   @DF-RHF iter  17:  -402.89893960413946    9.66338e-13   4.93369e-11 DIIS
  Energy and wave function converged.


  ==> Post-Iterations <==

    Orbital Energies [Eh]
    ---------------------

    Doubly Occupied:                                                      

       1A    -15.552833     2A    -11.255464     3A    -11.248845  
       4A    -11.237974     5A    -11.232288     6A    -11.231400  
       7A    -11.228566     8A    -11.219139     9A    -11.214062  
      10A    -11.197308    11A     -1.226528    12A     -1.147832  
      13A     -1.061414    14A     -1.018948    15A     -0.946055  
      16A     -0.928862    17A     -0.886144    18A     -0.789897  
      19A     -0.778754    20A     -0.695680    21A     -0.666242  
      22A     -0.619839    23A     -0.603744    24A     -0.591952  
      25A     -0.581217    26A     -0.572131    27A     -0.565569  
      28A     -0.558982    29A     -0.553901    30A     -0.528506  
      31A     -0.515697    32A     -0.494749    33A     -0.484527  
      34A     -0.437737    35A     -0.406415    36A     -0.337289  
      37A     -0.293706  

    Virtual:                                                              

      38A      0.027286    39A      0.032563    40A      0.033344  
      41A      0.040687    42A      0.045134    43A      0.045894  
      44A      0.052798    45A      0.059041    46A      0.063079  
      47A      0.066125    48A      0.068630    49A      0.086115  
      50A      0.086794    51A      0.096314    52A      0.099066  
      53A      0.105116    54A      0.109805    55A      0.111539  
      56A      0.115061    57A      0.119543    58A      0.123303  
      59A      0.130701    60A      0.131601    61A      0.133389  
      62A      0.136117    63A      0.138721    64A      0.145294  
      65A      0.148325    66A      0.150301    67A      0.151449  
      68A      0.157086    69A      0.162357    70A      0.162758  
      71A      0.169933    72A      0.172042    73A      0.173220  
      74A      0.179425    75A      0.181063    76A      0.187763  
      77A      0.190884    78A      0.195993    79A      0.205032  
      80A      0.208023    81A      0.217726    82A      0.221555  
      83A      0.230716    84A      0.234377    85A      0.241060  
      86A      0.253298    87A      0.256580    88A      0.258729  
      89A      0.262067    90A      0.264887    91A      0.276159  
      92A      0.280830    93A      0.283694    94A      0.287879  
      95A      0.294242    96A      0.301378    97A      0.302814  
      98A      0.312635    99A      0.314731   100A      0.320218  
     101A      0.327784   102A      0.329491   103A      0.335781  
     104A      0.340311   105A      0.342839   106A      0.349285  
     107A      0.352361   108A      0.353377   109A      0.361365  
     110A      0.363063   111A      0.368402   112A      0.369919  
     113A      0.373090   114A      0.376711   115A      0.382612  
     116A      0.384202   117A      0.390436   118A      0.395522  
     119A      0.403059   120A      0.408439   121A      0.409534  
     122A      0.413488   123A      0.418249   124A      0.422393  
     125A      0.428381   126A      0.430720   127A      0.435110  
     128A      0.440060   129A      0.444294   130A      0.445046  
     131A      0.448093   132A      0.453903   133A      0.457457  
     134A      0.461681   135A      0.464823   136A      0.469372  
     137A      0.471205   138A      0.477143   139A      0.483168  
     140A      0.484162   141A      0.489039   142A      0.491751  
     143A      0.492958   144A      0.495074   145A      0.499041  
     146A      0.504995   147A      0.512606   148A      0.515975  
     149A      0.517775   150A      0.522521   151A      0.527750  
     152A      0.531927   153A      0.537869   154A      0.542000  
     155A      0.546857   156A      0.549411   157A      0.552939  
     158A      0.558027   159A      0.561513   160A      0.563083  
     161A      0.564609   162A      0.574254   163A      0.577880  
     164A      0.582310   165A      0.585483   166A      0.592089  
     167A      0.598976   168A      0.602106   169A      0.606445  
     170A      0.609082   171A      0.618560   172A      0.623811  
     173A      0.628561   174A      0.633446   175A      0.639709  
     176A      0.646369   177A      0.650979   178A      0.654320  
     179A      0.666267   180A      0.667401   181A      0.675106  
     182A      0.691111   183A      0.699869   184A      0.704003  
     185A      0.707801   186A      0.715558   187A      0.724144  
     188A      0.724849   189A      0.732364   190A      0.747636  
     191A      0.750413   192A      0.755788   193A      0.758410  
     194A      0.768970   195A      0.770031   196A      0.779436  
     197A      0.786190   198A      0.793161   199A      0.795068  
     200A      0.806132   201A      0.812630   202A      0.819992  
     203A      0.821699   204A      0.832516   205A      0.833097  
     206A      0.842925   207A      0.849927   208A      0.853997  
     209A      0.860834   210A      0.861489   211A      0.869296  
     212A      0.871481   213A      0.877026   214A      0.885633  
     215A      0.887742   216A      0.894310   217A      0.901819  
     218A      0.907937   219A      0.915689   220A      0.923768  
     221A      0.925885   222A      0.930319   223A      0.934399  
     224A      0.936624   225A      0.943836   226A      0.947717  
     227A      0.953926   228A      0.959631   229A      0.962469  
     230A      0.964385   231A      0.972049   232A      0.974759  
     233A      0.981986   234A      0.987008   235A      0.994219  
     236A      1.003010   237A      1.005038   238A      1.007218  
     239A      1.012076   240A      1.016147   241A      1.024787  
     242A      1.029294   243A      1.035466   244A      1.039041  
     245A      1.044667   246A      1.048463   247A      1.055500  
     248A      1.061967   249A      1.064801   250A      1.067859  
     251A      1.073172   252A      1.075662   253A      1.077687  
     254A      1.085898   255A      1.090893   256A      1.093898  
     257A      1.106738   258A      1.114797   259A      1.120049  
     260A      1.123418   261A      1.126810   262A      1.129551  
     263A      1.134491   264A      1.140302   265A      1.146070  
     266A      1.152769   267A      1.155880   268A      1.159164  
     269A      1.163207   270A      1.171292   271A      1.173648  
     272A      1.179429   273A      1.181953   274A      1.188000  
     275A      1.194235   276A      1.209887   277A      1.213506  
     278A      1.214840   279A      1.222066   280A      1.225917  
     281A      1.226588   282A      1.240434   283A      1.244549  
     284A      1.248431   285A      1.252659   286A      1.257587  
     287A      1.267112   288A      1.272149   289A      1.273940  
     290A      1.282715   291A      1.290542   292A      1.296788  
     293A      1.303841   294A      1.315418   295A      1.323379  
     296A      1.324984   297A      1.333822   298A      1.344431  
     299A      1.348986   300A      1.352056   301A      1.356122  
     302A      1.368271   303A      1.370594   304A      1.382997  
     305A      1.390023   306A      1.406158   307A      1.410246  
     308A      1.413485   309A      1.423248   310A      1.430358  
     311A      1.432954   312A      1.446898   313A      1.447906  
     314A      1.453748   315A      1.463241   316A      1.467828  
     317A      1.473248   318A      1.477651   319A      1.484113  
     320A      1.488563   321A      1.496413   322A      1.501690  
     323A      1.509520   324A      1.517070   325A      1.522361  
     326A      1.529240   327A      1.535585   328A      1.545371  
     329A      1.555097   330A      1.571092   331A      1.573054  
     332A      1.580996   333A      1.588747   334A      1.598763  
     335A      1.603051   336A      1.612274   337A      1.621957  
     338A      1.624707   339A      1.630814   340A      1.644896  
     341A      1.646813   342A      1.656351   343A      1.663133  
     344A      1.667001   345A      1.673369   346A      1.683788  
     347A      1.688863   348A      1.703551   349A      1.707521  
     350A      1.716355   351A      1.723234   352A      1.729824  
     353A      1.736462   354A      1.742726   355A      1.750217  
     356A      1.758037   357A      1.763801   358A      1.766964  
     359A      1.774391   360A      1.781740   361A      1.791434  
     362A      1.796260   363A      1.803520   364A      1.814199  
     365A      1.821723   366A      1.828257   367A      1.835113  
     368A      1.839825   369A      1.840237   370A      1.844675  
     371A      1.857074   372A      1.876355   373A      1.877553  
     374A      1.887227   375A      1.891274   376A      1.900839  
     377A      1.909833   378A      1.921966   379A      1.930823  
     380A      1.934991   381A      1.936974   382A      1.939039  
     383A      1.948200   384A      1.968697   385A      1.974143  
     386A      1.983553   387A      1.993558   388A      1.997978  
     389A      1.999593   390A      2.013231   391A      2.018775  
     392A      2.028031   393A      2.040598   394A      2.048888  
     395A      2.058433   396A      2.067563   397A      2.075540  
     398A      2.079397   399A      2.088756   400A      2.094508  
     401A      2.106857   402A      2.120018   403A      2.126291  
     404A      2.140375   405A      2.144008   406A      2.151090  
     407A      2.157021   408A      2.163833   409A      2.170118  
     410A      2.181743   411A      2.182909   412A      2.189970  
     413A      2.205055   414A      2.207738   415A      2.221561  
     416A      2.229731   417A      2.239520   418A      2.246215  
     419A      2.249016   420A      2.262512   421A      2.270833  
     422A      2.275013   423A      2.280946   424A      2.291998  
     425A      2.296442   426A      2.304778   427A      2.316559  
     428A      2.323503   429A      2.338037   430A      2.344963  
     431A      2.348048   432A      2.354425   433A      2.365720  
     434A      2.375435   435A      2.383282   436A      2.399606  
     437A      2.403659   438A      2.404332   439A      2.414815  
     440A      2.430528   441A      2.447363   442A      2.447573  
     443A      2.462004   444A      2.476783   445A      2.500209  
     446A      2.514042   447A      2.531996   448A      2.544600  
     449A      2.545793   450A      2.564900   451A      2.573447  
     452A      2.599012   453A      2.606263   454A      2.618728  
     455A      2.648072   456A      2.657659   457A      2.674171  
     458A      2.696976   459A      2.703700   460A      2.721550  
     461A      2.730629   462A      2.736772   463A      2.753012  
     464A      2.766767   465A      2.787884   466A      2.809973  
     467A      2.835856   468A      2.852274   469A      2.882615  
     470A      2.889156   471A      2.911874   472A      2.957366  
     473A      2.990399   474A      3.074099   475A      3.106829  
     476A      3.133013   477A      3.151847   478A      3.197763  
     479A      3.216437   480A      3.225180   481A      3.275784  
     482A      3.303850   483A      3.321638   484A      3.339305  
     485A      3.360742   486A      3.364938   487A      3.391125  
     488A      3.393599   489A      3.412151   490A      3.435123  
     491A      3.444767   492A      3.456766   493A      3.464307  
     494A      3.465743   495A      3.477216   496A      3.484884  
     497A      3.518350   498A      3.534710   499A      3.536758  
     500A      3.546258   501A      3.558802   502A      3.564162  
     503A      3.569047   504A      3.577055   505A      3.580378  
     506A      3.592803   507A      3.601319   508A      3.616274  
     509A      3.624205   510A      3.644032   511A      3.653122  
     512A      3.657194   513A      3.668381   514A      3.680321  
     515A      3.685976   516A      3.700883   517A      3.713282  
     518A      3.719182   519A      3.724822   520A      3.733602  
     521A      3.739694   522A      3.743556   523A      3.762433  
     524A      3.771042   525A      3.776500   526A      3.789398  
     527A      3.798960   528A      3.806114   529A      3.821150  
     530A      3.826633   531A      3.833085   532A      3.836392  
     533A      3.850639   534A      3.852897   535A      3.865591  
     536A      3.878111   537A      3.896890   538A      3.902499  
     539A      3.908617   540A      3.916361   541A      3.929516  
     542A      3.935472   543A      3.938298   544A      3.950880  
     545A      3.959330   546A      3.972870   547A      3.976586  
     548A      3.979986   549A      3.987437   550A      3.989020  
     551A      4.007545   552A      4.014389   553A      4.021909  
     554A      4.023563   555A      4.036292   556A      4.047941  
     557A      4.053259   558A      4.062791   559A      4.066032  
     560A      4.081941   561A      4.084358   562A      4.096289  
     563A      4.102778   564A      4.121536   565A      4.125667  
     566A      4.134671   567A      4.146534   568A      4.159629  
     569A      4.168964   570A      4.181467   571A      4.186110  
     572A      4.197470   573A      4.205456   574A      4.215289  
     575A      4.220482   576A      4.243236   577A      4.247945  
     578A      4.257470   579A      4.265015   580A      4.279198  
     581A      4.289179   582A      4.302964   583A      4.303326  
     584A      4.312802   585A      4.333112   586A      4.334763  
     587A      4.339169   588A      4.349789   589A      4.364502  
     590A      4.370231   591A      4.381053   592A      4.391881  
     593A      4.396844   594A      4.406693   595A      4.410558  
     596A      4.424938   597A      4.430128   598A      4.442898  
     599A      4.451408   600A      4.461719   601A      4.484718  
     602A      4.490116   603A      4.502109   604A      4.508329  
     605A      4.520719   606A      4.526247   607A      4.541077  
     608A      4.562201   609A      4.573168   610A      4.576688  
     611A      4.586023   612A      4.599625   613A      4.604135  
     614A      4.620490   615A      4.636477   616A      4.645957  
     617A      4.663281   618A      4.671214   619A      4.683347  
     620A      4.692949   621A      4.710828   622A      4.724145  
     623A      4.732797   624A      4.752625   625A      4.760071  
     626A      4.771628   627A      4.788898   628A      4.794916  
     629A      4.804051   630A      4.812704   631A      4.822051  
     632A      4.839338   633A      4.841191   634A      4.860878  
     635A      4.871419   636A      4.878003   637A      4.885164  
     638A      4.901450   639A      4.913845   640A      4.930228  
     641A      4.942184   642A      4.948642   643A      4.957478  
     644A      4.965628   645A      4.968364   646A      4.977671  
     647A      4.997565   648A      5.010908   649A      5.021151  
     650A      5.031510   651A      5.037027   652A      5.045616  
     653A      5.080627   654A      5.094575   655A      5.101498  
     656A      5.107976   657A      5.116190   658A      5.119024  
     659A      5.156599   660A      5.172339   661A      5.175558  
     662A      5.202539   663A      5.218260   664A      5.223897  
     665A      5.233290   666A      5.243745   667A      5.259466  
     668A      5.271372   669A      5.278299   670A      5.285687  
     671A      5.305721   672A      5.313919   673A      5.342636  
     674A      5.347964   675A      5.380293   676A      5.382412  
     677A      5.404173   678A      5.411059   679A      5.440242  
     680A      5.446224   681A      5.466535   682A      5.468941  
     683A      5.475121   684A      5.494055   685A      5.509555  
     686A      5.535532   687A      5.541243   688A      5.554402  
     689A      5.574788   690A      5.599453   691A      5.609593  
     692A      5.621918   693A      5.631707   694A      5.656676  
     695A      5.670109   696A      5.685394   697A      5.700352  
     698A      5.733094   699A      5.742076   700A      5.766531  
     701A      5.790606   702A      5.803541   703A      5.810793  
     704A      5.828459   705A      5.871114   706A      5.878732  
     707A      5.914556   708A      5.960103   709A      5.983187  
     710A      5.995266   711A      6.031613   712A      6.077317  
     713A      6.086821   714A      6.105112   715A      6.128273  
     716A      6.152260   717A      6.182230   718A      6.198691  
     719A      6.206928   720A      6.219681   721A      6.246633  
     722A      6.254916   723A      6.279868   724A      6.301996  
     725A      6.327539   726A      6.349138   727A      6.373682  
     728A      6.397075   729A      6.437221   730A      6.469847  
     731A      6.514333   732A      6.582471   733A      6.619160  
     734A      6.694054   735A      6.776546   736A      6.793613  
     737A      6.822430   738A      6.833730   739A      6.854031  
     740A      6.872804   741A      6.898897   742A      6.922584  
     743A      6.953682   744A      6.980482   745A      7.104946  
     746A      7.130168   747A      7.218650   748A      7.318218  
     749A      7.788965   750A     16.284488   751A     17.183063  
     752A     17.892009   753A     18.647377   754A     18.873927  
     755A     19.563617   756A     20.428966   757A     21.361734  
     758A     21.586540   759A     21.805536  

    Final Occupation by Irrep:
              A 
    DOCC [    37 ]

  @DF-RHF Final Energy:  -402.89893960413946

   => Energetics <=

    Nuclear Repulsion Energy =            523.7083108841029571
    One-Electron Energy =               -1583.3941059541616596
    Two-Electron Energy =                 656.7868554659193023
    Total Energy =                       -402.8989396041394002

Computation Completed

*** tstop() called on c420-112.stampede2.tacc.utexas.edu at Sat Mar  6 15:57:16 2021
Module time:
	user time   =     887.92 seconds =      14.80 minutes
	system time =      51.98 seconds =       0.87 minutes
	total time  =         46 seconds =       0.77 minutes
Total time:
	user time   =     887.92 seconds =      14.80 minutes
	system time =      51.98 seconds =       0.87 minutes
	total time  =         46 seconds =       0.77 minutes
   => Loading Basis Set <=

    Name: (AUG-CC-PVTZ AUX)
    Role: RIFIT
    Keyword: DF_BASIS_MP2
    atoms 1     entry N          line   206 file /home1/07844/xy3866/miniconda3/envs/p4env/share/psi4/basis/aug-cc-pvtz-ri.gbs 
    atoms 2-10  entry C          line   148 file /home1/07844/xy3866/miniconda3/envs/p4env/share/psi4/basis/aug-cc-pvtz-ri.gbs 
    atoms 11-23 entry H          line    30 file /home1/07844/xy3866/miniconda3/envs/p4env/share/psi4/basis/aug-cc-pvtz-ri.gbs 


*** tstart() called on c420-112.stampede2.tacc.utexas.edu
*** at Sat Mar  6 15:57:17 2021


  //>>>>>>>>>>>>>>>>>>>>>>>>>>>>>>>>>>>//
  //               DFMP2               //
  //<<<<<<<<<<<<<<<<<<<<<<<<<<<<<<<<<<<//

	 --------------------------------------------------------
	                          DF-MP2                         
	      2nd-Order Density-Fitted Moller-Plesset Theory     
	              RMP2 Wavefunction,  32 Threads             
	                                                         
	        Rob Parrish, Justin Turney, Andy Simmonett,      
	           Ed Hohenstein, and C. David Sherrill          
	 --------------------------------------------------------

   => Auxiliary Basis Set <=

  Basis Set: (AUG-CC-PVTZ AUX)
    Blend: AUG-CC-PVTZ-RI
    Number of shells: 462
    Number of basis functions: 1658
    Number of Cartesian functions: 2075
    Spherical Harmonics?: true
    Max angular momentum: 4

	 --------------------------------------------------------
	                 NBF =   759, NAUX =  1658
	 --------------------------------------------------------
	   CLASS    FOCC     OCC    AOCC    AVIR     VIR    FVIR
	   PAIRS       0      37      37     722     722       0
	 --------------------------------------------------------

  DFHelper Memory: AOs need 6.956 GiB; user supplied 22.352 GiB. Using in-core AOs.


         ------------------------------------------------------------
                                     CPHF                           
                                  Rob Parrish                       
         ------------------------------------------------------------

  ==> Geometry <==

    Molecular point group: c1
    Full point group: C1

    Geometry (in Angstrom), charge = 0, multiplicity = 1:

       Center              X                  Y                   Z               Mass       
    ------------   -----------------  -----------------  -----------------  -----------------
         N            1.651997269996     0.635325685926    -0.458291198760    14.003074004430
         C            0.328263269996     0.174942685926    -0.195589198760    12.000000000000
         C           -0.745441730004     1.082465685926    -0.073159198760    12.000000000000
         C            0.105765269996    -1.214160314074    -0.104091198760    12.000000000000
         C           -2.032751730004     0.584565685926     0.152705801240    12.000000000000
         C           -1.192440730004    -1.672548314074     0.145275801240    12.000000000000
         C           -2.106695730004    -0.912927514074     0.254810401240    12.000000000000
         C           -0.515527730004     2.568991685926    -0.188195198760    12.000000000000
         C            1.232393269996    -2.193417314074    -0.298224198760    12.000000000000
         C            2.527461269996     0.639546685926     0.720861801240    12.000000000000
         H           -2.863404730004     1.282420685926     0.246176801240     1.007825032230
         H           -1.368614730004    -2.745048314074     0.214075801240     1.007825032230
         H            1.616798269996     1.576483685926    -0.842960198760     1.007825032230
         H           -3.264439730004    -1.159795314074     0.456109801240     1.007825032230
         H            0.260280269996     2.914948685926     0.503462801240     1.007825032230
         H           -0.212861730004     2.862925685926    -1.200721198760     1.007825032230
         H           -1.434379730004     3.113189685926     0.044959801240     1.007825032230
         H            1.966734269996    -1.787272314074    -0.998375198760     1.007825032230
         H            1.751621269996    -2.415426314074     0.641167801240     1.007825032230
         H            0.848922269996    -3.139927314074    -0.689947198760     1.007825032230
         H            2.118706269996     1.209762685926     1.568209801240     1.007825032230
         H            3.492767269996     1.068218685926     0.438291801240     1.007825032230
         H            2.698621269996    -0.385243314074     1.053079801240     1.007825032230

  Nuclear repulsion =  523.708310884102957
  Reference energy  = -402.898939604139457

  ==> Basis Set <==

  Basis Set: AUG-CC-PVTZ
    Blend: AUG-CC-PVTZ
    Number of shells: 257
    Number of basis functions: 759
    Number of Cartesian functions: 875
    Spherical Harmonics?: true
    Max angular momentum: 3

  ==> CGRSolver (by Rob Parrish) <==

   Number of roots    =         1
   Preconditioning    =    JACOBI
   Convergence cutoff =     1E-06
   Maximum iterations =       100

  ==> CPHFRHamiltonian (by Rob Parrish) <== 

  ==> MemDFJK: Density-Fitted J/K Matrices <==

    J tasked:                   Yes
    K tasked:                   Yes
    wK tasked:                   No
    OpenMP threads:              32
    Memory [MiB]:             22888
    Algorithm:                 Core
    Schwarz Cutoff:           1E-12
    Mask sparsity (%):       4.9483
    Fitting Condition:        1E-10

   => Auxiliary Basis Set <=

  Basis Set: (AUG-CC-PVTZ AUX)
    Blend: AUG-CC-PVTZ-JKFIT
    Number of shells: 482
    Number of basis functions: 1638
    Number of Cartesian functions: 2025
    Spherical Harmonics?: true
    Max angular momentum: 4

  ==> CPHF Iterations <==

  => Iterations <=

             Iter  Converged  Remaining    Residual
  CGR           1          0          1   8.580E-02
  CGR           2          0          1   2.626E-02
  CGR           3          0          1   1.546E-02
  CGR           4          0          1   6.083E-03
  CGR           5          0          1   2.227E-03
  CGR           6          0          1   8.571E-04
  CGR           7          0          1   2.736E-04
  CGR           8          0          1   1.139E-04
  CGR           9          0          1   5.458E-05
  CGR          10          0          1   2.633E-05
  CGR          11          0          1   1.142E-05
  CGR          12          0          1   3.089E-06
  CGR          13          0          1   1.111E-06
  CGR          14          1          0   3.347E-07

    CGRSolver converged.

	-----------------------------------------------------------
	 ==================> DF-MP2 Energies <==================== 
	-----------------------------------------------------------
	 Reference Energy          =    -402.8989396041394571 [Eh]
	 Singles Energy            =      -0.0000000000000000 [Eh]
	 Same-Spin Energy          =      -0.4474357762572329 [Eh]
	 Opposite-Spin Energy      =      -1.4671833326738786 [Eh]
	 Correlation Energy        =      -1.9146191089311113 [Eh]
	 Total Energy              =    -404.8135587130705630 [Eh]
	-----------------------------------------------------------
	 ================> DF-SCS-MP2 Energies <================== 
	-----------------------------------------------------------
	 SCS Same-Spin Scale       =       0.3333333333333333 [-]
	 SCS Opposite-Spin Scale   =       1.2000000000000000 [-]
	 SCS Same-Spin Energy      =      -0.1491452587524109 [Eh]
	 SCS Opposite-Spin Energy  =      -1.7606199992086542 [Eh]
	 SCS Correlation Energy    =      -1.9097652579610651 [Eh]
	 SCS Total Energy          =    -404.8087048621005124 [Eh]
	-----------------------------------------------------------



Properties will be evaluated at  -0.000000,   0.000000,  -0.000000 [a0]

Properties computed using the MP2 density matrix

  Nuclear Dipole Moment: [e a0]
     X:     5.2551      Y:     2.2436      Z:     1.3452

  Electronic Dipole Moment: [e a0]
     X:    -5.0392      Y:    -1.8012      Z:    -1.1442

  Dipole Moment: [e a0]
     X:     0.2159      Y:     0.4424      Z:     0.2010     Total:     0.5317

  Dipole Moment: [D]
     X:     0.5488      Y:     1.1245      Z:     0.5109     Total:     1.3516


*** tstop() called on c420-112.stampede2.tacc.utexas.edu at Sat Mar  6 16:01:51 2021
Module time:
	user time   =    2729.08 seconds =      45.48 minutes
	system time =      75.98 seconds =       1.27 minutes
	total time  =        274 seconds =       4.57 minutes
Total time:
	user time   =    3618.13 seconds =      60.30 minutes
	system time =     127.98 seconds =       2.13 minutes
	total time  =        321 seconds =       5.35 minutes

    Psi4 stopped on: Saturday, 06 March 2021 04:01PM
    Psi4 wall time for execution: 0:05:23.06

*** Psi4 exiting successfully. Buy a developer a beer!
