
    -----------------------------------------------------------------------
          Psi4: An Open-Source Ab Initio Electronic Structure Package
                               Psi4 1.4a3.dev225 

                         Git: Rev {master} 7105e37 


    D. G. A. Smith, L. A. Burns, A. C. Simmonett, R. M. Parrish,
    M. C. Schieber, R. Galvelis, P. Kraus, H. Kruse, R. Di Remigio,
    A. Alenaizan, A. M. James, S. Lehtola, J. P. Misiewicz, M. Scheurer,
    R. A. Shaw, J. B. Schriber, Y. Xie, Z. L. Glick, D. A. Sirianni,
    J. S. O'Brien, J. M. Waldrop, A. Kumar, E. G. Hohenstein,
    B. P. Pritchard, B. R. Brooks, H. F. Schaefer III, A. Yu. Sokolov,
    K. Patkowski, A. E. DePrince III, U. Bozkaya, R. A. King,
    F. A. Evangelista, J. M. Turney, T. D. Crawford, C. D. Sherrill,
    J. Chem. Phys. 152(18) 184108 (2020). https://doi.org/10.1063/5.0006002

                            Additional Code Authors
    E. T. Seidl, C. L. Janssen, E. F. Valeev, M. L. Leininger,
    J. F. Gonthier, R. M. Richard, H. R. McAlexander, M. Saitow, X. Wang,
    P. Verma, and M. H. Lechner

             Previous Authors, Complete List of Code Contributors,
                       and Citations for Specific Modules
    https://github.com/psi4/psi4/blob/master/codemeta.json
    https://github.com/psi4/psi4/graphs/contributors
    http://psicode.org/psi4manual/master/introduction.html#citing-psifour

    -----------------------------------------------------------------------


    Psi4 started on: Saturday, 06 March 2021 01:37PM

    Process ID: 81350
    Host:       c420-112.stampede2.tacc.utexas.edu
    PSIDATADIR: /home1/07844/xy3866/miniconda3/envs/p4env/share/psi4
    Memory:     500.0 MiB
    Threads:    32
    
  ==> Input File <==

--------------------------------------------------------------------------
#psi4
#
memory 32 gb

molecule  {
0 1
  N        1.6268380     0.6089620    -0.4693990
  C        0.3031040     0.1485790    -0.2066970
  C       -0.7706010     1.0561020    -0.0842670
  C        0.0806060    -1.2405240    -0.1151990
  C       -2.0579110     0.5582020     0.1415980
  C       -1.2176000    -1.6989120     0.1341680
  C       -2.2850370    -0.8120180     0.2620550
  C       -0.5406870     2.5426280    -0.1993030
  C        1.1323898    -2.1547270    -0.2964354
  C        2.5023020     0.6131830     0.7097540
  H       -2.8885640     1.2560570     0.2350690
  H       -1.3937740    -2.7714120     0.2029680
  H        1.5916390     1.5501200    -0.8540680
  H       -3.2895990    -1.1861590     0.4450020
  H        0.2351210     2.8885850     0.4923550
  H       -0.2380210     2.8365620    -1.2118290
  H       -1.4595390     3.0868260     0.0338520
  H        1.9415750    -1.8136360    -1.0094830
  H        1.7264620    -2.4417900     0.6300600
  H        0.8237630    -3.1662910    -0.7010550
  H        2.0935470     1.1833990     1.5571020
  H        3.4676080     1.0418550     0.4271840
  H        2.6734620    -0.4116070     1.0419720
units angstrom
no_reorient  #important for SAPT in psi4, default
symmetry c1  #important for SAPT in psi4, default
}

set PROPERTIES_ORIGIN ["COM"]
properties('MP2/aug-cc-pvtz', properties = ['dipole'])
--------------------------------------------------------------------------

  Memory set to  29.802 GiB by Python driver.
    SCF Algorithm Type (re)set to DF.

*** tstart() called on c420-112.stampede2.tacc.utexas.edu
*** at Sat Mar  6 13:37:56 2021

   => Loading Basis Set <=

    Name: AUG-CC-PVTZ
    Role: ORBITAL
    Keyword: BASIS
    atoms 1     entry N          line   285 file /home1/07844/xy3866/miniconda3/envs/p4env/share/psi4/basis/aug-cc-pvtz.gbs 
    atoms 2-10  entry C          line   239 file /home1/07844/xy3866/miniconda3/envs/p4env/share/psi4/basis/aug-cc-pvtz.gbs 
    atoms 11-23 entry H          line    40 file /home1/07844/xy3866/miniconda3/envs/p4env/share/psi4/basis/aug-cc-pvtz.gbs 


         ---------------------------------------------------------
                                   SCF
               by Justin Turney, Rob Parrish, Andy Simmonett
                          and Daniel G. A. Smith
                              RHF Reference
                       32 Threads,  30517 MiB Core
         ---------------------------------------------------------

  ==> Geometry <==

    Molecular point group: c1
    Full point group: C1

    Geometry (in Angstrom), charge = 0, multiplicity = 1:

       Center              X                  Y                   Z               Mass       
    ------------   -----------------  -----------------  -----------------  -----------------
         N            1.672250543097     0.618243195815    -0.461066733023    14.003074004430
         C            0.348516543097     0.157860195815    -0.198364733023    12.000000000000
         C           -0.725188456903     1.065383195815    -0.075934733023    12.000000000000
         C            0.126018543097    -1.231242804185    -0.106866733023    12.000000000000
         C           -2.012498456903     0.567483195815     0.149930266977    12.000000000000
         C           -1.172187456903    -1.689630804185     0.142500266977    12.000000000000
         C           -2.239624456903    -0.802736804185     0.270387266977    12.000000000000
         C           -0.495274456903     2.551909195815    -0.190970733023    12.000000000000
         C            1.177802343097    -2.145445804185    -0.288103133023    12.000000000000
         C            2.547714543097     0.622464195815     0.718086266977    12.000000000000
         H           -2.843151456903     1.265338195815     0.243401266977     1.007825032230
         H           -1.348361456903    -2.762130804185     0.211300266977     1.007825032230
         H            1.637051543097     1.559401195815    -0.845735733023     1.007825032230
         H           -3.244186456903    -1.176877804185     0.453334266977     1.007825032230
         H            0.280533543097     2.897866195815     0.500687266977     1.007825032230
         H           -0.192608456903     2.845843195815    -1.203496733023     1.007825032230
         H           -1.414126456903     3.096107195815     0.042184266977     1.007825032230
         H            1.986987543097    -1.804354804185    -1.001150733023     1.007825032230
         H            1.771874543097    -2.432508804185     0.638392266977     1.007825032230
         H            0.869175543097    -3.157009804185    -0.692722733023     1.007825032230
         H            2.138959543097     1.192680195815     1.565434266977     1.007825032230
         H            3.513020543097     1.051136195815     0.435516266977     1.007825032230
         H            2.718874543097    -0.402325804185     1.050304266977     1.007825032230

  Running in c1 symmetry.

  Rotational constants: A =      0.05562  B =      0.04822  C =      0.02761 [cm^-1]
  Rotational constants: A =   1667.59551  B =   1445.62318  C =    827.80310 [MHz]
  Nuclear repulsion =  523.172059444572483

  Charge       = 0
  Multiplicity = 1
  Electrons    = 74
  Nalpha       = 37
  Nbeta        = 37

  ==> Algorithm <==

  SCF Algorithm Type is DF.
  DIIS enabled.
  MOM disabled.
  Fractional occupation disabled.
  Guess Type is SAD.
  Energy threshold   = 1.00e-10
  Density threshold  = 1.00e-10
  Integral threshold = 1.00e-12

  ==> Primary Basis <==

  Basis Set: AUG-CC-PVTZ
    Blend: AUG-CC-PVTZ
    Number of shells: 257
    Number of basis functions: 759
    Number of Cartesian functions: 875
    Spherical Harmonics?: true
    Max angular momentum: 3

   => Loading Basis Set <=

    Name: (AUG-CC-PVTZ AUX)
    Role: JKFIT
    Keyword: DF_BASIS_SCF
    atoms 1     entry N          line   224 file /home1/07844/xy3866/miniconda3/envs/p4env/share/psi4/basis/aug-cc-pvtz-jkfit.gbs 
    atoms 2-10  entry C          line   162 file /home1/07844/xy3866/miniconda3/envs/p4env/share/psi4/basis/aug-cc-pvtz-jkfit.gbs 
    atoms 11-23 entry H          line    70 file /home1/07844/xy3866/miniconda3/envs/p4env/share/psi4/basis/aug-cc-pvtz-jkfit.gbs 

  ==> Integral Setup <==

  DFHelper Memory: AOs need 6.705 GiB; user supplied 22.352 GiB. Using in-core AOs.

  ==> MemDFJK: Density-Fitted J/K Matrices <==

    J tasked:                   Yes
    K tasked:                   Yes
    wK tasked:                   No
    OpenMP threads:              32
    Memory [MiB]:             22888
    Algorithm:                 Core
    Schwarz Cutoff:           1E-12
    Mask sparsity (%):       8.5120
    Fitting Condition:        1E-10

   => Auxiliary Basis Set <=

  Basis Set: (AUG-CC-PVTZ AUX)
    Blend: AUG-CC-PVTZ-JKFIT
    Number of shells: 482
    Number of basis functions: 1638
    Number of Cartesian functions: 2025
    Spherical Harmonics?: true
    Max angular momentum: 4

  Minimum eigenvalue in the overlap matrix is 3.8639728367E-07.
  Reciprocal condition number of the overlap matrix is 1.7409440900E-08.
    Using symmetric orthogonalization.

  ==> Pre-Iterations <==

  SCF Guess: Superposition of Atomic Densities via on-the-fly atomic UHF (no occupation information).

   -------------------------
    Irrep   Nso     Nmo    
   -------------------------
     A        759     759 
   -------------------------
    Total     759     759
   -------------------------

  ==> Iterations <==

                           Total Energy        Delta E     RMS |[F,P]|

   @DF-RHF iter SAD:  -402.65307813655312   -4.02653e+02   0.00000e+00 
   @DF-RHF iter   1:  -402.58583454815175    6.72436e-02   9.91179e-04 DIIS
   @DF-RHF iter   2:  -402.88233393684095   -2.96499e-01   4.57285e-04 DIIS
   @DF-RHF iter   3:  -402.94439118838665   -6.20573e-02   9.71979e-05 DIIS
   @DF-RHF iter   4:  -402.94858549415443   -4.19431e-03   4.14387e-05 DIIS
   @DF-RHF iter   5:  -402.94919118652990   -6.05692e-04   9.57637e-06 DIIS
   @DF-RHF iter   6:  -402.94922985186196   -3.86653e-05   2.72498e-06 DIIS
   @DF-RHF iter   7:  -402.94923388185850   -4.03000e-06   7.65921e-07 DIIS
   @DF-RHF iter   8:  -402.94923430704995   -4.25191e-07   2.62274e-07 DIIS
   @DF-RHF iter   9:  -402.94923437919175   -7.21418e-08   1.30496e-07 DIIS
   @DF-RHF iter  10:  -402.94923439740177   -1.82100e-08   5.81146e-08 DIIS
   @DF-RHF iter  11:  -402.94923440295707   -5.55531e-09   2.54462e-08 DIIS
   @DF-RHF iter  12:  -402.94923440398532   -1.02824e-09   1.42462e-08 DIIS
   @DF-RHF iter  13:  -402.94923440420342   -2.18108e-10   4.14497e-09 DIIS
   @DF-RHF iter  14:  -402.94923440422281   -1.93836e-11   1.37128e-09 DIIS
   @DF-RHF iter  15:  -402.94923440422389   -1.08002e-12   4.83775e-10 DIIS
   @DF-RHF iter  16:  -402.94923440422309    7.95808e-13   1.68113e-10 DIIS
   @DF-RHF iter  17:  -402.94923440422406   -9.66338e-13   9.21863e-11 DIIS
  Energy and wave function converged.


  ==> Post-Iterations <==

    Orbital Energies [Eh]
    ---------------------

    Doubly Occupied:                                                      

       1A    -15.554160     2A    -11.258662     3A    -11.249450  
       4A    -11.236302     5A    -11.228623     6A    -11.226861  
       7A    -11.225842     8A    -11.224559     9A    -11.223253  
      10A    -11.217910    11A     -1.227903    12A     -1.133778  
      13A     -1.064054    14A     -1.016425    15A     -0.945613  
      16A     -0.921340    17A     -0.890163    18A     -0.796759  
      19A     -0.779802    20A     -0.692991    21A     -0.663944  
      22A     -0.634049    23A     -0.607227    24A     -0.591981  
      25A     -0.585700    26A     -0.566379    27A     -0.563277  
      28A     -0.558782    29A     -0.550297    30A     -0.530586  
      31A     -0.508867    32A     -0.494247    33A     -0.471601  
      34A     -0.466215    35A     -0.402576    36A     -0.315329  
      37A     -0.302343  

    Virtual:                                                              

      38A      0.027352    39A      0.032363    40A      0.033224  
      41A      0.040935    42A      0.044788    43A      0.045964  
      44A      0.052857    45A      0.059074    46A      0.062578  
      47A      0.066397    48A      0.068716    49A      0.086111  
      50A      0.086741    51A      0.096803    52A      0.101890  
      53A      0.105412    54A      0.110152    55A      0.112435  
      56A      0.113402    57A      0.117954    58A      0.121115  
      59A      0.127974    60A      0.130799    61A      0.134608  
      62A      0.135508    63A      0.138636    64A      0.146285  
      65A      0.147438    66A      0.149123    67A      0.153720  
      68A      0.157287    69A      0.161580    70A      0.163314  
      71A      0.167918    72A      0.171381    73A      0.172145  
      74A      0.177985    75A      0.181491    76A      0.187993  
      77A      0.191131    78A      0.194998    79A      0.203659  
      80A      0.214669    81A      0.218294    82A      0.222477  
      83A      0.228111    84A      0.235686    85A      0.241330  
      86A      0.252573    87A      0.256581    88A      0.257036  
      89A      0.257935    90A      0.265092    91A      0.279411  
      92A      0.280681    93A      0.287924    94A      0.291922  
      95A      0.297344    96A      0.300180    97A      0.304271  
      98A      0.311390    99A      0.312566   100A      0.319055  
     101A      0.323972   102A      0.329441   103A      0.337042  
     104A      0.338914   105A      0.343403   106A      0.349003  
     107A      0.351917   108A      0.354350   109A      0.360446  
     110A      0.364002   111A      0.364261   112A      0.367137  
     113A      0.374334   114A      0.376673   115A      0.381714  
     116A      0.384256   117A      0.391492   118A      0.395395  
     119A      0.403882   120A      0.409475   121A      0.412901  
     122A      0.414009   123A      0.415437   124A      0.422534  
     125A      0.426502   126A      0.428678   127A      0.438112  
     128A      0.438636   129A      0.445653   130A      0.446989  
     131A      0.449128   132A      0.453920   133A      0.457530  
     134A      0.461134   135A      0.467272   136A      0.470421  
     137A      0.476558   138A      0.481963   139A      0.484610  
     140A      0.488014   141A      0.489455   142A      0.491782  
     143A      0.495103   144A      0.497058   145A      0.506368  
     146A      0.506860   147A      0.511270   148A      0.514545  
     149A      0.520111   150A      0.523728   151A      0.526391  
     152A      0.530664   153A      0.539339   154A      0.542585  
     155A      0.546427   156A      0.549376   157A      0.555114  
     158A      0.557993   159A      0.559833   160A      0.563238  
     161A      0.565871   162A      0.575166   163A      0.576486  
     164A      0.581109   165A      0.584355   166A      0.585864  
     167A      0.600417   168A      0.602003   169A      0.607045  
     170A      0.612016   171A      0.617570   172A      0.622982  
     173A      0.629880   174A      0.635515   175A      0.638401  
     176A      0.642517   177A      0.651691   178A      0.657232  
     179A      0.664718   180A      0.670628   181A      0.677317  
     182A      0.691400   183A      0.704761   184A      0.705368  
     185A      0.714267   186A      0.717198   187A      0.724893  
     188A      0.732102   189A      0.733305   190A      0.737548  
     191A      0.750763   192A      0.755583   193A      0.765796  
     194A      0.769124   195A      0.774300   196A      0.782194  
     197A      0.785751   198A      0.792822   199A      0.800817  
     200A      0.804134   201A      0.806724   202A      0.810670  
     203A      0.821110   204A      0.827617   205A      0.835119  
     206A      0.841586   207A      0.846281   208A      0.849491  
     209A      0.859751   210A      0.864099   211A      0.870073  
     212A      0.875851   213A      0.876327   214A      0.884177  
     215A      0.890050   216A      0.892607   217A      0.896434  
     218A      0.906209   219A      0.911481   220A      0.916740  
     221A      0.923948   222A      0.926532   223A      0.931496  
     224A      0.939316   225A      0.941984   226A      0.951793  
     227A      0.952227   228A      0.960228   229A      0.964273  
     230A      0.971842   231A      0.973356   232A      0.976139  
     233A      0.979484   234A      0.985824   235A      0.994999  
     236A      1.001559   237A      1.004378   238A      1.006720  
     239A      1.008652   240A      1.014700   241A      1.018391  
     242A      1.020922   243A      1.025639   244A      1.034328  
     245A      1.041252   246A      1.046131   247A      1.055325  
     248A      1.058549   249A      1.060213   250A      1.068729  
     251A      1.072894   252A      1.074303   253A      1.079992  
     254A      1.085109   255A      1.087784   256A      1.096641  
     257A      1.102644   258A      1.111034   259A      1.114347  
     260A      1.121649   261A      1.128926   262A      1.130544  
     263A      1.134251   264A      1.137010   265A      1.144250  
     266A      1.151790   267A      1.156919   268A      1.159386  
     269A      1.164641   270A      1.166680   271A      1.173965  
     272A      1.185900   273A      1.187591   274A      1.196613  
     275A      1.199482   276A      1.206885   277A      1.212520  
     278A      1.217020   279A      1.220051   280A      1.225445  
     281A      1.230825   282A      1.236732   283A      1.247929  
     284A      1.249579   285A      1.251737   286A      1.255566  
     287A      1.260705   288A      1.267462   289A      1.270396  
     290A      1.278227   291A      1.290141   292A      1.299403  
     293A      1.305331   294A      1.309984   295A      1.319701  
     296A      1.324104   297A      1.332160   298A      1.340925  
     299A      1.343310   300A      1.356983   301A      1.362017  
     302A      1.370424   303A      1.374174   304A      1.382037  
     305A      1.391641   306A      1.396793   307A      1.404539  
     308A      1.413607   309A      1.418040   310A      1.424741  
     311A      1.432225   312A      1.438440   313A      1.448874  
     314A      1.453890   315A      1.456768   316A      1.463955  
     317A      1.473339   318A      1.477244   319A      1.483180  
     320A      1.491565   321A      1.498352   322A      1.499761  
     323A      1.511915   324A      1.519113   325A      1.521833  
     326A      1.528025   327A      1.537339   328A      1.541856  
     329A      1.546269   330A      1.569950   331A      1.573950  
     332A      1.581795   333A      1.592528   334A      1.596190  
     335A      1.604172   336A      1.611833   337A      1.620696  
     338A      1.622292   339A      1.631623   340A      1.639948  
     341A      1.651512   342A      1.658195   343A      1.662505  
     344A      1.669643   345A      1.678094   346A      1.681594  
     347A      1.687003   348A      1.695521   349A      1.697543  
     350A      1.713935   351A      1.716681   352A      1.727889  
     353A      1.730512   354A      1.743343   355A      1.748543  
     356A      1.754348   357A      1.758078   358A      1.764303  
     359A      1.773945   360A      1.779330   361A      1.784749  
     362A      1.791140   363A      1.805184   364A      1.806714  
     365A      1.823790   366A      1.834685   367A      1.839003  
     368A      1.842385   369A      1.846144   370A      1.849562  
     371A      1.857642   372A      1.872716   373A      1.880443  
     374A      1.886118   375A      1.892681   376A      1.906778  
     377A      1.911829   378A      1.916629   379A      1.922125  
     380A      1.930509   381A      1.935969   382A      1.941953  
     383A      1.956819   384A      1.970837   385A      1.973838  
     386A      1.979858   387A      1.991686   388A      1.996867  
     389A      2.002505   390A      2.008202   391A      2.020096  
     392A      2.026401   393A      2.032280   394A      2.048339  
     395A      2.059043   396A      2.063129   397A      2.074302  
     398A      2.083908   399A      2.089665   400A      2.104160  
     401A      2.109464   402A      2.117558   403A      2.132093  
     404A      2.134511   405A      2.139784   406A      2.146351  
     407A      2.160927   408A      2.168473   409A      2.174176  
     410A      2.181606   411A      2.191254   412A      2.196219  
     413A      2.201868   414A      2.206542   415A      2.215019  
     416A      2.226729   417A      2.240316   418A      2.242589  
     419A      2.246529   420A      2.263280   421A      2.274791  
     422A      2.276387   423A      2.288065   424A      2.295027  
     425A      2.297817   426A      2.302838   427A      2.312874  
     428A      2.324318   429A      2.333680   430A      2.335463  
     431A      2.348463   432A      2.357029   433A      2.363540  
     434A      2.373076   435A      2.383769   436A      2.386861  
     437A      2.402172   438A      2.410663   439A      2.421461  
     440A      2.433023   441A      2.453173   442A      2.462798  
     443A      2.470195   444A      2.483180   445A      2.508375  
     446A      2.514005   447A      2.521055   448A      2.541555  
     449A      2.557195   450A      2.564498   451A      2.576784  
     452A      2.584619   453A      2.604895   454A      2.635946  
     455A      2.655044   456A      2.673552   457A      2.693097  
     458A      2.699983   459A      2.718569   460A      2.727601  
     461A      2.737695   462A      2.753636   463A      2.783749  
     464A      2.794409   465A      2.796734   466A      2.821105  
     467A      2.832782   468A      2.871494   469A      2.888328  
     470A      2.900227   471A      2.907011   472A      2.929550  
     473A      2.944542   474A      3.068188   475A      3.096150  
     476A      3.118055   477A      3.163257   478A      3.184249  
     479A      3.184662   480A      3.259822   481A      3.281782  
     482A      3.296987   483A      3.304847   484A      3.334125  
     485A      3.353790   486A      3.364514   487A      3.387502  
     488A      3.406684   489A      3.419161   490A      3.421221  
     491A      3.438410   492A      3.448629   493A      3.459528  
     494A      3.467507   495A      3.476717   496A      3.483227  
     497A      3.491762   498A      3.521671   499A      3.530518  
     500A      3.543448   501A      3.545678   502A      3.562824  
     503A      3.568818   504A      3.571417   505A      3.581960  
     506A      3.589838   507A      3.609235   508A      3.620729  
     509A      3.630027   510A      3.638356   511A      3.643519  
     512A      3.649345   513A      3.656956   514A      3.667957  
     515A      3.691195   516A      3.699436   517A      3.706948  
     518A      3.710341   519A      3.731746   520A      3.738441  
     521A      3.747938   522A      3.750641   523A      3.756903  
     524A      3.763234   525A      3.772909   526A      3.788649  
     527A      3.799421   528A      3.803413   529A      3.808860  
     530A      3.823058   531A      3.832702   532A      3.836079  
     533A      3.840550   534A      3.849991   535A      3.861806  
     536A      3.874640   537A      3.891155   538A      3.899013  
     539A      3.912234   540A      3.921938   541A      3.923152  
     542A      3.929563   543A      3.939603   544A      3.948279  
     545A      3.961191   546A      3.964541   547A      3.978026  
     548A      3.978464   549A      3.987753   550A      3.997019  
     551A      4.004786   552A      4.009926   553A      4.017640  
     554A      4.023919   555A      4.029374   556A      4.045331  
     557A      4.058362   558A      4.066173   559A      4.070222  
     560A      4.073718   561A      4.081998   562A      4.094454  
     563A      4.099649   564A      4.115096   565A      4.125040  
     566A      4.139361   567A      4.146489   568A      4.159588  
     569A      4.166673   570A      4.180323   571A      4.194788  
     572A      4.201991   573A      4.211135   574A      4.216691  
     575A      4.226616   576A      4.244049   577A      4.248807  
     578A      4.258175   579A      4.268805   580A      4.271055  
     581A      4.286782   582A      4.302768   583A      4.313113  
     584A      4.318651   585A      4.325207   586A      4.330510  
     587A      4.347165   588A      4.352468   589A      4.362140  
     590A      4.371114   591A      4.376063   592A      4.392956  
     593A      4.401418   594A      4.410060   595A      4.413574  
     596A      4.421891   597A      4.435285   598A      4.441333  
     599A      4.445735   600A      4.465888   601A      4.480284  
     602A      4.487901   603A      4.500926   604A      4.509289  
     605A      4.520774   606A      4.526628   607A      4.545186  
     608A      4.559453   609A      4.570749   610A      4.575986  
     611A      4.586156   612A      4.597564   613A      4.618720  
     614A      4.622916   615A      4.640504   616A      4.646383  
     617A      4.655820   618A      4.678053   619A      4.681181  
     620A      4.693283   621A      4.714095   622A      4.717495  
     623A      4.734877   624A      4.739972   625A      4.755687  
     626A      4.770883   627A      4.777922   628A      4.795272  
     629A      4.800439   630A      4.807384   631A      4.823063  
     632A      4.824779   633A      4.849036   634A      4.851615  
     635A      4.863356   636A      4.878612   637A      4.882874  
     638A      4.899680   639A      4.918104   640A      4.934615  
     641A      4.939607   642A      4.945164   643A      4.948446  
     644A      4.956280   645A      4.962336   646A      4.980635  
     647A      4.988521   648A      5.004686   649A      5.022719  
     650A      5.026363   651A      5.039201   652A      5.061312  
     653A      5.074108   654A      5.079250   655A      5.104247  
     656A      5.109449   657A      5.128236   658A      5.131921  
     659A      5.140264   660A      5.155498   661A      5.169521  
     662A      5.194081   663A      5.201832   664A      5.206981  
     665A      5.220873   666A      5.234018   667A      5.237332  
     668A      5.256499   669A      5.266141   670A      5.282775  
     671A      5.289082   672A      5.298971   673A      5.316686  
     674A      5.321287   675A      5.334817   676A      5.358394  
     677A      5.378598   678A      5.400160   679A      5.407348  
     680A      5.427341   681A      5.449742   682A      5.452037  
     683A      5.464635   684A      5.470388   685A      5.484798  
     686A      5.493109   687A      5.527867   688A      5.536152  
     689A      5.555837   690A      5.576836   691A      5.604431  
     692A      5.609039   693A      5.620395   694A      5.648322  
     695A      5.664575   696A      5.695425   697A      5.711586  
     698A      5.739029   699A      5.742343   700A      5.754055  
     701A      5.763557   702A      5.780338   703A      5.815747  
     704A      5.844353   705A      5.850794   706A      5.869298  
     707A      5.907115   708A      5.939370   709A      5.960084  
     710A      5.983299   711A      6.024999   712A      6.056171  
     713A      6.085470   714A      6.099963   715A      6.134277  
     716A      6.151903   717A      6.174852   718A      6.195109  
     719A      6.210418   720A      6.217059   721A      6.239159  
     722A      6.247464   723A      6.269069   724A      6.308768  
     725A      6.319140   726A      6.374032   727A      6.395158  
     728A      6.438844   729A      6.469533   730A      6.512233  
     731A      6.519164   732A      6.537739   733A      6.607060  
     734A      6.662429   735A      6.782304   736A      6.795969  
     737A      6.806121   738A      6.834833   739A      6.860096  
     740A      6.868704   741A      6.906215   742A      6.945928  
     743A      6.978829   744A      7.005589   745A      7.060176  
     746A      7.121478   747A      7.173695   748A      7.292082  
     749A      7.800182   750A     16.483245   751A     16.597361  
     752A     17.210215   753A     18.468048   754A     18.961532  
     755A     19.199448   756A     19.986470   757A     20.952487  
     758A     21.158814   759A     21.635378  

    Final Occupation by Irrep:
              A 
    DOCC [    37 ]

  @DF-RHF Final Energy:  -402.94923440422406

   => Energetics <=

    Nuclear Repulsion Energy =            523.1720594445724828
    One-Electron Energy =               -1582.3868858885587088
    Two-Electron Energy =                 656.2655920397620548
    Total Energy =                       -402.9492344042240575

Computation Completed

*** tstop() called on c420-112.stampede2.tacc.utexas.edu at Sat Mar  6 13:38:43 2021
Module time:
	user time   =     886.25 seconds =      14.77 minutes
	system time =      55.46 seconds =       0.92 minutes
	total time  =         47 seconds =       0.78 minutes
Total time:
	user time   =     886.25 seconds =      14.77 minutes
	system time =      55.46 seconds =       0.92 minutes
	total time  =         47 seconds =       0.78 minutes
   => Loading Basis Set <=

    Name: (AUG-CC-PVTZ AUX)
    Role: RIFIT
    Keyword: DF_BASIS_MP2
    atoms 1     entry N          line   206 file /home1/07844/xy3866/miniconda3/envs/p4env/share/psi4/basis/aug-cc-pvtz-ri.gbs 
    atoms 2-10  entry C          line   148 file /home1/07844/xy3866/miniconda3/envs/p4env/share/psi4/basis/aug-cc-pvtz-ri.gbs 
    atoms 11-23 entry H          line    30 file /home1/07844/xy3866/miniconda3/envs/p4env/share/psi4/basis/aug-cc-pvtz-ri.gbs 


*** tstart() called on c420-112.stampede2.tacc.utexas.edu
*** at Sat Mar  6 13:38:44 2021


  //>>>>>>>>>>>>>>>>>>>>>>>>>>>>>>>>>>>//
  //               DFMP2               //
  //<<<<<<<<<<<<<<<<<<<<<<<<<<<<<<<<<<<//

	 --------------------------------------------------------
	                          DF-MP2                         
	      2nd-Order Density-Fitted Moller-Plesset Theory     
	              RMP2 Wavefunction,  32 Threads             
	                                                         
	        Rob Parrish, Justin Turney, Andy Simmonett,      
	           Ed Hohenstein, and C. David Sherrill          
	 --------------------------------------------------------

   => Auxiliary Basis Set <=

  Basis Set: (AUG-CC-PVTZ AUX)
    Blend: AUG-CC-PVTZ-RI
    Number of shells: 462
    Number of basis functions: 1658
    Number of Cartesian functions: 2075
    Spherical Harmonics?: true
    Max angular momentum: 4

	 --------------------------------------------------------
	                 NBF =   759, NAUX =  1658
	 --------------------------------------------------------
	   CLASS    FOCC     OCC    AOCC    AVIR     VIR    FVIR
	   PAIRS       0      37      37     722     722       0
	 --------------------------------------------------------

  DFHelper Memory: AOs need 6.955 GiB; user supplied 22.352 GiB. Using in-core AOs.


         ------------------------------------------------------------
                                     CPHF                           
                                  Rob Parrish                       
         ------------------------------------------------------------

  ==> Geometry <==

    Molecular point group: c1
    Full point group: C1

    Geometry (in Angstrom), charge = 0, multiplicity = 1:

       Center              X                  Y                   Z               Mass       
    ------------   -----------------  -----------------  -----------------  -----------------
         N            1.672250543097     0.618243195815    -0.461066733023    14.003074004430
         C            0.348516543097     0.157860195815    -0.198364733023    12.000000000000
         C           -0.725188456903     1.065383195815    -0.075934733023    12.000000000000
         C            0.126018543097    -1.231242804185    -0.106866733023    12.000000000000
         C           -2.012498456903     0.567483195815     0.149930266977    12.000000000000
         C           -1.172187456903    -1.689630804185     0.142500266977    12.000000000000
         C           -2.239624456903    -0.802736804185     0.270387266977    12.000000000000
         C           -0.495274456903     2.551909195815    -0.190970733023    12.000000000000
         C            1.177802343097    -2.145445804185    -0.288103133023    12.000000000000
         C            2.547714543097     0.622464195815     0.718086266977    12.000000000000
         H           -2.843151456903     1.265338195815     0.243401266977     1.007825032230
         H           -1.348361456903    -2.762130804185     0.211300266977     1.007825032230
         H            1.637051543097     1.559401195815    -0.845735733023     1.007825032230
         H           -3.244186456903    -1.176877804185     0.453334266977     1.007825032230
         H            0.280533543097     2.897866195815     0.500687266977     1.007825032230
         H           -0.192608456903     2.845843195815    -1.203496733023     1.007825032230
         H           -1.414126456903     3.096107195815     0.042184266977     1.007825032230
         H            1.986987543097    -1.804354804185    -1.001150733023     1.007825032230
         H            1.771874543097    -2.432508804185     0.638392266977     1.007825032230
         H            0.869175543097    -3.157009804185    -0.692722733023     1.007825032230
         H            2.138959543097     1.192680195815     1.565434266977     1.007825032230
         H            3.513020543097     1.051136195815     0.435516266977     1.007825032230
         H            2.718874543097    -0.402325804185     1.050304266977     1.007825032230

  Nuclear repulsion =  523.172059444572483
  Reference energy  = -402.949234404224057

  ==> Basis Set <==

  Basis Set: AUG-CC-PVTZ
    Blend: AUG-CC-PVTZ
    Number of shells: 257
    Number of basis functions: 759
    Number of Cartesian functions: 875
    Spherical Harmonics?: true
    Max angular momentum: 3

  ==> CGRSolver (by Rob Parrish) <==

   Number of roots    =         1
   Preconditioning    =    JACOBI
   Convergence cutoff =     1E-06
   Maximum iterations =       100

  ==> CPHFRHamiltonian (by Rob Parrish) <== 

  ==> MemDFJK: Density-Fitted J/K Matrices <==

    J tasked:                   Yes
    K tasked:                   Yes
    wK tasked:                   No
    OpenMP threads:              32
    Memory [MiB]:             22888
    Algorithm:                 Core
    Schwarz Cutoff:           1E-12
    Mask sparsity (%):       4.9580
    Fitting Condition:        1E-10

   => Auxiliary Basis Set <=

  Basis Set: (AUG-CC-PVTZ AUX)
    Blend: AUG-CC-PVTZ-JKFIT
    Number of shells: 482
    Number of basis functions: 1638
    Number of Cartesian functions: 2025
    Spherical Harmonics?: true
    Max angular momentum: 4

  ==> CPHF Iterations <==

  => Iterations <=

             Iter  Converged  Remaining    Residual
  CGR           1          0          1   7.924E-02
  CGR           2          0          1   1.859E-02
  CGR           3          0          1   7.688E-03
  CGR           4          0          1   2.542E-03
  CGR           5          0          1   8.871E-04
  CGR           6          0          1   3.002E-04
  CGR           7          0          1   1.283E-04
  CGR           8          0          1   6.814E-05
  CGR           9          0          1   2.646E-05
  CGR          10          0          1   8.697E-06
  CGR          11          0          1   3.605E-06
  CGR          12          0          1   1.181E-06
  CGR          13          1          0   4.692E-07

    CGRSolver converged.

	-----------------------------------------------------------
	 ==================> DF-MP2 Energies <==================== 
	-----------------------------------------------------------
	 Reference Energy          =    -402.9492344042240575 [Eh]
	 Singles Energy            =      -0.0000000000000000 [Eh]
	 Same-Spin Energy          =      -0.4494170699486707 [Eh]
	 Opposite-Spin Energy      =      -1.4675286537851968 [Eh]
	 Correlation Energy        =      -1.9169457237338676 [Eh]
	 Total Energy              =    -404.8661801279579322 [Eh]
	-----------------------------------------------------------
	 ================> DF-SCS-MP2 Energies <================== 
	-----------------------------------------------------------
	 SCS Same-Spin Scale       =       0.3333333333333333 [-]
	 SCS Opposite-Spin Scale   =       1.2000000000000000 [-]
	 SCS Same-Spin Energy      =      -0.1498056899828902 [Eh]
	 SCS Opposite-Spin Energy  =      -1.7610343845422360 [Eh]
	 SCS Correlation Energy    =      -1.9108400745251262 [Eh]
	 SCS Total Energy          =    -404.8600744787491976 [Eh]
	-----------------------------------------------------------



Properties will be evaluated at  -0.000000,   0.000000,  -0.000000 [a0]

Properties computed using the MP2 density matrix

  Nuclear Dipole Moment: [e a0]
     X:     5.5019      Y:     2.0355      Z:     1.3114

  Electronic Dipole Moment: [e a0]
     X:    -5.2862      Y:    -1.6092      Z:    -1.1088

  Dipole Moment: [e a0]
     X:     0.2156      Y:     0.4263      Z:     0.2026     Total:     0.5189

  Dipole Moment: [D]
     X:     0.5481      Y:     1.0836      Z:     0.5148     Total:     1.3190


*** tstop() called on c420-112.stampede2.tacc.utexas.edu at Sat Mar  6 13:43:15 2021
Module time:
	user time   =    2691.81 seconds =      44.86 minutes
	system time =      77.04 seconds =       1.28 minutes
	total time  =        271 seconds =       4.52 minutes
Total time:
	user time   =    3579.17 seconds =      59.65 minutes
	system time =     132.53 seconds =       2.21 minutes
	total time  =        319 seconds =       5.32 minutes

    Psi4 stopped on: Saturday, 06 March 2021 01:43PM
    Psi4 wall time for execution: 0:05:20.53

*** Psi4 exiting successfully. Buy a developer a beer!
