
    -----------------------------------------------------------------------
          Psi4: An Open-Source Ab Initio Electronic Structure Package
                               Psi4 1.4a3.dev225 

                         Git: Rev {master} 7105e37 


    D. G. A. Smith, L. A. Burns, A. C. Simmonett, R. M. Parrish,
    M. C. Schieber, R. Galvelis, P. Kraus, H. Kruse, R. Di Remigio,
    A. Alenaizan, A. M. James, S. Lehtola, J. P. Misiewicz, M. Scheurer,
    R. A. Shaw, J. B. Schriber, Y. Xie, Z. L. Glick, D. A. Sirianni,
    J. S. O'Brien, J. M. Waldrop, A. Kumar, E. G. Hohenstein,
    B. P. Pritchard, B. R. Brooks, H. F. Schaefer III, A. Yu. Sokolov,
    K. Patkowski, A. E. DePrince III, U. Bozkaya, R. A. King,
    F. A. Evangelista, J. M. Turney, T. D. Crawford, C. D. Sherrill,
    J. Chem. Phys. 152(18) 184108 (2020). https://doi.org/10.1063/5.0006002

                            Additional Code Authors
    E. T. Seidl, C. L. Janssen, E. F. Valeev, M. L. Leininger,
    J. F. Gonthier, R. M. Richard, H. R. McAlexander, M. Saitow, X. Wang,
    P. Verma, and M. H. Lechner

             Previous Authors, Complete List of Code Contributors,
                       and Citations for Specific Modules
    https://github.com/psi4/psi4/blob/master/codemeta.json
    https://github.com/psi4/psi4/graphs/contributors
    http://psicode.org/psi4manual/master/introduction.html#citing-psifour

    -----------------------------------------------------------------------


    Psi4 started on: Thursday, 01 April 2021 06:40AM

    Process ID: 155488
    Host:       c473-041.stampede2.tacc.utexas.edu
    PSIDATADIR: /home1/07844/xy3866/miniconda3/envs/p4env/share/psi4
    Memory:     500.0 MiB
    Threads:    8
    
  ==> Input File <==

--------------------------------------------------------------------------
#psi4
#
memory 32 gb

molecule  {
0 1
  N        1.6268380     0.6089620    -0.4693990
  C        0.3031040     0.1485790    -0.2066970
  C       -0.7706010     1.0561020    -0.0842670
  C        0.0806060    -1.2405240    -0.1151990
  C       -2.0579110     0.5582020     0.1415980
  C       -1.2176000    -1.6989120     0.1341680
  C       -2.2850370    -0.8120180     0.2620550
  C       -0.5406870     2.5426280    -0.1993030
  C        1.2072340    -2.2197810    -0.3093320
  C        2.5023020     0.6131830     0.7097540
  H       -2.8885640     1.2560570     0.2350690
  H       -1.3937740    -2.7714120     0.2029680
  H        1.5916390     1.5501200    -0.8540680
  H       -3.2895990    -1.1861590     0.4450020
  H        0.2351210     2.8885850     0.4923550
  H       -0.2380210     2.8365620    -1.2118290
  H       -1.4595390     3.0868260     0.0338520
  H        1.9415750    -1.8136360    -1.0094830
  H        1.7264620    -2.4417900     0.6300600
  H        0.8237630    -3.1662910    -0.7010550
  H        2.0935470     1.1833990     1.5571020
  H        3.4676080     1.0418550     0.4271840
  H        2.6813076    -0.4585810     1.0572001
units angstrom
no_reorient  #important for SAPT in psi4, default
symmetry c1  #important for SAPT in psi4, default
}

set PROPERTIES_ORIGIN ["COM"]
properties('MP2/aug-cc-pvtz', properties = ['dipole'])
--------------------------------------------------------------------------

  Memory set to  29.802 GiB by Python driver.
    SCF Algorithm Type (re)set to DF.

*** tstart() called on c473-041.stampede2.tacc.utexas.edu
*** at Thu Apr  1 06:40:12 2021

   => Loading Basis Set <=

    Name: AUG-CC-PVTZ
    Role: ORBITAL
    Keyword: BASIS
    atoms 1     entry N          line   285 file /home1/07844/xy3866/miniconda3/envs/p4env/share/psi4/basis/aug-cc-pvtz.gbs 
    atoms 2-10  entry C          line   239 file /home1/07844/xy3866/miniconda3/envs/p4env/share/psi4/basis/aug-cc-pvtz.gbs 
    atoms 11-23 entry H          line    40 file /home1/07844/xy3866/miniconda3/envs/p4env/share/psi4/basis/aug-cc-pvtz.gbs 


         ---------------------------------------------------------
                                   SCF
               by Justin Turney, Rob Parrish, Andy Simmonett
                          and Daniel G. A. Smith
                              RHF Reference
                        8 Threads,  30517 MiB Core
         ---------------------------------------------------------

  ==> Geometry <==

    Molecular point group: c1
    Full point group: C1

    Geometry (in Angstrom), charge = 0, multiplicity = 1:

       Center              X                  Y                   Z               Mass       
    ------------   -----------------  -----------------  -----------------  -----------------
         N            1.665544360964     0.624371694407    -0.460034853029    14.003074004430
         C            0.341810360964     0.163988694407    -0.197332853029    12.000000000000
         C           -0.731894639036     1.071511694407    -0.074902853029    12.000000000000
         C            0.119312360964    -1.225114305593    -0.105834853029    12.000000000000
         C           -2.019204639036     0.573611694407     0.150962146971    12.000000000000
         C           -1.178893639036    -1.683502305593     0.143532146971    12.000000000000
         C           -2.246330639036    -0.796608305593     0.271419146971    12.000000000000
         C           -0.501980639036     2.558037694407    -0.189938853029    12.000000000000
         C            1.245940360964    -2.204371305593    -0.299967853029    12.000000000000
         C            2.541008360964     0.628592694407     0.719118146971    12.000000000000
         H           -2.849857639036     1.271466694407     0.244433146971     1.007825032230
         H           -1.355067639036    -2.756002305593     0.212332146971     1.007825032230
         H            1.630345360964     1.565529694407    -0.844703853029     1.007825032230
         H           -3.250892639036    -1.170749305593     0.454366146971     1.007825032230
         H            0.273827360964     2.903994694407     0.501719146971     1.007825032230
         H           -0.199314639036     2.851971694407    -1.202464853029     1.007825032230
         H           -1.420832639036     3.102235694407     0.043216146971     1.007825032230
         H            1.980281360964    -1.798226305593    -1.000118853029     1.007825032230
         H            1.765168360964    -2.426380305593     0.639424146971     1.007825032230
         H            0.862469360964    -3.150881305593    -0.691690853029     1.007825032230
         H            2.132253360964     1.198808694407     1.566466146971     1.007825032230
         H            3.506314360964     1.057264694407     0.436548146971     1.007825032230
         H            2.720013960964    -0.443171305593     1.066564246971     1.007825032230

  Running in c1 symmetry.

  Rotational constants: A =      0.05487  B =      0.04798  C =      0.02736 [cm^-1]
  Rotational constants: A =   1645.08237  B =   1438.41719  C =    820.19989 [MHz]
  Nuclear repulsion =  521.124635565416497

  Charge       = 0
  Multiplicity = 1
  Electrons    = 74
  Nalpha       = 37
  Nbeta        = 37

  ==> Algorithm <==

  SCF Algorithm Type is DF.
  DIIS enabled.
  MOM disabled.
  Fractional occupation disabled.
  Guess Type is SAD.
  Energy threshold   = 1.00e-10
  Density threshold  = 1.00e-10
  Integral threshold = 1.00e-12

  ==> Primary Basis <==

  Basis Set: AUG-CC-PVTZ
    Blend: AUG-CC-PVTZ
    Number of shells: 257
    Number of basis functions: 759
    Number of Cartesian functions: 875
    Spherical Harmonics?: true
    Max angular momentum: 3

   => Loading Basis Set <=

    Name: (AUG-CC-PVTZ AUX)
    Role: JKFIT
    Keyword: DF_BASIS_SCF
    atoms 1     entry N          line   224 file /home1/07844/xy3866/miniconda3/envs/p4env/share/psi4/basis/aug-cc-pvtz-jkfit.gbs 
    atoms 2-10  entry C          line   162 file /home1/07844/xy3866/miniconda3/envs/p4env/share/psi4/basis/aug-cc-pvtz-jkfit.gbs 
    atoms 11-23 entry H          line    70 file /home1/07844/xy3866/miniconda3/envs/p4env/share/psi4/basis/aug-cc-pvtz-jkfit.gbs 

  ==> Integral Setup <==

  DFHelper Memory: AOs need 6.597 GiB; user supplied 22.352 GiB. Using in-core AOs.

  ==> MemDFJK: Density-Fitted J/K Matrices <==

    J tasked:                   Yes
    K tasked:                   Yes
    wK tasked:                   No
    OpenMP threads:               8
    Memory [MiB]:             22888
    Algorithm:                 Core
    Schwarz Cutoff:           1E-12
    Mask sparsity (%):       8.5846
    Fitting Condition:        1E-10

   => Auxiliary Basis Set <=

  Basis Set: (AUG-CC-PVTZ AUX)
    Blend: AUG-CC-PVTZ-JKFIT
    Number of shells: 482
    Number of basis functions: 1638
    Number of Cartesian functions: 2025
    Spherical Harmonics?: true
    Max angular momentum: 4

  Minimum eigenvalue in the overlap matrix is 3.8410471344E-07.
  Reciprocal condition number of the overlap matrix is 1.7352784667E-08.
    Using symmetric orthogonalization.

  ==> Pre-Iterations <==

  SCF Guess: Superposition of Atomic Densities via on-the-fly atomic UHF (no occupation information).

   -------------------------
    Irrep   Nso     Nmo    
   -------------------------
     A        759     759 
   -------------------------
    Total     759     759
   -------------------------

  ==> Iterations <==

                           Total Energy        Delta E     RMS |[F,P]|

   @DF-RHF iter SAD:  -402.52273483550709   -4.02523e+02   0.00000e+00 
   @DF-RHF iter   1:  -402.61283383750765   -9.00990e-02   9.68411e-04 DIIS
   @DF-RHF iter   2:  -402.90093416172851   -2.88100e-01   4.26648e-04 DIIS
   @DF-RHF iter   3:  -402.95511998679569   -5.41858e-02   9.15002e-05 DIIS
   @DF-RHF iter   4:  -402.95903563247771   -3.91565e-03   3.53329e-05 DIIS
   @DF-RHF iter   5:  -402.95947683518926   -4.41203e-04   9.35239e-06 DIIS
   @DF-RHF iter   6:  -402.95951160279458   -3.47676e-05   2.60073e-06 DIIS
   @DF-RHF iter   7:  -402.95951511412846   -3.51133e-06   6.95776e-07 DIIS
   @DF-RHF iter   8:  -402.95951542649027   -3.12362e-07   1.98263e-07 DIIS
   @DF-RHF iter   9:  -402.95951545729861   -3.08083e-08   7.48685e-08 DIIS
   @DF-RHF iter  10:  -402.95951546138900   -4.09040e-09   2.38410e-08 DIIS
   @DF-RHF iter  11:  -402.95951546196085   -5.71845e-10   8.32211e-09 DIIS
   @DF-RHF iter  12:  -402.95951546204714   -8.62883e-11   4.43190e-09 DIIS
   @DF-RHF iter  13:  -402.95951546207328   -2.61480e-11   2.02441e-09 DIIS
   @DF-RHF iter  14:  -402.95951546208011   -6.82121e-12   8.67230e-10 DIIS
   @DF-RHF iter  15:  -402.95951546208119   -1.08002e-12   3.02115e-10 DIIS
   @DF-RHF iter  16:  -402.95951546208209   -9.09495e-13   9.73169e-11 DIIS
  Energy and wave function converged.


  ==> Post-Iterations <==

    Orbital Energies [Eh]
    ---------------------

    Doubly Occupied:                                                      

       1A    -15.554497     2A    -11.258355     3A    -11.255515  
       4A    -11.236004     5A    -11.232091     6A    -11.228549  
       7A    -11.225449     8A    -11.224275     9A    -11.223051  
      10A    -11.213999    11A     -1.226716    12A     -1.130846  
      13A     -1.054451    14A     -1.012228    15A     -0.944181  
      16A     -0.922048    17A     -0.888936    18A     -0.794351  
      19A     -0.781230    20A     -0.692253    21A     -0.660902  
      22A     -0.629599    23A     -0.603637    24A     -0.589699  
      25A     -0.578786    26A     -0.568388    27A     -0.564573  
      28A     -0.556688    29A     -0.552157    30A     -0.526708  
      31A     -0.520275    32A     -0.484577    33A     -0.476954  
      34A     -0.470776    35A     -0.402455    36A     -0.317138  
      37A     -0.302868  

    Virtual:                                                              

      38A      0.027366    39A      0.032635    40A      0.033264  
      41A      0.040920    42A      0.044847    43A      0.045936  
      44A      0.052953    45A      0.059080    46A      0.062602  
      47A      0.066249    48A      0.068679    49A      0.086086  
      50A      0.086751    51A      0.096736    52A      0.102150  
      53A      0.105423    54A      0.110598    55A      0.112412  
      56A      0.114740    57A      0.118932    58A      0.121275  
      59A      0.128109    60A      0.131023    61A      0.134379  
      62A      0.135290    63A      0.138812    64A      0.146386  
      65A      0.147989    66A      0.148914    67A      0.154178  
      68A      0.157593    69A      0.161385    70A      0.162157  
      71A      0.167982    72A      0.171240    73A      0.172565  
      74A      0.177649    75A      0.181608    76A      0.188050  
      77A      0.191061    78A      0.195251    79A      0.203757  
      80A      0.214569    81A      0.218297    82A      0.222770  
      83A      0.227786    84A      0.235295    85A      0.241334  
      86A      0.251970    87A      0.256054    88A      0.256814  
      89A      0.258356    90A      0.265148    91A      0.279310  
      92A      0.280674    93A      0.287365    94A      0.289997  
      95A      0.297620    96A      0.300319    97A      0.304942  
      98A      0.311885    99A      0.312338   100A      0.320037  
     101A      0.324445   102A      0.330068   103A      0.337217  
     104A      0.339234   105A      0.342418   106A      0.348794  
     107A      0.352358   108A      0.355673   109A      0.361230  
     110A      0.363137   111A      0.364038   112A      0.367711  
     113A      0.374611   114A      0.375991   115A      0.380944  
     116A      0.383981   117A      0.391406   118A      0.394715  
     119A      0.403577   120A      0.408462   121A      0.413504  
     122A      0.414344   123A      0.417521   124A      0.424137  
     125A      0.427145   126A      0.430514   127A      0.437606  
     128A      0.438523   129A      0.444667   130A      0.446888  
     131A      0.450986   132A      0.452745   133A      0.457281  
     134A      0.461243   135A      0.465585   136A      0.470777  
     137A      0.476553   138A      0.479926   139A      0.482531  
     140A      0.487301   141A      0.489246   142A      0.490817  
     143A      0.495392   144A      0.495426   145A      0.505541  
     146A      0.507288   147A      0.510996   148A      0.514019  
     149A      0.521362   150A      0.522528   151A      0.525910  
     152A      0.528633   153A      0.538781   154A      0.541426  
     155A      0.544925   156A      0.547465   157A      0.554389  
     158A      0.558731   159A      0.558905   160A      0.561535  
     161A      0.564920   162A      0.571910   163A      0.576373  
     164A      0.582572   165A      0.583418   166A      0.585605  
     167A      0.600580   168A      0.602186   169A      0.605047  
     170A      0.609717   171A      0.615704   172A      0.619408  
     173A      0.622149   174A      0.633149   175A      0.637968  
     176A      0.645419   177A      0.654023   178A      0.656249  
     179A      0.664168   180A      0.667719   181A      0.676124  
     182A      0.689702   183A      0.701028   184A      0.707833  
     185A      0.713102   186A      0.717545   187A      0.722660  
     188A      0.731649   189A      0.732928   190A      0.736570  
     191A      0.749233   192A      0.754110   193A      0.764307  
     194A      0.768785   195A      0.772799   196A      0.780732  
     197A      0.782349   198A      0.792459   199A      0.794705  
     200A      0.801119   201A      0.806406   202A      0.810948  
     203A      0.819164   204A      0.824934   205A      0.834053  
     206A      0.841215   207A      0.846648   208A      0.848272  
     209A      0.857984   210A      0.863107   211A      0.872895  
     212A      0.873526   213A      0.875762   214A      0.882760  
     215A      0.890368   216A      0.893626   217A      0.894456  
     218A      0.904583   219A      0.908461   220A      0.916584  
     221A      0.923678   222A      0.924623   223A      0.931075  
     224A      0.937542   225A      0.941881   226A      0.950537  
     227A      0.951715   228A      0.960728   229A      0.964198  
     230A      0.967381   231A      0.973202   232A      0.974689  
     233A      0.977600   234A      0.984740   235A      0.994149  
     236A      0.997270   237A      1.003984   238A      1.006399  
     239A      1.007058   240A      1.012315   241A      1.018724  
     242A      1.019389   243A      1.026014   244A      1.034464  
     245A      1.041096   246A      1.045282   247A      1.052953  
     248A      1.056625   249A      1.059221   250A      1.069369  
     251A      1.071411   252A      1.076110   253A      1.081250  
     254A      1.083383   255A      1.087821   256A      1.093782  
     257A      1.100733   258A      1.109781   259A      1.113684  
     260A      1.120478   261A      1.127711   262A      1.128925  
     263A      1.132366   264A      1.135438   265A      1.140455  
     266A      1.149029   267A      1.157597   268A      1.158308  
     269A      1.165560   270A      1.166887   271A      1.172412  
     272A      1.180917   273A      1.187649   274A      1.192695  
     275A      1.196838   276A      1.206550   277A      1.211721  
     278A      1.215618   279A      1.220071   280A      1.224314  
     281A      1.227151   282A      1.234661   283A      1.245291  
     284A      1.249229   285A      1.252350   286A      1.255836  
     287A      1.259019   288A      1.263086   289A      1.269548  
     290A      1.277559   291A      1.285979   292A      1.299826  
     293A      1.303166   294A      1.308845   295A      1.319059  
     296A      1.324165   297A      1.331397   298A      1.339511  
     299A      1.343402   300A      1.355776   301A      1.359229  
     302A      1.370480   303A      1.371724   304A      1.380109  
     305A      1.391281   306A      1.396471   307A      1.403494  
     308A      1.412917   309A      1.418429   310A      1.425308  
     311A      1.429632   312A      1.441575   313A      1.448101  
     314A      1.451767   315A      1.457598   316A      1.462088  
     317A      1.474144   318A      1.478566   319A      1.482331  
     320A      1.490822   321A      1.496986   322A      1.498342  
     323A      1.510270   324A      1.517950   325A      1.519640  
     326A      1.526605   327A      1.535674   328A      1.540142  
     329A      1.545582   330A      1.569159   331A      1.572143  
     332A      1.578922   333A      1.587522   334A      1.596696  
     335A      1.604735   336A      1.613389   337A      1.616826  
     338A      1.622619   339A      1.628342   340A      1.638126  
     341A      1.645256   342A      1.656330   343A      1.660563  
     344A      1.668614   345A      1.672059   346A      1.679673  
     347A      1.682401   348A      1.693260   349A      1.698783  
     350A      1.714009   351A      1.714658   352A      1.722486  
     353A      1.729757   354A      1.742809   355A      1.745807  
     356A      1.753055   357A      1.761412   358A      1.765615  
     359A      1.769349   360A      1.778091   361A      1.784496  
     362A      1.791038   363A      1.805585   364A      1.808028  
     365A      1.823122   366A      1.832433   367A      1.834099  
     368A      1.839074   369A      1.845218   370A      1.850655  
     371A      1.858512   372A      1.866123   373A      1.879053  
     374A      1.882374   375A      1.890181   376A      1.906763  
     377A      1.911560   378A      1.914218   379A      1.921611  
     380A      1.931828   381A      1.934514   382A      1.935859  
     383A      1.952138   384A      1.970672   385A      1.974126  
     386A      1.981700   387A      1.989474   388A      1.996754  
     389A      2.002009   390A      2.009781   391A      2.019363  
     392A      2.025441   393A      2.029492   394A      2.048024  
     395A      2.058674   396A      2.063477   397A      2.075831  
     398A      2.086014   399A      2.090004   400A      2.100003  
     401A      2.102466   402A      2.117858   403A      2.124866  
     404A      2.132280   405A      2.138345   406A      2.145741  
     407A      2.155463   408A      2.166021   409A      2.171212  
     410A      2.176818   411A      2.187942   412A      2.192875  
     413A      2.202247   414A      2.209900   415A      2.213270  
     416A      2.219236   417A      2.238093   418A      2.242545  
     419A      2.248148   420A      2.259190   421A      2.267733  
     422A      2.272377   423A      2.285130   424A      2.292227  
     425A      2.295296   426A      2.300590   427A      2.305631  
     428A      2.317492   429A      2.328113   430A      2.331833  
     431A      2.344637   432A      2.354087   433A      2.363203  
     434A      2.369270   435A      2.381864   436A      2.389446  
     437A      2.394840   438A      2.404652   439A      2.420580  
     440A      2.426634   441A      2.452070   442A      2.456999  
     443A      2.462876   444A      2.470424   445A      2.503330  
     446A      2.510504   447A      2.521873   448A      2.536600  
     449A      2.554767   450A      2.556353   451A      2.574112  
     452A      2.586052   453A      2.610604   454A      2.629481  
     455A      2.644289   456A      2.666072   457A      2.688254  
     458A      2.690564   459A      2.711165   460A      2.718546  
     461A      2.732702   462A      2.746706   463A      2.767877  
     464A      2.784015   465A      2.794299   466A      2.810122  
     467A      2.828799   468A      2.863664   469A      2.875018  
     470A      2.881220   471A      2.903924   472A      2.917189  
     473A      2.952057   474A      3.056870   475A      3.087071  
     476A      3.112873   477A      3.138631   478A      3.184710  
     479A      3.192115   480A      3.237421   481A      3.272840  
     482A      3.290151   483A      3.305055   484A      3.316832  
     485A      3.341729   486A      3.348890   487A      3.366363  
     488A      3.395538   489A      3.397549   490A      3.413649  
     491A      3.429633   492A      3.447428   493A      3.450999  
     494A      3.462731   495A      3.473222   496A      3.475641  
     497A      3.483539   498A      3.517977   499A      3.530701  
     500A      3.532953   501A      3.542072   502A      3.550661  
     503A      3.566644   504A      3.568471   505A      3.580909  
     506A      3.592196   507A      3.605604   508A      3.622947  
     509A      3.628117   510A      3.636639   511A      3.642683  
     512A      3.645620   513A      3.657115   514A      3.667948  
     515A      3.684765   516A      3.694871   517A      3.697761  
     518A      3.706861   519A      3.727025   520A      3.733075  
     521A      3.735950   522A      3.746397   523A      3.750260  
     524A      3.763490   525A      3.774869   526A      3.780740  
     527A      3.793616   528A      3.803376   529A      3.809466  
     530A      3.815694   531A      3.828290   532A      3.833282  
     533A      3.837466   534A      3.847359   535A      3.863603  
     536A      3.869551   537A      3.889986   538A      3.894374  
     539A      3.903167   540A      3.912069   541A      3.917745  
     542A      3.928941   543A      3.936626   544A      3.951201  
     545A      3.956208   546A      3.960253   547A      3.967820  
     548A      3.974614   549A      3.989184   550A      3.992846  
     551A      4.003120   552A      4.003728   553A      4.018124  
     554A      4.022525   555A      4.024552   556A      4.037521  
     557A      4.050594   558A      4.062514   559A      4.066796  
     560A      4.068404   561A      4.080877   562A      4.087644  
     563A      4.091987   564A      4.116412   565A      4.120675  
     566A      4.140626   567A      4.150051   568A      4.154588  
     569A      4.160111   570A      4.176896   571A      4.190415  
     572A      4.197322   573A      4.210219   574A      4.216179  
     575A      4.223429   576A      4.239123   577A      4.246962  
     578A      4.253256   579A      4.263582   580A      4.275132  
     581A      4.288459   582A      4.296527   583A      4.309903  
     584A      4.313094   585A      4.317415   586A      4.325356  
     587A      4.344507   588A      4.348263   589A      4.362581  
     590A      4.364942   591A      4.372122   592A      4.386771  
     593A      4.390720   594A      4.402155   595A      4.409053  
     596A      4.420554   597A      4.426477   598A      4.433109  
     599A      4.450171   600A      4.464058   601A      4.474317  
     602A      4.483321   603A      4.499781   604A      4.509709  
     605A      4.521205   606A      4.526957   607A      4.541085  
     608A      4.552726   609A      4.559047   610A      4.566343  
     611A      4.580268   612A      4.603882   613A      4.610083  
     614A      4.619988   615A      4.634569   616A      4.640671  
     617A      4.652817   618A      4.670409   619A      4.680245  
     620A      4.687328   621A      4.702769   622A      4.712964  
     623A      4.730061   624A      4.737156   625A      4.749498  
     626A      4.762931   627A      4.774180   628A      4.786877  
     629A      4.787046   630A      4.802650   631A      4.808118  
     632A      4.825188   633A      4.830541   634A      4.848791  
     635A      4.860030   636A      4.867971   637A      4.884288  
     638A      4.887566   639A      4.915572   640A      4.929870  
     641A      4.932034   642A      4.940500   643A      4.950061  
     644A      4.956107   645A      4.961556   646A      4.972787  
     647A      4.977223   648A      5.000858   649A      5.020120  
     650A      5.027462   651A      5.038490   652A      5.063160  
     653A      5.075712   654A      5.085616   655A      5.098880  
     656A      5.109631   657A      5.122575   658A      5.131969  
     659A      5.142189   660A      5.157060   661A      5.166180  
     662A      5.183590   663A      5.196605   664A      5.210241  
     665A      5.220929   666A      5.232887   667A      5.240635  
     668A      5.252818   669A      5.264433   670A      5.286838  
     671A      5.289228   672A      5.306250   673A      5.310821  
     674A      5.321494   675A      5.325815   676A      5.364850  
     677A      5.380420   678A      5.382482   679A      5.401164  
     680A      5.434106   681A      5.449963   682A      5.457967  
     683A      5.461050   684A      5.481099   685A      5.489864  
     686A      5.513278   687A      5.523565   688A      5.539353  
     689A      5.558165   690A      5.569379   691A      5.595041  
     692A      5.608085   693A      5.623046   694A      5.639561  
     695A      5.656858   696A      5.693189   697A      5.715349  
     698A      5.723137   699A      5.733300   700A      5.750414  
     701A      5.772208   702A      5.786401   703A      5.811704  
     704A      5.817864   705A      5.828240   706A      5.872637  
     707A      5.879164   708A      5.931141   709A      5.954200  
     710A      5.997705   711A      6.028103   712A      6.067258  
     713A      6.082098   714A      6.105253   715A      6.121129  
     716A      6.139855   717A      6.165128   718A      6.177877  
     719A      6.197311   720A      6.216209   721A      6.231867  
     722A      6.242157   723A      6.257412   724A      6.295595  
     725A      6.309843   726A      6.344662   727A      6.357409  
     728A      6.387697   729A      6.439311   730A      6.490755  
     731A      6.507756   732A      6.513499   733A      6.595896  
     734A      6.642721   735A      6.768741   736A      6.791637  
     737A      6.796010   738A      6.832087   739A      6.845062  
     740A      6.865660   741A      6.890746   742A      6.937105  
     743A      6.966587   744A      6.985742   745A      7.055539  
     746A      7.111512   747A      7.152218   748A      7.272634  
     749A      7.793056   750A     16.327248   751A     16.523915  
     752A     17.164450   753A     18.180003   754A     18.940276  
     755A     19.021009   756A     19.905461   757A     20.830175  
     758A     21.136980   759A     21.484568  

    Final Occupation by Irrep:
              A 
    DOCC [    37 ]

  @DF-RHF Final Energy:  -402.95951546208209

   => Energetics <=

    Nuclear Repulsion Energy =            521.1246355654164972
    One-Electron Energy =               -1578.3578873972614929
    Two-Electron Energy =                 654.2737363697627870
    Total Energy =                       -402.9595154620820949

Computation Completed

*** tstop() called on c473-041.stampede2.tacc.utexas.edu at Thu Apr  1 06:41:39 2021
Module time:
	user time   =     540.13 seconds =       9.00 minutes
	system time =      12.26 seconds =       0.20 minutes
	total time  =         87 seconds =       1.45 minutes
Total time:
	user time   =     540.13 seconds =       9.00 minutes
	system time =      12.26 seconds =       0.20 minutes
	total time  =         87 seconds =       1.45 minutes
   => Loading Basis Set <=

    Name: (AUG-CC-PVTZ AUX)
    Role: RIFIT
    Keyword: DF_BASIS_MP2
    atoms 1     entry N          line   206 file /home1/07844/xy3866/miniconda3/envs/p4env/share/psi4/basis/aug-cc-pvtz-ri.gbs 
    atoms 2-10  entry C          line   148 file /home1/07844/xy3866/miniconda3/envs/p4env/share/psi4/basis/aug-cc-pvtz-ri.gbs 
    atoms 11-23 entry H          line    30 file /home1/07844/xy3866/miniconda3/envs/p4env/share/psi4/basis/aug-cc-pvtz-ri.gbs 


*** tstart() called on c473-041.stampede2.tacc.utexas.edu
*** at Thu Apr  1 06:41:40 2021


  //>>>>>>>>>>>>>>>>>>>>>>>>>>>>>>>>>>>//
  //               DFMP2               //
  //<<<<<<<<<<<<<<<<<<<<<<<<<<<<<<<<<<<//

	 --------------------------------------------------------
	                          DF-MP2                         
	      2nd-Order Density-Fitted Moller-Plesset Theory     
	              RMP2 Wavefunction,   8 Threads             
	                                                         
	        Rob Parrish, Justin Turney, Andy Simmonett,      
	           Ed Hohenstein, and C. David Sherrill          
	 --------------------------------------------------------

   => Auxiliary Basis Set <=

  Basis Set: (AUG-CC-PVTZ AUX)
    Blend: AUG-CC-PVTZ-RI
    Number of shells: 462
    Number of basis functions: 1658
    Number of Cartesian functions: 2075
    Spherical Harmonics?: true
    Max angular momentum: 4

	 --------------------------------------------------------
	                 NBF =   759, NAUX =  1658
	 --------------------------------------------------------
	   CLASS    FOCC     OCC    AOCC    AVIR     VIR    FVIR
	   PAIRS       0      37      37     722     722       0
	 --------------------------------------------------------

  DFHelper Memory: AOs need 6.849 GiB; user supplied 22.352 GiB. Using in-core AOs.


         ------------------------------------------------------------
                                     CPHF                           
                                  Rob Parrish                       
         ------------------------------------------------------------

  ==> Geometry <==

    Molecular point group: c1
    Full point group: C1

    Geometry (in Angstrom), charge = 0, multiplicity = 1:

       Center              X                  Y                   Z               Mass       
    ------------   -----------------  -----------------  -----------------  -----------------
         N            1.665544360964     0.624371694407    -0.460034853029    14.003074004430
         C            0.341810360964     0.163988694407    -0.197332853029    12.000000000000
         C           -0.731894639036     1.071511694407    -0.074902853029    12.000000000000
         C            0.119312360964    -1.225114305593    -0.105834853029    12.000000000000
         C           -2.019204639036     0.573611694407     0.150962146971    12.000000000000
         C           -1.178893639036    -1.683502305593     0.143532146971    12.000000000000
         C           -2.246330639036    -0.796608305593     0.271419146971    12.000000000000
         C           -0.501980639036     2.558037694407    -0.189938853029    12.000000000000
         C            1.245940360964    -2.204371305593    -0.299967853029    12.000000000000
         C            2.541008360964     0.628592694407     0.719118146971    12.000000000000
         H           -2.849857639036     1.271466694407     0.244433146971     1.007825032230
         H           -1.355067639036    -2.756002305593     0.212332146971     1.007825032230
         H            1.630345360964     1.565529694407    -0.844703853029     1.007825032230
         H           -3.250892639036    -1.170749305593     0.454366146971     1.007825032230
         H            0.273827360964     2.903994694407     0.501719146971     1.007825032230
         H           -0.199314639036     2.851971694407    -1.202464853029     1.007825032230
         H           -1.420832639036     3.102235694407     0.043216146971     1.007825032230
         H            1.980281360964    -1.798226305593    -1.000118853029     1.007825032230
         H            1.765168360964    -2.426380305593     0.639424146971     1.007825032230
         H            0.862469360964    -3.150881305593    -0.691690853029     1.007825032230
         H            2.132253360964     1.198808694407     1.566466146971     1.007825032230
         H            3.506314360964     1.057264694407     0.436548146971     1.007825032230
         H            2.720013960964    -0.443171305593     1.066564246971     1.007825032230

  Nuclear repulsion =  521.124635565416497
  Reference energy  = -402.959515462082095

  ==> Basis Set <==

  Basis Set: AUG-CC-PVTZ
    Blend: AUG-CC-PVTZ
    Number of shells: 257
    Number of basis functions: 759
    Number of Cartesian functions: 875
    Spherical Harmonics?: true
    Max angular momentum: 3

  ==> CGRSolver (by Rob Parrish) <==

   Number of roots    =         1
   Preconditioning    =    JACOBI
   Convergence cutoff =     1E-06
   Maximum iterations =       100

  ==> CPHFRHamiltonian (by Rob Parrish) <== 

  ==> MemDFJK: Density-Fitted J/K Matrices <==

    J tasked:                   Yes
    K tasked:                   Yes
    wK tasked:                   No
    OpenMP threads:               8
    Memory [MiB]:             22888
    Algorithm:                 Core
    Schwarz Cutoff:           1E-12
    Mask sparsity (%):       5.0024
    Fitting Condition:        1E-10

   => Auxiliary Basis Set <=

  Basis Set: (AUG-CC-PVTZ AUX)
    Blend: AUG-CC-PVTZ-JKFIT
    Number of shells: 482
    Number of basis functions: 1638
    Number of Cartesian functions: 2025
    Spherical Harmonics?: true
    Max angular momentum: 4

  ==> CPHF Iterations <==

  => Iterations <=

             Iter  Converged  Remaining    Residual
  CGR           1          0          1   7.706E-02
  CGR           2          0          1   1.794E-02
  CGR           3          0          1   7.485E-03
  CGR           4          0          1   2.578E-03
  CGR           5          0          1   9.817E-04
  CGR           6          0          1   4.604E-04
  CGR           7          0          1   2.137E-04
  CGR           8          0          1   9.074E-05
  CGR           9          0          1   2.942E-05
  CGR          10          0          1   9.178E-06
  CGR          11          0          1   3.722E-06
  CGR          12          0          1   1.185E-06
  CGR          13          1          0   4.627E-07

    CGRSolver converged.

	-----------------------------------------------------------
	 ==================> DF-MP2 Energies <==================== 
	-----------------------------------------------------------
	 Reference Energy          =    -402.9595154620820949 [Eh]
	 Singles Energy            =      -0.0000000000000000 [Eh]
	 Same-Spin Energy          =      -0.4480803020897486 [Eh]
	 Opposite-Spin Energy      =      -1.4663396175866896 [Eh]
	 Correlation Energy        =      -1.9144199196764382 [Eh]
	 Total Energy              =    -404.8739353817585425 [Eh]
	-----------------------------------------------------------
	 ================> DF-SCS-MP2 Energies <================== 
	-----------------------------------------------------------
	 SCS Same-Spin Scale       =       0.3333333333333333 [-]
	 SCS Opposite-Spin Scale   =       1.2000000000000000 [-]
	 SCS Same-Spin Energy      =      -0.1493601006965829 [Eh]
	 SCS Opposite-Spin Energy  =      -1.7596075411040275 [Eh]
	 SCS Correlation Energy    =      -1.9089676418006103 [Eh]
	 SCS Total Energy          =    -404.8684831038826815 [Eh]
	-----------------------------------------------------------



Properties will be evaluated at  -0.000000,   0.000000,  -0.000000 [a0]

Properties computed using the MP2 density matrix

  Nuclear Dipole Moment: [e a0]
     X:     5.4275      Y:     2.0661      Z:     1.3383

  Electronic Dipole Moment: [e a0]
     X:    -5.2216      Y:    -1.6368      Z:    -1.1392

  Dipole Moment: [e a0]
     X:     0.2060      Y:     0.4294      Z:     0.1990     Total:     0.5161

  Dipole Moment: [D]
     X:     0.5235      Y:     1.0913      Z:     0.5058     Total:     1.3118


*** tstop() called on c473-041.stampede2.tacc.utexas.edu at Thu Apr  1 06:47:28 2021
Module time:
	user time   =    2182.45 seconds =      36.37 minutes
	system time =      31.27 seconds =       0.52 minutes
	total time  =        348 seconds =       5.80 minutes
Total time:
	user time   =    2723.69 seconds =      45.39 minutes
	system time =      43.56 seconds =       0.73 minutes
	total time  =        436 seconds =       7.27 minutes

    Psi4 stopped on: Thursday, 01 April 2021 06:47AM
    Psi4 wall time for execution: 0:07:17.74

*** Psi4 exiting successfully. Buy a developer a beer!
