
    -----------------------------------------------------------------------
          Psi4: An Open-Source Ab Initio Electronic Structure Package
                               Psi4 1.3.2 release

                         Git: Rev {HEAD} ecbda83 


    R. M. Parrish, L. A. Burns, D. G. A. Smith, A. C. Simmonett,
    A. E. DePrince III, E. G. Hohenstein, U. Bozkaya, A. Yu. Sokolov,
    R. Di Remigio, R. M. Richard, J. F. Gonthier, A. M. James,
    H. R. McAlexander, A. Kumar, M. Saitow, X. Wang, B. P. Pritchard,
    P. Verma, H. F. Schaefer III, K. Patkowski, R. A. King, E. F. Valeev,
    F. A. Evangelista, J. M. Turney, T. D. Crawford, and C. D. Sherrill,
    J. Chem. Theory Comput. 13(7) pp 3185--3197 (2017).
    (doi: 10.1021/acs.jctc.7b00174)


                         Additional Contributions by
    P. Kraus, H. Kruse, M. H. Lechner, M. C. Schieber, R. A. Shaw,
    A. Alenaizan, R. Galvelis, Z. L. Glick, S. Lehtola, and J. P. Misiewicz

    -----------------------------------------------------------------------


    Psi4 started on: Monday, 02 November 2020 09:54PM

    Process ID: 13954
    Host:       node95.bme.utexas.edu
    PSIDATADIR: /home/xy3866/psi4conda/share/psi4
    Memory:     500.0 MiB
    Threads:    8
    
  ==> Input File <==

--------------------------------------------------------------------------
#psi4
#
memory 32 gb

molecule  {
-1 1
  O       -2.9259140    -0.9099280    -0.5693610
  O       -2.5318610     1.2678500    -0.0507790
  C        2.5515340     0.1562790    -0.6847320
  C        1.3133740    -0.4576390    -0.0973370
  C        0.1996320     0.2215300     0.2212070
  C       -1.0445084    -0.3591976     0.8259971
  C        3.7521530     0.0645780     0.2634350
  C       -2.2854840     0.0250790    -0.0044070
  H        2.8053070    -0.3466590    -1.6276820
  H        2.3518550     1.2059430    -0.9306210
  H        1.3523840    -1.5323490     0.0963350
  H        0.1449767     1.2937145     0.0250330
  H       -0.9504340    -1.4608690     0.8884060
  H       -1.1707130     0.0247460     1.8437960
  H        3.9732670    -0.9779260     0.5120620
  H        3.5426510     0.5954950     1.1964510
  H        4.6498360     0.5017940    -0.1852730
units angstrom
no_reorient  #important for SAPT in psi4, default
symmetry c1  #important for SAPT in psi4, default
}

set PROPERTIES_ORIGIN ["COM"]
properties('MP2/aug-cc-pvtz', properties = ['dipole'])
--------------------------------------------------------------------------

  Memory set to  29.802 GiB by Python driver.
    SCF Algorithm Type (re)set to DF.

*** tstart() called on node95.bme.utexas.edu
*** at Mon Nov  2 21:54:50 2020

   => Loading Basis Set <=

    Name: AUG-CC-PVTZ
    Role: ORBITAL
    Keyword: BASIS
    atoms 1-2  entry O          line   327 file /home/xy3866/psi4conda/share/psi4/basis/aug-cc-pvtz.gbs 
    atoms 3-8  entry C          line   235 file /home/xy3866/psi4conda/share/psi4/basis/aug-cc-pvtz.gbs 
    atoms 9-17 entry H          line    36 file /home/xy3866/psi4conda/share/psi4/basis/aug-cc-pvtz.gbs 


         ---------------------------------------------------------
                                   SCF
               by Justin Turney, Rob Parrish, Andy Simmonett
                          and Daniel G. A. Smith
                              RHF Reference
                        8 Threads,  30517 MiB Core
         ---------------------------------------------------------

  ==> Geometry <==

    Molecular point group: c1
    Full point group: C1

    Geometry (in Angstrom), charge = -1, multiplicity = 1:

       Center              X                  Y                   Z               Mass       
    ------------   -----------------  -----------------  -----------------  -----------------
         O           -2.778855804537    -0.917277417767    -0.553472195541    15.994914619570
         O           -2.384802804537     1.260500582233    -0.034890195541    15.994914619570
         C            2.698592195463     0.148929582233    -0.668843195541    12.000000000000
         C            1.460432195463    -0.464988417767    -0.081448195541    12.000000000000
         C            0.346690195463     0.214180582233     0.237095804459    12.000000000000
         C           -0.897450204537    -0.366547017767     0.841885904459    12.000000000000
         C            3.899211195463     0.057228582233     0.279323804459    12.000000000000
         C           -2.138425804537     0.017729582233     0.011481804459    12.000000000000
         H            2.952365195463    -0.354008417767    -1.611793195541     1.007825032230
         H            2.498913195463     1.198593582233    -0.914732195541     1.007825032230
         H            1.499442195463    -1.539698417767     0.112223804459     1.007825032230
         H            0.292034895463     1.286365082233     0.040921804459     1.007825032230
         H           -0.803375804537    -1.468218417767     0.904294804459     1.007825032230
         H           -1.023654804537     0.017396582233     1.859684804459     1.007825032230
         H            4.120325195463    -0.985275417767     0.527950804459     1.007825032230
         H            3.689709195463     0.588145582233     1.212339804459     1.007825032230
         H            4.796894195463     0.494444582233    -0.169384195541     1.007825032230

  Running in c1 symmetry.

  Rotational constants: A =      0.20226  B =      0.02483  C =      0.02399 [cm^-1]
  Rotational constants: A =   6063.55386  B =    744.34769  C =    719.34979 [MHz]
  Nuclear repulsion =  338.915702464801143

  Charge       = -1
  Multiplicity = 1
  Electrons    = 62
  Nalpha       = 31
  Nbeta        = 31

  ==> Algorithm <==

  SCF Algorithm Type is DF.
  DIIS enabled.
  MOM disabled.
  Fractional occupation disabled.
  Guess Type is SAD.
  Energy threshold   = 1.00e-10
  Density threshold  = 1.00e-10
  Integral threshold = 0.00e+00

  ==> Primary Basis <==

  Basis Set: AUG-CC-PVTZ
    Blend: AUG-CC-PVTZ
    Number of shells: 193
    Number of basis function: 575
    Number of Cartesian functions: 665
    Spherical Harmonics?: true
    Max angular momentum: 3

   => Loading Basis Set <=

    Name: (AUG-CC-PVTZ AUX)
    Role: JKFIT
    Keyword: DF_BASIS_SCF
    atoms 1-2  entry O          line   286 file /home/xy3866/psi4conda/share/psi4/basis/aug-cc-pvtz-jkfit.gbs 
    atoms 3-8  entry C          line   162 file /home/xy3866/psi4conda/share/psi4/basis/aug-cc-pvtz-jkfit.gbs 
    atoms 9-17 entry H          line    70 file /home/xy3866/psi4conda/share/psi4/basis/aug-cc-pvtz-jkfit.gbs 

  ==> Pre-Iterations <==

   -------------------------------------------------------
    Irrep   Nso     Nmo     Nalpha   Nbeta   Ndocc  Nsocc
   -------------------------------------------------------
     A        575     575       0       0       0       0
   -------------------------------------------------------
    Total     575     575      31      31      31       0
   -------------------------------------------------------

  ==> Integral Setup <==

  DFHelper Memory: AOs need 2.912 GiB; user supplied 22.352 GiB. Using in-core AOs.

  ==> MemDFJK: Density-Fitted J/K Matrices <==

    J tasked:                   Yes
    K tasked:                   Yes
    wK tasked:                   No
    OpenMP threads:               8
    Memory [MiB]:             22888
    Algorithm:                 Disk
    Schwarz Cutoff:           1E-12
    Mask sparsity (%):       8.3043
    Fitting Condition:        1E-10

   => Auxiliary Basis Set <=

  Basis Set: (AUG-CC-PVTZ AUX)
    Blend: AUG-CC-PVTZ-JKFIT
    Number of shells: 366
    Number of basis function: 1246
    Number of Cartesian functions: 1543
    Spherical Harmonics?: true
    Max angular momentum: 4

  Minimum eigenvalue in the overlap matrix is 2.7247614959E-06.
  Using Symmetric Orthogonalization.

  SCF Guess: Superposition of Atomic Densities via on-the-fly atomic UHF.

  ==> Iterations <==

                           Total Energy        Delta E     RMS |[F,P]|

   @DF-RHF iter SAD:  -380.88095269892722   -3.80881e+02   0.00000e+00 
   @DF-RHF iter   1:  -381.97215564368537   -1.09120e+00   1.45398e-03 DIIS
   @DF-RHF iter   2:  -382.24252205153891   -2.70366e-01   8.55001e-04 DIIS
   @DF-RHF iter   3:  -382.32789871867681   -8.53767e-02   1.35414e-04 DIIS
   @DF-RHF iter   4:  -382.33193686256948   -4.03814e-03   5.65121e-05 DIIS
   @DF-RHF iter   5:  -382.33266029872283   -7.23436e-04   9.75349e-06 DIIS
   @DF-RHF iter   6:  -382.33269233356066   -3.20348e-05   2.88179e-06 DIIS
   @DF-RHF iter   7:  -382.33269543905465   -3.10549e-06   1.40469e-06 DIIS
   @DF-RHF iter   8:  -382.33269601424735   -5.75193e-07   4.15048e-07 DIIS
   @DF-RHF iter   9:  -382.33269611544051   -1.01193e-07   1.89472e-07 DIIS
   @DF-RHF iter  10:  -382.33269613113566   -1.56952e-08   8.62104e-08 DIIS
   @DF-RHF iter  11:  -382.33269613342611   -2.29045e-09   2.25544e-08 DIIS
   @DF-RHF iter  12:  -382.33269613365474   -2.28624e-10   8.60722e-09 DIIS
   @DF-RHF iter  13:  -382.33269613367850   -2.37605e-11   2.40555e-09 DIIS
   @DF-RHF iter  14:  -382.33269613368361   -5.11591e-12   8.60764e-10 DIIS
   @DF-RHF iter  15:  -382.33269613368390   -2.84217e-13   3.04452e-10 DIIS
   @DF-RHF iter  16:  -382.33269613368242    1.47793e-12   1.28401e-10 DIIS
   @DF-RHF iter  17:  -382.33269613368492   -2.50111e-12   3.99917e-11 DIIS
  Energy and wave function converged.


  ==> Post-Iterations <==

    Orbital Energies [Eh]
    ---------------------

    Doubly Occupied:                                                      

       1A    -20.297687     2A    -20.295453     3A    -11.143373  
       4A    -11.123839     5A    -11.121616     6A    -11.100291  
       7A    -11.096236     8A    -11.069811     9A     -1.165644  
      10A     -1.064637    11A     -0.968926    12A     -0.900793  
      13A     -0.807380    14A     -0.722823    15A     -0.622434  
      16A     -0.533846    17A     -0.514313    18A     -0.501078  
      19A     -0.453177    20A     -0.442952    21A     -0.433669  
      22A     -0.415140    23A     -0.401435    24A     -0.383342  
      25A     -0.372849    26A     -0.345824    27A     -0.323855  
      28A     -0.238260    29A     -0.210655    30A     -0.195328  
      31A     -0.190169  

    Virtual:                                                              

      32A      0.094561    33A      0.108742    34A      0.112337  
      35A      0.122634    36A      0.132694    37A      0.135122  
      38A      0.140880    39A      0.154151    40A      0.157337  
      41A      0.182202    42A      0.189413    43A      0.193380  
      44A      0.196921    45A      0.207484    46A      0.212486  
      47A      0.217184    48A      0.219682    49A      0.223391  
      50A      0.243937    51A      0.244918    52A      0.248080  
      53A      0.251488    54A      0.255266    55A      0.255549  
      56A      0.264924    57A      0.271515    58A      0.279251  
      59A      0.294250    60A      0.298255    61A      0.309890  
      62A      0.315090    63A      0.326816    64A      0.335390  
      65A      0.346373    66A      0.348426    67A      0.355779  
      68A      0.363229    69A      0.365007    70A      0.374916  
      71A      0.376282    72A      0.383441    73A      0.394672  
      74A      0.401667    75A      0.405618    76A      0.411224  
      77A      0.415436    78A      0.419774    79A      0.426574  
      80A      0.432468    81A      0.435248    82A      0.442101  
      83A      0.444197    84A      0.451773    85A      0.453055  
      86A      0.460071    87A      0.470063    88A      0.472338  
      89A      0.478467    90A      0.484800    91A      0.490090  
      92A      0.493075    93A      0.501068    94A      0.511117  
      95A      0.512113    96A      0.514525    97A      0.519914  
      98A      0.530621    99A      0.533682   100A      0.538805  
     101A      0.545423   102A      0.550128   103A      0.560775  
     104A      0.565347   105A      0.572361   106A      0.574267  
     107A      0.578355   108A      0.587458   109A      0.588934  
     110A      0.597934   111A      0.602745   112A      0.608699  
     113A      0.611964   114A      0.618642   115A      0.626567  
     116A      0.631899   117A      0.638739   118A      0.645628  
     119A      0.653760   120A      0.660775   121A      0.664786  
     122A      0.666935   123A      0.674705   124A      0.684345  
     125A      0.688206   126A      0.698955   127A      0.700573  
     128A      0.716464   129A      0.725691   130A      0.734513  
     131A      0.740253   132A      0.743072   133A      0.745529  
     134A      0.758572   135A      0.769806   136A      0.775927  
     137A      0.781781   138A      0.784281   139A      0.798270  
     140A      0.812127   141A      0.821672   142A      0.834658  
     143A      0.839659   144A      0.851667   145A      0.864996  
     146A      0.878904   147A      0.887417   148A      0.896442  
     149A      0.905919   150A      0.914035   151A      0.923206  
     152A      0.931218   153A      0.933327   154A      0.943459  
     155A      0.952908   156A      0.961571   157A      0.966436  
     158A      0.971524   159A      0.975292   160A      0.984898  
     161A      0.987686   162A      0.998586   163A      1.008553  
     164A      1.010451   165A      1.014813   166A      1.021968  
     167A      1.028298   168A      1.033090   169A      1.040797  
     170A      1.050832   171A      1.056762   172A      1.065518  
     173A      1.074128   174A      1.076014   175A      1.086128  
     176A      1.093725   177A      1.095989   178A      1.099051  
     179A      1.102665   180A      1.119419   181A      1.125347  
     182A      1.130149   183A      1.138362   184A      1.150467  
     185A      1.155307   186A      1.158038   187A      1.165834  
     188A      1.177387   189A      1.179994   190A      1.185671  
     191A      1.191359   192A      1.197481   193A      1.205555  
     194A      1.210111   195A      1.216396   196A      1.219551  
     197A      1.226275   198A      1.228938   199A      1.238162  
     200A      1.252444   201A      1.257529   202A      1.264553  
     203A      1.276780   204A      1.278666   205A      1.294360  
     206A      1.296876   207A      1.302532   208A      1.308993  
     209A      1.323552   210A      1.330001   211A      1.337753  
     212A      1.342800   213A      1.346772   214A      1.357140  
     215A      1.363156   216A      1.373181   217A      1.374197  
     218A      1.383878   219A      1.387857   220A      1.391311  
     221A      1.401346   222A      1.419813   223A      1.426145  
     224A      1.436756   225A      1.440658   226A      1.450058  
     227A      1.467847   228A      1.485834   229A      1.490387  
     230A      1.498978   231A      1.507515   232A      1.527226  
     233A      1.529781   234A      1.540226   235A      1.553484  
     236A      1.556149   237A      1.575791   238A      1.579634  
     239A      1.602811   240A      1.615215   241A      1.621583  
     242A      1.625514   243A      1.633216   244A      1.645700  
     245A      1.661153   246A      1.665355   247A      1.674958  
     248A      1.686243   249A      1.696831   250A      1.713610  
     251A      1.722947   252A      1.726855   253A      1.737785  
     254A      1.747520   255A      1.760797   256A      1.763983  
     257A      1.771794   258A      1.781243   259A      1.789417  
     260A      1.805529   261A      1.807693   262A      1.814042  
     263A      1.829180   264A      1.831442   265A      1.846895  
     266A      1.848107   267A      1.857376   268A      1.867273  
     269A      1.884337   270A      1.894487   271A      1.897436  
     272A      1.906658   273A      1.921587   274A      1.931775  
     275A      1.941322   276A      1.949918   277A      1.955362  
     278A      1.966941   279A      1.969434   280A      1.989005  
     281A      1.999876   282A      2.002825   283A      2.014121  
     284A      2.024572   285A      2.031065   286A      2.047118  
     287A      2.056842   288A      2.063342   289A      2.070639  
     290A      2.091466   291A      2.093858   292A      2.102490  
     293A      2.104187   294A      2.121624   295A      2.131614  
     296A      2.145040   297A      2.164692   298A      2.179509  
     299A      2.184922   300A      2.196245   301A      2.213596  
     302A      2.234647   303A      2.243348   304A      2.249352  
     305A      2.267749   306A      2.276066   307A      2.289236  
     308A      2.308115   309A      2.311477   310A      2.332693  
     311A      2.343363   312A      2.356490   313A      2.367822  
     314A      2.374975   315A      2.385073   316A      2.399609  
     317A      2.407915   318A      2.425022   319A      2.442468  
     320A      2.454405   321A      2.461011   322A      2.478543  
     323A      2.495766   324A      2.504839   325A      2.529560  
     326A      2.541042   327A      2.556577   328A      2.562798  
     329A      2.568944   330A      2.576872   331A      2.607485  
     332A      2.610585   333A      2.636286   334A      2.649199  
     335A      2.684466   336A      2.698150   337A      2.720896  
     338A      2.741931   339A      2.761050   340A      2.793268  
     341A      2.815399   342A      2.829695   343A      2.840639  
     344A      2.851462   345A      2.853463   346A      2.895532  
     347A      2.906530   348A      2.935108   349A      2.952553  
     350A      2.964692   351A      2.992286   352A      3.018572  
     353A      3.047774   354A      3.068444   355A      3.080684  
     356A      3.125252   357A      3.160852   358A      3.201315  
     359A      3.239308   360A      3.246216   361A      3.266449  
     362A      3.299971   363A      3.311272   364A      3.352040  
     365A      3.387417   366A      3.398601   367A      3.422432  
     368A      3.446411   369A      3.460882   370A      3.474593  
     371A      3.511130   372A      3.524447   373A      3.541591  
     374A      3.564438   375A      3.573132   376A      3.595216  
     377A      3.613907   378A      3.639745   379A      3.645441  
     380A      3.656053   381A      3.660040   382A      3.670847  
     383A      3.704905   384A      3.710482   385A      3.724097  
     386A      3.731259   387A      3.748534   388A      3.756456  
     389A      3.761873   390A      3.779217   391A      3.802258  
     392A      3.803831   393A      3.815991   394A      3.826650  
     395A      3.837593   396A      3.856431   397A      3.867967  
     398A      3.879962   399A      3.891622   400A      3.905466  
     401A      3.919200   402A      3.935319   403A      3.937724  
     404A      3.949272   405A      3.980297   406A      3.986839  
     407A      4.000702   408A      4.018100   409A      4.022557  
     410A      4.036919   411A      4.048255   412A      4.068249  
     413A      4.076284   414A      4.087952   415A      4.094267  
     416A      4.108773   417A      4.115215   418A      4.141852  
     419A      4.152321   420A      4.161519   421A      4.184190  
     422A      4.196176   423A      4.210247   424A      4.231222  
     425A      4.235660   426A      4.257335   427A      4.260522  
     428A      4.290347   429A      4.293254   430A      4.294691  
     431A      4.318977   432A      4.323334   433A      4.347719  
     434A      4.356765   435A      4.371588   436A      4.376037  
     437A      4.408460   438A      4.412527   439A      4.456126  
     440A      4.461802   441A      4.473993   442A      4.481414  
     443A      4.493093   444A      4.518667   445A      4.540425  
     446A      4.550062   447A      4.554860   448A      4.584991  
     449A      4.597814   450A      4.606228   451A      4.617851  
     452A      4.642622   453A      4.672831   454A      4.685076  
     455A      4.690640   456A      4.698718   457A      4.726910  
     458A      4.746971   459A      4.771354   460A      4.800982  
     461A      4.815755   462A      4.827918   463A      4.849084  
     464A      4.873742   465A      4.879821   466A      4.911401  
     467A      4.932165   468A      4.944381   469A      4.960434  
     470A      4.970212   471A      4.990990   472A      5.022639  
     473A      5.040429   474A      5.056879   475A      5.062051  
     476A      5.067654   477A      5.082631   478A      5.104306  
     479A      5.126133   480A      5.136568   481A      5.153652  
     482A      5.174167   483A      5.177056   484A      5.196484  
     485A      5.197795   486A      5.242174   487A      5.268357  
     488A      5.276114   489A      5.295663   490A      5.305907  
     491A      5.308227   492A      5.342668   493A      5.365340  
     494A      5.384969   495A      5.395657   496A      5.408599  
     497A      5.418376   498A      5.459025   499A      5.476479  
     500A      5.484769   501A      5.502391   502A      5.518490  
     503A      5.533223   504A      5.553360   505A      5.576612  
     506A      5.603655   507A      5.622177   508A      5.637981  
     509A      5.688242   510A      5.694141   511A      5.698201  
     512A      5.744189   513A      5.759637   514A      5.775018  
     515A      5.807247   516A      5.834486   517A      5.858293  
     518A      5.920524   519A      5.948925   520A      6.007979  
     521A      6.054487   522A      6.091174   523A      6.116918  
     524A      6.142006   525A      6.163738   526A      6.227211  
     527A      6.266920   528A      6.290455   529A      6.314693  
     530A      6.318459   531A      6.379971   532A      6.427504  
     533A      6.463408   534A      6.565525   535A      6.636873  
     536A      6.655548   537A      6.697304   538A      6.846397  
     539A      6.860969   540A      6.886211   541A      6.902566  
     542A      6.939640   543A      6.948241   544A      6.975882  
     545A      6.995071   546A      7.022380   547A      7.057820  
     548A      7.138543   549A      7.171354   550A      7.208120  
     551A      7.262848   552A      7.317156   553A      7.374115  
     554A      7.448191   555A      7.552285   556A      7.583164  
     557A      7.621925   558A      7.635688   559A      7.740527  
     560A      7.844011   561A      7.911552   562A      7.939123  
     563A      7.945523   564A      8.071836   565A      8.113410  
     566A      8.160639   567A      8.272379   568A     14.637287  
     569A     15.525874   570A     17.024349   571A     17.257533  
     572A     17.798665   573A     18.287864   574A     19.411543  
     575A     20.077272  

    Final Occupation by Irrep:
              A 
    DOCC [    31 ]

  @DF-RHF Final Energy:  -382.33269613368492

   => Energetics <=

    Nuclear Repulsion Energy =            338.9157024648011429
    One-Electron Energy =               -1203.5831297213001108
    Two-Electron Energy =                 482.3347311228140484
    Total Energy =                       -382.3326961336849195

Computation Completed

*** tstop() called on node95.bme.utexas.edu at Mon Nov  2 21:55:33 2020
Module time:
	user time   =     195.21 seconds =       3.25 minutes
	system time =      23.68 seconds =       0.39 minutes
	total time  =         43 seconds =       0.72 minutes
Total time:
	user time   =     195.21 seconds =       3.25 minutes
	system time =      23.68 seconds =       0.39 minutes
	total time  =         43 seconds =       0.72 minutes
   => Loading Basis Set <=

    Name: (AUG-CC-PVTZ AUX)
    Role: RIFIT
    Keyword: DF_BASIS_MP2
    atoms 1-2  entry O          line   264 file /home/xy3866/psi4conda/share/psi4/basis/aug-cc-pvtz-ri.gbs 
    atoms 3-8  entry C          line   148 file /home/xy3866/psi4conda/share/psi4/basis/aug-cc-pvtz-ri.gbs 
    atoms 9-17 entry H          line    30 file /home/xy3866/psi4conda/share/psi4/basis/aug-cc-pvtz-ri.gbs 


*** tstart() called on node95.bme.utexas.edu
*** at Mon Nov  2 21:55:33 2020


  //>>>>>>>>>>>>>>>>>>>>>>>>>>>>>>>>>>>//
  //               DFMP2               //
  //<<<<<<<<<<<<<<<<<<<<<<<<<<<<<<<<<<<//

	 --------------------------------------------------------
	                          DF-MP2                         
	      2nd-Order Density-Fitted Moller-Plesset Theory     
	              RMP2 Wavefunction,   8 Threads             
	                                                         
	        Rob Parrish, Justin Turney, Andy Simmonett,      
	           Ed Hohenstein, and C. David Sherrill          
	 --------------------------------------------------------

   => Auxiliary Basis Set <=

  Basis Set: (AUG-CC-PVTZ AUX)
    Blend: AUG-CC-PVTZ-RI
    Number of shells: 350
    Number of basis function: 1262
    Number of Cartesian functions: 1583
    Spherical Harmonics?: true
    Max angular momentum: 4

	 --------------------------------------------------------
	                 NBF =   575, NAUX =  1262
	 --------------------------------------------------------
	   CLASS    FOCC     OCC    AOCC    AVIR     VIR    FVIR
	   PAIRS       0      31      31     544     544       0
	 --------------------------------------------------------

  DFHelper Memory: AOs need 2.912 GiB; user supplied 22.352 GiB. Using in-core AOs.


         ------------------------------------------------------------
                                     CPHF                           
                                  Rob Parrish                       
         ------------------------------------------------------------

  ==> Geometry <==

    Molecular point group: c1
    Full point group: C1

    Geometry (in Angstrom), charge = -1, multiplicity = 1:

       Center              X                  Y                   Z               Mass       
    ------------   -----------------  -----------------  -----------------  -----------------
         O           -2.778855804537    -0.917277417767    -0.553472195541    15.994914619570
         O           -2.384802804537     1.260500582233    -0.034890195541    15.994914619570
         C            2.698592195463     0.148929582233    -0.668843195541    12.000000000000
         C            1.460432195463    -0.464988417767    -0.081448195541    12.000000000000
         C            0.346690195463     0.214180582233     0.237095804459    12.000000000000
         C           -0.897450204537    -0.366547017767     0.841885904459    12.000000000000
         C            3.899211195463     0.057228582233     0.279323804459    12.000000000000
         C           -2.138425804537     0.017729582233     0.011481804459    12.000000000000
         H            2.952365195463    -0.354008417767    -1.611793195541     1.007825032230
         H            2.498913195463     1.198593582233    -0.914732195541     1.007825032230
         H            1.499442195463    -1.539698417767     0.112223804459     1.007825032230
         H            0.292034895463     1.286365082233     0.040921804459     1.007825032230
         H           -0.803375804537    -1.468218417767     0.904294804459     1.007825032230
         H           -1.023654804537     0.017396582233     1.859684804459     1.007825032230
         H            4.120325195463    -0.985275417767     0.527950804459     1.007825032230
         H            3.689709195463     0.588145582233     1.212339804459     1.007825032230
         H            4.796894195463     0.494444582233    -0.169384195541     1.007825032230

  Nuclear repulsion =  338.915702464801143
  Reference energy  = -382.332696133684919

  ==> Basis Set <==

  Basis Set: AUG-CC-PVTZ
    Blend: AUG-CC-PVTZ
    Number of shells: 193
    Number of basis function: 575
    Number of Cartesian functions: 665
    Spherical Harmonics?: true
    Max angular momentum: 3

  ==> CGRSolver (by Rob Parrish) <==

   Number of roots    =         1
   Preconditioning    =    JACOBI
   Convergence cutoff =     1E-06
   Maximum iterations =       100

  ==> CPHFRHamiltonian (by Rob Parrish) <== 

  ==> MemDFJK: Density-Fitted J/K Matrices <==

    J tasked:                   Yes
    K tasked:                   Yes
    wK tasked:                   No
    OpenMP threads:               8
    Memory [MiB]:             22888
    Algorithm:                 Disk
    Schwarz Cutoff:           1E-12
    Mask sparsity (%):       8.3043
    Fitting Condition:        1E-10

   => Auxiliary Basis Set <=

  Basis Set: (AUG-CC-PVTZ AUX)
    Blend: AUG-CC-PVTZ-JKFIT
    Number of shells: 366
    Number of basis function: 1246
    Number of Cartesian functions: 1543
    Spherical Harmonics?: true
    Max angular momentum: 4

  ==> CPHF Iterations <==

  => Iterations <=

             Iter  Converged  Remaining    Residual
  CGR           1          0          1   1.145E-01
  CGR           2          0          1   3.054E-02
  CGR           3          0          1   1.164E-02
  CGR           4          0          1   3.122E-03
  CGR           5          0          1   1.188E-03
  CGR           6          0          1   4.244E-04
  CGR           7          0          1   1.476E-04
  CGR           8          0          1   4.685E-05
  CGR           9          0          1   1.500E-05
  CGR          10          0          1   4.417E-06
  CGR          11          0          1   1.692E-06
  CGR          12          1          0   6.128E-07

    CGRSolver converged.

	-----------------------------------------------------------
	 ==================> DF-MP2 Energies <==================== 
	-----------------------------------------------------------
	 Reference Energy          =    -382.3326961336849195 [Eh]
	 Singles Energy            =      -0.0000000000000000 [Eh]
	 Same-Spin Energy          =      -0.3909478150211602 [Eh]
	 Opposite-Spin Energy      =      -1.2596402102946267 [Eh]
	 Correlation Energy        =      -1.6505880253157867 [Eh]
	 Total Energy              =    -383.9832841590007320 [Eh]
	-----------------------------------------------------------
	 ================> DF-SCS-MP2 Energies <================== 
	-----------------------------------------------------------
	 SCS Same-Spin Scale       =       0.3333333333333333 [-]
	 SCS Opposite-Spin Scale   =       1.2000000000000000 [-]
	 SCS Same-Spin Energy      =      -0.1303159383403867 [Eh]
	 SCS Opposite-Spin Energy  =      -1.5115682523535521 [Eh]
	 SCS Correlation Energy    =      -1.6418841906939388 [Eh]
	 SCS Total Energy          =    -383.9745803243788487 [Eh]
	-----------------------------------------------------------



Properties will be evaluated at  -0.000000,  -0.000000,   0.000000 [a0]

Properties computed using the MP2 density matrix

  Nuclear Dipole Moment: [e a0]
     X:    16.8709      Y:    -0.7129      Z:     1.8360

  Electronic Dipole Moment: [e a0]
     X:   -12.6510      Y:     0.4365      Z:    -1.1794

  Dipole Moment: [e a0]
     X:     4.2199      Y:    -0.2765      Z:     0.6566     Total:     4.2796

  Dipole Moment: [D]
     X:    10.7259      Y:    -0.7028      Z:     1.6690     Total:    10.8777


*** tstop() called on node95.bme.utexas.edu at Mon Nov  2 21:57:21 2020
Module time:
	user time   =     562.76 seconds =       9.38 minutes
	system time =      28.45 seconds =       0.47 minutes
	total time  =        108 seconds =       1.80 minutes
Total time:
	user time   =     759.27 seconds =      12.65 minutes
	system time =      52.18 seconds =       0.87 minutes
	total time  =        151 seconds =       2.52 minutes

    Psi4 stopped on: Monday, 02 November 2020 09:57PM
    Psi4 wall time for execution: 0:02:31.80

*** Psi4 exiting successfully. Buy a developer a beer!
