
    -----------------------------------------------------------------------
          Psi4: An Open-Source Ab Initio Electronic Structure Package
                               Psi4 1.4a3.dev225 

                         Git: Rev {master} 7105e37 


    D. G. A. Smith, L. A. Burns, A. C. Simmonett, R. M. Parrish,
    M. C. Schieber, R. Galvelis, P. Kraus, H. Kruse, R. Di Remigio,
    A. Alenaizan, A. M. James, S. Lehtola, J. P. Misiewicz, M. Scheurer,
    R. A. Shaw, J. B. Schriber, Y. Xie, Z. L. Glick, D. A. Sirianni,
    J. S. O'Brien, J. M. Waldrop, A. Kumar, E. G. Hohenstein,
    B. P. Pritchard, B. R. Brooks, H. F. Schaefer III, A. Yu. Sokolov,
    K. Patkowski, A. E. DePrince III, U. Bozkaya, R. A. King,
    F. A. Evangelista, J. M. Turney, T. D. Crawford, C. D. Sherrill,
    J. Chem. Phys. 152(18) 184108 (2020). https://doi.org/10.1063/5.0006002

                            Additional Code Authors
    E. T. Seidl, C. L. Janssen, E. F. Valeev, M. L. Leininger,
    J. F. Gonthier, R. M. Richard, H. R. McAlexander, M. Saitow, X. Wang,
    P. Verma, and M. H. Lechner

             Previous Authors, Complete List of Code Contributors,
                       and Citations for Specific Modules
    https://github.com/psi4/psi4/blob/master/codemeta.json
    https://github.com/psi4/psi4/graphs/contributors
    http://psicode.org/psi4manual/master/introduction.html#citing-psifour

    -----------------------------------------------------------------------


    Psi4 started on: Saturday, 20 March 2021 07:26PM

    Process ID: 236810
    Host:       c445-113.stampede2.tacc.utexas.edu
    PSIDATADIR: /home1/07844/xy3866/miniconda3/envs/p4env/share/psi4
    Memory:     500.0 MiB
    Threads:    32
    
  ==> Input File <==

--------------------------------------------------------------------------
#psi4
#
memory 32 gb

molecule  {
-1 1
  O       -3.0493610    -0.8021490    -0.5876160
  O       -2.4328600     1.2902580     0.0530700
  C        2.5553900     0.3550440    -0.5884220
  C        1.3085550    -0.3848960    -0.2000760
  C        0.2108510     0.1869800     0.3208840
  C       -1.0406500    -0.5396790     0.7060670
  C        3.7725750    -0.0944570     0.2252300
  C       -2.2894080     0.0326700    -0.0161130
  H        2.7644980     0.1992670    -1.6554110
  H        2.3954460     1.4315290    -0.4528260
  H        1.3245080    -1.4678690    -0.3463610
  H        0.1895415     1.3173152     0.4685268
  H       -0.9472880    -1.6102600     0.4951310
  H       -1.2137680    -0.4258540     1.7866990
  H        3.9502020    -1.1668590     0.0980420
  H        3.6128950     0.0963670     1.2904210
  H        4.6769210     0.4370950    -0.0868020
units angstrom
no_reorient  #important for SAPT in psi4, default
symmetry c1  #important for SAPT in psi4, default
}

set PROPERTIES_ORIGIN ["COM"]
properties('MP2/aug-cc-pvtz', properties = ['dipole'])
--------------------------------------------------------------------------

  Memory set to  29.802 GiB by Python driver.
    SCF Algorithm Type (re)set to DF.

*** tstart() called on c445-113.stampede2.tacc.utexas.edu
*** at Sat Mar 20 19:26:26 2021

   => Loading Basis Set <=

    Name: AUG-CC-PVTZ
    Role: ORBITAL
    Keyword: BASIS
    atoms 1-2  entry O          line   331 file /home1/07844/xy3866/miniconda3/envs/p4env/share/psi4/basis/aug-cc-pvtz.gbs 
    atoms 3-8  entry C          line   239 file /home1/07844/xy3866/miniconda3/envs/p4env/share/psi4/basis/aug-cc-pvtz.gbs 
    atoms 9-17 entry H          line    40 file /home1/07844/xy3866/miniconda3/envs/p4env/share/psi4/basis/aug-cc-pvtz.gbs 


         ---------------------------------------------------------
                                   SCF
               by Justin Turney, Rob Parrish, Andy Simmonett
                          and Daniel G. A. Smith
                              RHF Reference
                       32 Threads,  30517 MiB Core
         ---------------------------------------------------------

  ==> Geometry <==

    Molecular point group: c1
    Full point group: C1

    Geometry (in Angstrom), charge = -1, multiplicity = 1:

       Center              X                  Y                   Z               Mass       
    ------------   -----------------  -----------------  -----------------  -----------------
         O           -2.902573316097    -0.813440597730    -0.573736162427    15.994914619570
         O           -2.286072316097     1.278966402270     0.066949837573    15.994914619570
         C            2.702177683903     0.343752402270    -0.574542162427    12.000000000000
         C            1.455342683903    -0.396187597730    -0.186196162427    12.000000000000
         C            0.357638683903     0.175688402270     0.334763837573    12.000000000000
         C           -0.893862316097    -0.550970597730     0.719946837573    12.000000000000
         C            3.919362683903    -0.105748597730     0.239109837573    12.000000000000
         C           -2.142620316097     0.021378402270    -0.002233162427    12.000000000000
         H            2.911285683903     0.187975402270    -1.641531162427     1.007825032230
         H            2.542233683903     1.420237402270    -0.438946162427     1.007825032230
         H            1.471295683903    -1.479160597730    -0.332481162427     1.007825032230
         H            0.336329183903     1.306023602270     0.482406637573     1.007825032230
         H           -0.800500316097    -1.621551597730     0.509010837573     1.007825032230
         H           -1.066980316097    -0.437145597730     1.800578837573     1.007825032230
         H            4.096989683903    -1.178150597730     0.111921837573     1.007825032230
         H            3.759682683903     0.085075402270     1.304300837573     1.007825032230
         H            4.823708683903     0.425803402270    -0.072922162427     1.007825032230

  Running in c1 symmetry.

  Rotational constants: A =      0.20792  B =      0.02471  C =      0.02373 [cm^-1]
  Rotational constants: A =   6233.14170  B =    740.91894  C =    711.37946 [MHz]
  Nuclear repulsion =  338.460043063976627

  Charge       = -1
  Multiplicity = 1
  Electrons    = 62
  Nalpha       = 31
  Nbeta        = 31

  ==> Algorithm <==

  SCF Algorithm Type is DF.
  DIIS enabled.
  MOM disabled.
  Fractional occupation disabled.
  Guess Type is SAD.
  Energy threshold   = 1.00e-10
  Density threshold  = 1.00e-10
  Integral threshold = 1.00e-12

  ==> Primary Basis <==

  Basis Set: AUG-CC-PVTZ
    Blend: AUG-CC-PVTZ
    Number of shells: 193
    Number of basis functions: 575
    Number of Cartesian functions: 665
    Spherical Harmonics?: true
    Max angular momentum: 3

   => Loading Basis Set <=

    Name: (AUG-CC-PVTZ AUX)
    Role: JKFIT
    Keyword: DF_BASIS_SCF
    atoms 1-2  entry O          line   286 file /home1/07844/xy3866/miniconda3/envs/p4env/share/psi4/basis/aug-cc-pvtz-jkfit.gbs 
    atoms 3-8  entry C          line   162 file /home1/07844/xy3866/miniconda3/envs/p4env/share/psi4/basis/aug-cc-pvtz-jkfit.gbs 
    atoms 9-17 entry H          line    70 file /home1/07844/xy3866/miniconda3/envs/p4env/share/psi4/basis/aug-cc-pvtz-jkfit.gbs 

  ==> Integral Setup <==

  DFHelper Memory: AOs need 2.842 GiB; user supplied 22.352 GiB. Using in-core AOs.

  ==> MemDFJK: Density-Fitted J/K Matrices <==

    J tasked:                   Yes
    K tasked:                   Yes
    wK tasked:                   No
    OpenMP threads:              32
    Memory [MiB]:             22888
    Algorithm:                 Core
    Schwarz Cutoff:           1E-12
    Mask sparsity (%):      12.5211
    Fitting Condition:        1E-10

   => Auxiliary Basis Set <=

  Basis Set: (AUG-CC-PVTZ AUX)
    Blend: AUG-CC-PVTZ-JKFIT
    Number of shells: 366
    Number of basis functions: 1246
    Number of Cartesian functions: 1543
    Spherical Harmonics?: true
    Max angular momentum: 4

  Minimum eigenvalue in the overlap matrix is 2.8255309222E-06.
  Reciprocal condition number of the overlap matrix is 1.5688830821E-07.
    Using symmetric orthogonalization.

  ==> Pre-Iterations <==

  SCF Guess: Superposition of Atomic Densities via on-the-fly atomic UHF (no occupation information).

   -------------------------
    Irrep   Nso     Nmo    
   -------------------------
     A        575     575 
   -------------------------
    Total     575     575
   -------------------------

  ==> Iterations <==

                           Total Energy        Delta E     RMS |[F,P]|

   @DF-RHF iter SAD:  -380.85741802338487   -3.80857e+02   0.00000e+00 
   @DF-RHF iter   1:  -381.96885353409431   -1.11144e+00   1.45761e-03 DIIS
   @DF-RHF iter   2:  -382.24012074441993   -2.71267e-01   8.58704e-04 DIIS
   @DF-RHF iter   3:  -382.32645888956841   -8.63381e-02   1.35518e-04 DIIS
   @DF-RHF iter   4:  -382.33050661963847   -4.04773e-03   5.66835e-05 DIIS
   @DF-RHF iter   5:  -382.33123518612274   -7.28566e-04   9.60722e-06 DIIS
   @DF-RHF iter   6:  -382.33126677701870   -3.15909e-05   2.74988e-06 DIIS
   @DF-RHF iter   7:  -382.33126960959044   -2.83257e-06   1.33683e-06 DIIS
   @DF-RHF iter   8:  -382.33127011976961   -5.10179e-07   3.77329e-07 DIIS
   @DF-RHF iter   9:  -382.33127020645315   -8.66835e-08   1.71734e-07 DIIS
   @DF-RHF iter  10:  -382.33127022006113   -1.36080e-08   7.05087e-08 DIIS
   @DF-RHF iter  11:  -382.33127022170470   -1.64357e-09   2.26657e-08 DIIS
   @DF-RHF iter  12:  -382.33127022189865   -1.93950e-10   8.66261e-09 DIIS
   @DF-RHF iter  13:  -382.33127022192332   -2.46700e-11   2.25223e-09 DIIS
   @DF-RHF iter  14:  -382.33127022192770   -4.37694e-12   7.91128e-10 DIIS
   @DF-RHF iter  15:  -382.33127022192684    8.52651e-13   2.92615e-10 DIIS
   @DF-RHF iter  16:  -382.33127022192758   -7.38964e-13   1.17737e-10 DIIS
   @DF-RHF iter  17:  -382.33127022192809   -5.11591e-13   3.64238e-11 DIIS
  Energy and wave function converged.


  ==> Post-Iterations <==

    Orbital Energies [Eh]
    ---------------------

    Doubly Occupied:                                                      

       1A    -20.298037     2A    -20.296085     3A    -11.144590  
       4A    -11.123356     5A    -11.120656     6A    -11.104365  
       7A    -11.095319     8A    -11.069986     9A     -1.166043  
      10A     -1.065517    11A     -0.968111    12A     -0.899648  
      13A     -0.806665    14A     -0.721428    15A     -0.616826  
      16A     -0.532392    17A     -0.511921    18A     -0.499708  
      19A     -0.453309    20A     -0.442271    21A     -0.433384  
      22A     -0.414570    23A     -0.399666    24A     -0.382900  
      25A     -0.375702    26A     -0.341200    27A     -0.324372  
      28A     -0.239084    29A     -0.211882    30A     -0.196279  
      31A     -0.188154  

    Virtual:                                                              

      32A      0.094639    33A      0.109035    34A      0.112270  
      35A      0.122701    36A      0.132809    37A      0.135193  
      38A      0.140880    39A      0.153462    40A      0.157709  
      41A      0.181741    42A      0.188962    43A      0.193499  
      44A      0.196721    45A      0.208268    46A      0.212679  
      47A      0.215645    48A      0.220650    49A      0.224515  
      50A      0.244891    51A      0.245788    52A      0.247085  
      53A      0.251433    54A      0.255399    55A      0.257610  
      56A      0.265333    57A      0.270207    58A      0.279627  
      59A      0.295108    60A      0.299414    61A      0.309962  
      62A      0.315351    63A      0.326463    64A      0.335018  
      65A      0.345966    66A      0.349320    67A      0.354917  
      68A      0.360991    69A      0.363984    70A      0.374062  
      71A      0.377288    72A      0.383004    73A      0.394516  
      74A      0.400136    75A      0.406331    76A      0.409247  
      77A      0.415227    78A      0.418397    79A      0.425801  
      80A      0.432475    81A      0.433926    82A      0.441079  
      83A      0.445421    84A      0.450539    85A      0.456108  
      86A      0.460574    87A      0.470878    88A      0.473158  
      89A      0.479730    90A      0.484127    91A      0.489765  
      92A      0.492072    93A      0.502573    94A      0.512424  
      95A      0.513578    96A      0.514245    97A      0.518571  
      98A      0.528972    99A      0.531779   100A      0.538645  
     101A      0.544380   102A      0.553172   103A      0.565623  
     104A      0.568896   105A      0.571946   106A      0.572599  
     107A      0.577693   108A      0.585301   109A      0.588410  
     110A      0.597589   111A      0.601439   112A      0.607507  
     113A      0.609788   114A      0.615627   115A      0.625192  
     116A      0.628706   117A      0.637985   118A      0.648483  
     119A      0.656308   120A      0.658840   121A      0.663428  
     122A      0.666593   123A      0.677033   124A      0.685517  
     125A      0.691829   126A      0.696939   127A      0.703404  
     128A      0.713500   129A      0.723792   130A      0.732322  
     131A      0.734887   132A      0.739013   133A      0.746295  
     134A      0.749350   135A      0.767076   136A      0.778099  
     137A      0.782604   138A      0.790369   139A      0.800038  
     140A      0.811946   141A      0.827251   142A      0.834771  
     143A      0.840952   144A      0.855982   145A      0.869165  
     146A      0.881428   147A      0.885103   148A      0.893186  
     149A      0.903083   150A      0.918926   151A      0.924845  
     152A      0.926359   153A      0.936346   154A      0.940559  
     155A      0.950340   156A      0.959487   157A      0.969701  
     158A      0.975344   159A      0.979175   160A      0.980664  
     161A      0.989899   162A      0.997129   163A      1.005825  
     164A      1.007393   165A      1.014597   166A      1.024121  
     167A      1.027421   168A      1.032092   169A      1.034660  
     170A      1.048373   171A      1.051172   172A      1.060698  
     173A      1.072182   174A      1.079122   175A      1.083788  
     176A      1.086313   177A      1.094700   178A      1.098491  
     179A      1.107487   180A      1.113955   181A      1.124697  
     182A      1.128770   183A      1.136727   184A      1.150925  
     185A      1.152981   186A      1.162405   187A      1.168921  
     188A      1.174886   189A      1.180038   190A      1.184440  
     191A      1.193055   192A      1.194060   193A      1.202704  
     194A      1.208396   195A      1.216943   196A      1.220659  
     197A      1.223448   198A      1.230869   199A      1.242073  
     200A      1.246190   201A      1.254639   202A      1.262842  
     203A      1.267957   204A      1.281300   205A      1.293797  
     206A      1.300474   207A      1.305312   208A      1.307950  
     209A      1.324028   210A      1.329140   211A      1.337536  
     212A      1.346478   213A      1.349744   214A      1.360155  
     215A      1.363633   216A      1.367779   217A      1.372091  
     218A      1.383990   219A      1.386843   220A      1.390610  
     221A      1.396619   222A      1.411374   223A      1.427626  
     224A      1.436288   225A      1.440875   226A      1.452040  
     227A      1.464461   228A      1.470629   229A      1.486401  
     230A      1.499533   231A      1.513049   232A      1.524274  
     233A      1.536445   234A      1.539982   235A      1.558079  
     236A      1.564960   237A      1.569358   238A      1.584329  
     239A      1.595547   240A      1.605567   241A      1.618739  
     242A      1.624742   243A      1.633367   244A      1.645593  
     245A      1.652028   246A      1.671566   247A      1.680777  
     248A      1.692757   249A      1.695912   250A      1.708834  
     251A      1.718669   252A      1.726846   253A      1.728924  
     254A      1.743415   255A      1.762276   256A      1.771761  
     257A      1.772637   258A      1.783591   259A      1.795240  
     260A      1.798078   261A      1.806860   262A      1.810800  
     263A      1.828596   264A      1.836651   265A      1.840047  
     266A      1.846479   267A      1.860725   268A      1.870406  
     269A      1.882658   270A      1.894583   271A      1.903619  
     272A      1.911501   273A      1.916788   274A      1.930211  
     275A      1.937565   276A      1.950053   277A      1.955641  
     278A      1.959665   279A      1.969599   280A      1.984531  
     281A      1.997006   282A      2.005436   283A      2.015416  
     284A      2.024251   285A      2.031933   286A      2.048168  
     287A      2.059475   288A      2.065886   289A      2.076333  
     290A      2.081473   291A      2.084219   292A      2.097806  
     293A      2.108025   294A      2.125673   295A      2.132250  
     296A      2.155291   297A      2.159064   298A      2.174320  
     299A      2.182632   300A      2.200584   301A      2.210511  
     302A      2.218829   303A      2.233512   304A      2.250772  
     305A      2.266786   306A      2.275021   307A      2.282720  
     308A      2.291906   309A      2.318861   310A      2.324913  
     311A      2.333175   312A      2.349015   313A      2.366088  
     314A      2.383168   315A      2.386053   316A      2.395334  
     317A      2.407301   318A      2.421069   319A      2.449729  
     320A      2.455879   321A      2.470575   322A      2.478852  
     323A      2.494627   324A      2.518697   325A      2.538110  
     326A      2.539242   327A      2.548565   328A      2.562381  
     329A      2.575646   330A      2.587663   331A      2.610874  
     332A      2.619498   333A      2.626677   334A      2.654812  
     335A      2.695778   336A      2.705561   337A      2.718501  
     338A      2.733632   339A      2.761087   340A      2.782152  
     341A      2.804228   342A      2.821193   343A      2.840747  
     344A      2.851192   345A      2.857630   346A      2.866783  
     347A      2.888287   348A      2.925927   349A      2.952283  
     350A      2.970688   351A      2.987971   352A      3.024154  
     353A      3.042753   354A      3.062890   355A      3.079522  
     356A      3.129436   357A      3.160989   358A      3.212451  
     359A      3.235537   360A      3.244516   361A      3.267263  
     362A      3.294604   363A      3.313820   364A      3.349049  
     365A      3.385233   366A      3.405928   367A      3.412022  
     368A      3.441006   369A      3.465002   370A      3.472047  
     371A      3.515989   372A      3.522703   373A      3.539054  
     374A      3.566933   375A      3.581085   376A      3.601582  
     377A      3.617959   378A      3.646130   379A      3.652825  
     380A      3.660878   381A      3.665712   382A      3.686576  
     383A      3.702477   384A      3.710518   385A      3.717717  
     386A      3.727929   387A      3.749003   388A      3.756793  
     389A      3.765092   390A      3.776173   391A      3.799043  
     392A      3.810677   393A      3.822544   394A      3.825025  
     395A      3.853038   396A      3.855631   397A      3.871237  
     398A      3.881907   399A      3.893742   400A      3.899703  
     401A      3.918891   402A      3.929680   403A      3.932040  
     404A      3.951295   405A      3.976631   406A      3.986368  
     407A      4.004037   408A      4.017739   409A      4.019501  
     410A      4.030943   411A      4.048345   412A      4.072002  
     413A      4.079739   414A      4.084743   415A      4.091681  
     416A      4.100562   417A      4.121326   418A      4.139628  
     419A      4.142880   420A      4.168229   421A      4.176895  
     422A      4.191411   423A      4.214613   424A      4.218181  
     425A      4.228901   426A      4.254267   427A      4.257224  
     428A      4.274422   429A      4.293025   430A      4.296720  
     431A      4.306140   432A      4.326008   433A      4.340087  
     434A      4.351997   435A      4.366219   436A      4.382512  
     437A      4.408009   438A      4.417567   439A      4.440579  
     440A      4.452372   441A      4.460206   442A      4.470915  
     443A      4.487264   444A      4.509995   445A      4.524069  
     446A      4.549984   447A      4.564834   448A      4.584342  
     449A      4.593406   450A      4.601561   451A      4.607297  
     452A      4.636520   453A      4.655894   454A      4.680708  
     455A      4.690758   456A      4.701819   457A      4.740394  
     458A      4.741300   459A      4.766427   460A      4.795813  
     461A      4.809481   462A      4.828109   463A      4.867140  
     464A      4.870018   465A      4.900474   466A      4.905005  
     467A      4.926774   468A      4.939270   469A      4.960749  
     470A      4.974081   471A      4.988115   472A      5.010029  
     473A      5.037107   474A      5.039367   475A      5.056714  
     476A      5.065572   477A      5.082644   478A      5.096690  
     479A      5.127062   480A      5.130206   481A      5.137991  
     482A      5.164609   483A      5.168238   484A      5.191146  
     485A      5.202365   486A      5.245717   487A      5.258755  
     488A      5.272135   489A      5.292947   490A      5.304650  
     491A      5.313873   492A      5.336888   493A      5.349759  
     494A      5.361685   495A      5.391223   496A      5.404782  
     497A      5.414852   498A      5.425746   499A      5.467153  
     500A      5.482279   501A      5.487306   502A      5.511827  
     503A      5.527465   504A      5.537446   505A      5.567540  
     506A      5.577773   507A      5.607025   508A      5.620846  
     509A      5.655834   510A      5.683128   511A      5.686320  
     512A      5.719177   513A      5.765071   514A      5.787747  
     515A      5.810025   516A      5.826414   517A      5.853399  
     518A      5.910567   519A      5.944599   520A      5.977287  
     521A      6.048220   522A      6.081552   523A      6.110620  
     524A      6.133064   525A      6.170472   526A      6.216442  
     527A      6.254380   528A      6.279561   529A      6.308708  
     530A      6.318651   531A      6.354467   532A      6.404475  
     533A      6.466204   534A      6.567084   535A      6.637689  
     536A      6.641903   537A      6.687922   538A      6.846190  
     539A      6.864365   540A      6.886021   541A      6.900580  
     542A      6.938793   543A      6.946622   544A      6.966308  
     545A      6.991590   546A      7.020185   547A      7.051105  
     548A      7.131297   549A      7.169725   550A      7.205015  
     551A      7.257408   552A      7.318489   553A      7.376136  
     554A      7.438835   555A      7.552255   556A      7.575243  
     557A      7.611899   558A      7.633618   559A      7.756219  
     560A      7.838193   561A      7.909959   562A      7.931837  
     563A      7.951361   564A      8.071692   565A      8.112947  
     566A      8.175176   567A      8.277713   568A     14.692363  
     569A     15.444618   570A     17.010950   571A     17.170228  
     572A     17.832048   573A     18.256898   574A     19.319943  
     575A     19.907360  

    Final Occupation by Irrep:
              A 
    DOCC [    31 ]

  @DF-RHF Final Energy:  -382.33127022192809

   => Energetics <=

    Nuclear Repulsion Energy =            338.4600430639766273
    One-Electron Energy =               -1202.6957828740878540
    Two-Electron Energy =                 481.9044695881831331
    Total Energy =                       -382.3312702219280936

Computation Completed

*** tstop() called on c445-113.stampede2.tacc.utexas.edu at Sat Mar 20 19:26:51 2021
Module time:
	user time   =     426.67 seconds =       7.11 minutes
	system time =      35.83 seconds =       0.60 minutes
	total time  =         25 seconds =       0.42 minutes
Total time:
	user time   =     426.67 seconds =       7.11 minutes
	system time =      35.83 seconds =       0.60 minutes
	total time  =         25 seconds =       0.42 minutes
   => Loading Basis Set <=

    Name: (AUG-CC-PVTZ AUX)
    Role: RIFIT
    Keyword: DF_BASIS_MP2
    atoms 1-2  entry O          line   264 file /home1/07844/xy3866/miniconda3/envs/p4env/share/psi4/basis/aug-cc-pvtz-ri.gbs 
    atoms 3-8  entry C          line   148 file /home1/07844/xy3866/miniconda3/envs/p4env/share/psi4/basis/aug-cc-pvtz-ri.gbs 
    atoms 9-17 entry H          line    30 file /home1/07844/xy3866/miniconda3/envs/p4env/share/psi4/basis/aug-cc-pvtz-ri.gbs 


*** tstart() called on c445-113.stampede2.tacc.utexas.edu
*** at Sat Mar 20 19:26:52 2021


  //>>>>>>>>>>>>>>>>>>>>>>>>>>>>>>>>>>>//
  //               DFMP2               //
  //<<<<<<<<<<<<<<<<<<<<<<<<<<<<<<<<<<<//

	 --------------------------------------------------------
	                          DF-MP2                         
	      2nd-Order Density-Fitted Moller-Plesset Theory     
	              RMP2 Wavefunction,  32 Threads             
	                                                         
	        Rob Parrish, Justin Turney, Andy Simmonett,      
	           Ed Hohenstein, and C. David Sherrill          
	 --------------------------------------------------------

   => Auxiliary Basis Set <=

  Basis Set: (AUG-CC-PVTZ AUX)
    Blend: AUG-CC-PVTZ-RI
    Number of shells: 350
    Number of basis functions: 1262
    Number of Cartesian functions: 1583
    Spherical Harmonics?: true
    Max angular momentum: 4

	 --------------------------------------------------------
	                 NBF =   575, NAUX =  1262
	 --------------------------------------------------------
	   CLASS    FOCC     OCC    AOCC    AVIR     VIR    FVIR
	   PAIRS       0      31      31     544     544       0
	 --------------------------------------------------------

  DFHelper Memory: AOs need 2.969 GiB; user supplied 22.352 GiB. Using in-core AOs.


         ------------------------------------------------------------
                                     CPHF                           
                                  Rob Parrish                       
         ------------------------------------------------------------

  ==> Geometry <==

    Molecular point group: c1
    Full point group: C1

    Geometry (in Angstrom), charge = -1, multiplicity = 1:

       Center              X                  Y                   Z               Mass       
    ------------   -----------------  -----------------  -----------------  -----------------
         O           -2.902573316097    -0.813440597730    -0.573736162427    15.994914619570
         O           -2.286072316097     1.278966402270     0.066949837573    15.994914619570
         C            2.702177683903     0.343752402270    -0.574542162427    12.000000000000
         C            1.455342683903    -0.396187597730    -0.186196162427    12.000000000000
         C            0.357638683903     0.175688402270     0.334763837573    12.000000000000
         C           -0.893862316097    -0.550970597730     0.719946837573    12.000000000000
         C            3.919362683903    -0.105748597730     0.239109837573    12.000000000000
         C           -2.142620316097     0.021378402270    -0.002233162427    12.000000000000
         H            2.911285683903     0.187975402270    -1.641531162427     1.007825032230
         H            2.542233683903     1.420237402270    -0.438946162427     1.007825032230
         H            1.471295683903    -1.479160597730    -0.332481162427     1.007825032230
         H            0.336329183903     1.306023602270     0.482406637573     1.007825032230
         H           -0.800500316097    -1.621551597730     0.509010837573     1.007825032230
         H           -1.066980316097    -0.437145597730     1.800578837573     1.007825032230
         H            4.096989683903    -1.178150597730     0.111921837573     1.007825032230
         H            3.759682683903     0.085075402270     1.304300837573     1.007825032230
         H            4.823708683903     0.425803402270    -0.072922162427     1.007825032230

  Nuclear repulsion =  338.460043063976627
  Reference energy  = -382.331270221928094

  ==> Basis Set <==

  Basis Set: AUG-CC-PVTZ
    Blend: AUG-CC-PVTZ
    Number of shells: 193
    Number of basis functions: 575
    Number of Cartesian functions: 665
    Spherical Harmonics?: true
    Max angular momentum: 3

  ==> CGRSolver (by Rob Parrish) <==

   Number of roots    =         1
   Preconditioning    =    JACOBI
   Convergence cutoff =     1E-06
   Maximum iterations =       100

  ==> CPHFRHamiltonian (by Rob Parrish) <== 

  ==> MemDFJK: Density-Fitted J/K Matrices <==

    J tasked:                   Yes
    K tasked:                   Yes
    wK tasked:                   No
    OpenMP threads:              32
    Memory [MiB]:             22888
    Algorithm:                 Core
    Schwarz Cutoff:           1E-12
    Mask sparsity (%):       8.3799
    Fitting Condition:        1E-10

   => Auxiliary Basis Set <=

  Basis Set: (AUG-CC-PVTZ AUX)
    Blend: AUG-CC-PVTZ-JKFIT
    Number of shells: 366
    Number of basis functions: 1246
    Number of Cartesian functions: 1543
    Spherical Harmonics?: true
    Max angular momentum: 4

  ==> CPHF Iterations <==

  => Iterations <=

             Iter  Converged  Remaining    Residual
  CGR           1          0          1   1.145E-01
  CGR           2          0          1   3.053E-02
  CGR           3          0          1   1.162E-02
  CGR           4          0          1   3.118E-03
  CGR           5          0          1   1.201E-03
  CGR           6          0          1   4.289E-04
  CGR           7          0          1   1.487E-04
  CGR           8          0          1   4.701E-05
  CGR           9          0          1   1.546E-05
  CGR          10          0          1   4.950E-06
  CGR          11          0          1   1.904E-06
  CGR          12          1          0   6.507E-07

    CGRSolver converged.

	-----------------------------------------------------------
	 ==================> DF-MP2 Energies <==================== 
	-----------------------------------------------------------
	 Reference Energy          =    -382.3312702219280936 [Eh]
	 Singles Energy            =      -0.0000000000000000 [Eh]
	 Same-Spin Energy          =      -0.3910551791257218 [Eh]
	 Opposite-Spin Energy      =      -1.2598435955111653 [Eh]
	 Correlation Energy        =      -1.6508987746368871 [Eh]
	 Total Energy              =    -383.9821689965650080 [Eh]
	-----------------------------------------------------------
	 ================> DF-SCS-MP2 Energies <================== 
	-----------------------------------------------------------
	 SCS Same-Spin Scale       =       0.3333333333333333 [-]
	 SCS Opposite-Spin Scale   =       1.2000000000000000 [-]
	 SCS Same-Spin Energy      =      -0.1303517263752406 [Eh]
	 SCS Opposite-Spin Energy  =      -1.5118123146133984 [Eh]
	 SCS Correlation Energy    =      -1.6421640409886389 [Eh]
	 SCS Total Energy          =    -383.9734342629167259 [Eh]
	-----------------------------------------------------------



Properties will be evaluated at   0.000000,  -0.000000,   0.000000 [a0]

Properties computed using the MP2 density matrix

  Nuclear Dipole Moment: [e a0]
     X:    16.9189      Y:    -1.2079      Z:     1.6122

  Electronic Dipole Moment: [e a0]
     X:   -12.7065      Y:     0.7995      Z:    -1.0352

  Dipole Moment: [e a0]
     X:     4.2125      Y:    -0.4084      Z:     0.5771     Total:     4.2714

  Dipole Moment: [D]
     X:    10.7070      Y:    -1.0381      Z:     1.4667     Total:    10.8568


*** tstop() called on c445-113.stampede2.tacc.utexas.edu at Sat Mar 20 19:29:15 2021
Module time:
	user time   =    1168.64 seconds =      19.48 minutes
	system time =      46.95 seconds =       0.78 minutes
	total time  =        143 seconds =       2.38 minutes
Total time:
	user time   =    1596.14 seconds =      26.60 minutes
	system time =      82.81 seconds =       1.38 minutes
	total time  =        169 seconds =       2.82 minutes

    Psi4 stopped on: Saturday, 20 March 2021 07:29PM
    Psi4 wall time for execution: 0:02:50.17

*** Psi4 exiting successfully. Buy a developer a beer!
