
    -----------------------------------------------------------------------
          Psi4: An Open-Source Ab Initio Electronic Structure Package
                               Psi4 1.3.2 release

                         Git: Rev {HEAD} ecbda83 


    R. M. Parrish, L. A. Burns, D. G. A. Smith, A. C. Simmonett,
    A. E. DePrince III, E. G. Hohenstein, U. Bozkaya, A. Yu. Sokolov,
    R. Di Remigio, R. M. Richard, J. F. Gonthier, A. M. James,
    H. R. McAlexander, A. Kumar, M. Saitow, X. Wang, B. P. Pritchard,
    P. Verma, H. F. Schaefer III, K. Patkowski, R. A. King, E. F. Valeev,
    F. A. Evangelista, J. M. Turney, T. D. Crawford, and C. D. Sherrill,
    J. Chem. Theory Comput. 13(7) pp 3185--3197 (2017).
    (doi: 10.1021/acs.jctc.7b00174)


                         Additional Contributions by
    P. Kraus, H. Kruse, M. H. Lechner, M. C. Schieber, R. A. Shaw,
    A. Alenaizan, R. Galvelis, Z. L. Glick, S. Lehtola, and J. P. Misiewicz

    -----------------------------------------------------------------------


    Psi4 started on: Monday, 02 November 2020 10:32PM

    Process ID: 17883
    Host:       node95.bme.utexas.edu
    PSIDATADIR: /home/xy3866/psi4conda/share/psi4
    Memory:     500.0 MiB
    Threads:    8
    
  ==> Input File <==

--------------------------------------------------------------------------
#psi4
#
memory 32 gb

molecule  {
-1 1
  O       -2.9259140    -0.9099280    -0.5693610
  O       -2.5318610     1.2678500    -0.0507790
  C        2.5515340     0.1562790    -0.6847320
  C        1.3133740    -0.4576390    -0.0973370
  C        0.1996320     0.2215300     0.2212070
  C       -1.0388440    -0.3710000     0.8261750
  C        3.7521530     0.0645780     0.2634350
  C       -2.2892796     0.1108878    -0.0203989
  H        2.8053070    -0.3466590    -1.6276820
  H        2.3518550     1.2059430    -0.9306210
  H        1.3523840    -1.5323490     0.0963350
  H        0.1160341     1.2905637     0.0181568
  H       -0.9504340    -1.4608690     0.8884060
  H       -1.1707130     0.0247460     1.8437960
  H        3.9732670    -0.9779260     0.5120620
  H        3.5426510     0.5954950     1.1964510
  H        4.6498360     0.5017940    -0.1852730
units angstrom
no_reorient  #important for SAPT in psi4, default
symmetry c1  #important for SAPT in psi4, default
}

set PROPERTIES_ORIGIN ["COM"]
properties('MP2/aug-cc-pvtz', properties = ['dipole'])
--------------------------------------------------------------------------

  Memory set to  29.802 GiB by Python driver.
    SCF Algorithm Type (re)set to DF.

*** tstart() called on node95.bme.utexas.edu
*** at Mon Nov  2 22:32:09 2020

   => Loading Basis Set <=

    Name: AUG-CC-PVTZ
    Role: ORBITAL
    Keyword: BASIS
    atoms 1-2  entry O          line   327 file /home/xy3866/psi4conda/share/psi4/basis/aug-cc-pvtz.gbs 
    atoms 3-8  entry C          line   235 file /home/xy3866/psi4conda/share/psi4/basis/aug-cc-pvtz.gbs 
    atoms 9-17 entry H          line    36 file /home/xy3866/psi4conda/share/psi4/basis/aug-cc-pvtz.gbs 


         ---------------------------------------------------------
                                   SCF
               by Justin Turney, Rob Parrish, Andy Simmonett
                          and Daniel G. A. Smith
                              RHF Reference
                        8 Threads,  30517 MiB Core
         ---------------------------------------------------------

  ==> Geometry <==

    Molecular point group: c1
    Full point group: C1

    Geometry (in Angstrom), charge = -1, multiplicity = 1:

       Center              X                  Y                   Z               Mass       
    ------------   -----------------  -----------------  -----------------  -----------------
         O           -2.778796159555    -0.925104229661    -0.551732432905    15.994914619570
         O           -2.384743159555     1.252673770339    -0.033150432905    15.994914619570
         C            2.698651840445     0.141102770339    -0.667103432905    12.000000000000
         C            1.460491840445    -0.472815229661    -0.079708432905    12.000000000000
         C            0.346749840445     0.206353770339     0.238835567095    12.000000000000
         C           -0.891726159555    -0.386176229661     0.843803567095    12.000000000000
         C            3.899270840445     0.049401770339     0.281063567095    12.000000000000
         C           -2.142161759555     0.095711570339    -0.002770332905    12.000000000000
         H            2.952424840445    -0.361835229661    -1.610053432905     1.007825032230
         H            2.498972840445     1.190766770339    -0.912992432905     1.007825032230
         H            1.499501840445    -1.547525229661     0.113963567095     1.007825032230
         H            0.263151940445     1.275387470339     0.035785367095     1.007825032230
         H           -0.803316159555    -1.476045229661     0.906034567095     1.007825032230
         H           -1.023595159555     0.009569770339     1.861424567095     1.007825032230
         H            4.120384840445    -0.993102229661     0.529690567095     1.007825032230
         H            3.689768840445     0.580318770339     1.214079567095     1.007825032230
         H            4.796953840445     0.486617770339    -0.167644432905     1.007825032230

  Running in c1 symmetry.

  Rotational constants: A =      0.20180  B =      0.02483  C =      0.02399 [cm^-1]
  Rotational constants: A =   6049.81586  B =    744.23797  C =    719.08540 [MHz]
  Nuclear repulsion =  339.105411319404766

  Charge       = -1
  Multiplicity = 1
  Electrons    = 62
  Nalpha       = 31
  Nbeta        = 31

  ==> Algorithm <==

  SCF Algorithm Type is DF.
  DIIS enabled.
  MOM disabled.
  Fractional occupation disabled.
  Guess Type is SAD.
  Energy threshold   = 1.00e-10
  Density threshold  = 1.00e-10
  Integral threshold = 0.00e+00

  ==> Primary Basis <==

  Basis Set: AUG-CC-PVTZ
    Blend: AUG-CC-PVTZ
    Number of shells: 193
    Number of basis function: 575
    Number of Cartesian functions: 665
    Spherical Harmonics?: true
    Max angular momentum: 3

   => Loading Basis Set <=

    Name: (AUG-CC-PVTZ AUX)
    Role: JKFIT
    Keyword: DF_BASIS_SCF
    atoms 1-2  entry O          line   286 file /home/xy3866/psi4conda/share/psi4/basis/aug-cc-pvtz-jkfit.gbs 
    atoms 3-8  entry C          line   162 file /home/xy3866/psi4conda/share/psi4/basis/aug-cc-pvtz-jkfit.gbs 
    atoms 9-17 entry H          line    70 file /home/xy3866/psi4conda/share/psi4/basis/aug-cc-pvtz-jkfit.gbs 

  ==> Pre-Iterations <==

   -------------------------------------------------------
    Irrep   Nso     Nmo     Nalpha   Nbeta   Ndocc  Nsocc
   -------------------------------------------------------
     A        575     575       0       0       0       0
   -------------------------------------------------------
    Total     575     575      31      31      31       0
   -------------------------------------------------------

  ==> Integral Setup <==

  DFHelper Memory: AOs need 2.912 GiB; user supplied 22.352 GiB. Using in-core AOs.

  ==> MemDFJK: Density-Fitted J/K Matrices <==

    J tasked:                   Yes
    K tasked:                   Yes
    wK tasked:                   No
    OpenMP threads:               8
    Memory [MiB]:             22888
    Algorithm:                 Disk
    Schwarz Cutoff:           1E-12
    Mask sparsity (%):       8.3109
    Fitting Condition:        1E-10

   => Auxiliary Basis Set <=

  Basis Set: (AUG-CC-PVTZ AUX)
    Blend: AUG-CC-PVTZ-JKFIT
    Number of shells: 366
    Number of basis function: 1246
    Number of Cartesian functions: 1543
    Spherical Harmonics?: true
    Max angular momentum: 4

  Minimum eigenvalue in the overlap matrix is 2.6898751241E-06.
  Using Symmetric Orthogonalization.

  SCF Guess: Superposition of Atomic Densities via on-the-fly atomic UHF.

  ==> Iterations <==

                           Total Energy        Delta E     RMS |[F,P]|

   @DF-RHF iter SAD:  -380.90351644249034   -3.80904e+02   0.00000e+00 
   @DF-RHF iter   1:  -381.96372668383492   -1.06021e+00   1.45626e-03 DIIS
   @DF-RHF iter   2:  -382.23329382863722   -2.69567e-01   8.55317e-04 DIIS
   @DF-RHF iter   3:  -382.31922948614272   -8.59357e-02   1.42769e-04 DIIS
   @DF-RHF iter   4:  -382.32334922594737   -4.11974e-03   6.49865e-05 DIIS
   @DF-RHF iter   5:  -382.32421536032058   -8.66134e-04   1.45328e-05 DIIS
   @DF-RHF iter   6:  -382.32425945761338   -4.40973e-05   5.84092e-06 DIIS
   @DF-RHF iter   7:  -382.32426800757059   -8.54996e-06   1.54760e-06 DIIS
   @DF-RHF iter   8:  -382.32426898529923   -9.77729e-07   5.94526e-07 DIIS
   @DF-RHF iter   9:  -382.32426913179137   -1.46492e-07   2.12035e-07 DIIS
   @DF-RHF iter  10:  -382.32426915712347   -2.53321e-08   9.63061e-08 DIIS
   @DF-RHF iter  11:  -382.32426916089941   -3.77594e-09   2.44006e-08 DIIS
   @DF-RHF iter  12:  -382.32426916121710   -3.17698e-10   9.19926e-09 DIIS
   @DF-RHF iter  13:  -382.32426916125524   -3.81419e-11   2.84982e-09 DIIS
   @DF-RHF iter  14:  -382.32426916125979   -4.54747e-12   9.10065e-10 DIIS
   @DF-RHF iter  15:  -382.32426916125985   -5.68434e-14   3.11935e-10 DIIS
   @DF-RHF iter  16:  -382.32426916125877    1.08002e-12   1.32785e-10 DIIS
   @DF-RHF iter  17:  -382.32426916126064   -1.87583e-12   5.66655e-11 DIIS
  Energy and wave function converged.


  ==> Post-Iterations <==

    Orbital Energies [Eh]
    ---------------------

    Doubly Occupied:                                                      

       1A    -20.316840     2A    -20.281514     3A    -11.143016  
       4A    -11.122697     5A    -11.120117     6A    -11.098426  
       7A    -11.093555     8A    -11.065065     9A     -1.203922  
      10A     -1.053731    11A     -0.967011    12A     -0.898143  
      13A     -0.801983    14A     -0.718415    15A     -0.619928  
      16A     -0.532344    17A     -0.514308    18A     -0.499800  
      19A     -0.451647    20A     -0.446373    21A     -0.436861  
      22A     -0.414965    23A     -0.402649    24A     -0.385110  
      25A     -0.375999    26A     -0.351507    27A     -0.334553  
      28A     -0.237052    29A     -0.213886    30A     -0.195098  
      31A     -0.176540  

    Virtual:                                                              

      32A      0.094873    33A      0.109281    34A      0.112662  
      35A      0.122713    36A      0.132659    37A      0.135595  
      38A      0.140979    39A      0.153664    40A      0.157516  
      41A      0.182340    42A      0.189784    43A      0.193474  
      44A      0.196693    45A      0.207873    46A      0.212487  
      47A      0.217607    48A      0.219936    49A      0.224042  
      50A      0.244650    51A      0.244939    52A      0.247802  
      53A      0.251754    54A      0.254991    55A      0.255849  
      56A      0.265431    57A      0.270784    58A      0.279097  
      59A      0.294074    60A      0.299772    61A      0.310136  
      62A      0.315042    63A      0.327728    64A      0.335466  
      65A      0.346582    66A      0.348521    67A      0.353647  
      68A      0.363149    69A      0.365598    70A      0.375217  
      71A      0.376750    72A      0.383389    73A      0.393508  
      74A      0.401799    75A      0.408303    76A      0.411990  
      77A      0.414867    78A      0.421954    79A      0.427281  
      80A      0.433292    81A      0.435217    82A      0.443662  
      83A      0.445424    84A      0.452148    85A      0.453657  
      86A      0.461175    87A      0.470819    88A      0.473345  
      89A      0.479300    90A      0.486153    91A      0.490542  
      92A      0.491696    93A      0.500770    94A      0.510045  
      95A      0.512599    96A      0.514963    97A      0.519575  
      98A      0.531906    99A      0.533862   100A      0.539917  
     101A      0.546282   102A      0.549863   103A      0.560030  
     104A      0.565056   105A      0.571829   106A      0.574588  
     107A      0.579201   108A      0.588222   109A      0.588562  
     110A      0.598708   111A      0.603066   112A      0.608965  
     113A      0.611667   114A      0.617914   115A      0.625424  
     116A      0.633007   117A      0.639685   118A      0.645059  
     119A      0.653960   120A      0.660568   121A      0.664472  
     122A      0.666641   123A      0.674667   124A      0.683627  
     125A      0.689965   126A      0.698500   127A      0.700944  
     128A      0.711011   129A      0.724474   130A      0.731441  
     131A      0.740063   132A      0.743854   133A      0.747322  
     134A      0.759682   135A      0.768736   136A      0.774039  
     137A      0.782011   138A      0.785714   139A      0.798931  
     140A      0.808923   141A      0.819596   142A      0.831975  
     143A      0.836845   144A      0.853940   145A      0.865998  
     146A      0.875259   147A      0.881028   148A      0.897839  
     149A      0.910984   150A      0.912919   151A      0.921756  
     152A      0.931097   153A      0.936345   154A      0.943712  
     155A      0.952637   156A      0.958496   157A      0.963302  
     158A      0.974933   159A      0.979848   160A      0.984707  
     161A      0.988753   162A      0.998352   163A      1.005648  
     164A      1.010877   165A      1.014920   166A      1.019670  
     167A      1.030305   168A      1.033148   169A      1.041767  
     170A      1.051442   171A      1.057725   172A      1.065648  
     173A      1.072880   174A      1.077511   175A      1.085940  
     176A      1.092880   177A      1.094121   178A      1.100151  
     179A      1.107523   180A      1.120117   181A      1.126915  
     182A      1.128593   183A      1.136002   184A      1.152075  
     185A      1.155337   186A      1.159166   187A      1.168210  
     188A      1.171319   189A      1.178609   190A      1.188215  
     191A      1.191887   192A      1.200932   193A      1.210399  
     194A      1.210441   195A      1.217017   196A      1.222081  
     197A      1.227470   198A      1.229643   199A      1.237533  
     200A      1.252751   201A      1.259450   202A      1.265124  
     203A      1.272337   204A      1.279428   205A      1.295786  
     206A      1.298049   207A      1.306289   208A      1.316796  
     209A      1.324807   210A      1.331034   211A      1.337231  
     212A      1.341033   213A      1.346319   214A      1.359500  
     215A      1.363818   216A      1.371232   217A      1.373752  
     218A      1.384572   219A      1.387282   220A      1.391324  
     221A      1.402857   222A      1.417901   223A      1.425304  
     224A      1.435257   225A      1.440087   226A      1.451079  
     227A      1.467478   228A      1.484758   229A      1.491143  
     230A      1.499153   231A      1.508911   232A      1.528393  
     233A      1.533764   234A      1.542769   235A      1.553686  
     236A      1.556819   237A      1.576608   238A      1.579076  
     239A      1.601613   240A      1.615848   241A      1.626426  
     242A      1.629948   243A      1.636746   244A      1.643618  
     245A      1.655434   246A      1.671246   247A      1.673336  
     248A      1.681899   249A      1.698600   250A      1.712780  
     251A      1.725084   252A      1.730459   253A      1.735218  
     254A      1.746248   255A      1.762159   256A      1.765630  
     257A      1.773583   258A      1.781124   259A      1.792657  
     260A      1.807100   261A      1.808258   262A      1.812831  
     263A      1.828623   264A      1.835468   265A      1.842518  
     266A      1.844896   267A      1.864816   268A      1.870656  
     269A      1.884773   270A      1.893731   271A      1.897543  
     272A      1.911133   273A      1.921812   274A      1.932469  
     275A      1.940024   276A      1.947543   277A      1.957820  
     278A      1.965668   279A      1.972922   280A      1.984045  
     281A      1.998902   282A      2.002221   283A      2.010906  
     284A      2.023730   285A      2.030161   286A      2.049019  
     287A      2.055790   288A      2.061152   289A      2.066386  
     290A      2.078971   291A      2.093591   292A      2.102636  
     293A      2.109176   294A      2.123913   295A      2.129030  
     296A      2.149190   297A      2.165439   298A      2.180534  
     299A      2.186910   300A      2.194511   301A      2.218120  
     302A      2.228120   303A      2.237410   304A      2.255220  
     305A      2.264942   306A      2.273175   307A      2.290484  
     308A      2.302819   309A      2.311104   310A      2.331670  
     311A      2.339943   312A      2.349826   313A      2.357332  
     314A      2.373157   315A      2.385787   316A      2.402107  
     317A      2.406621   318A      2.427220   319A      2.444748  
     320A      2.454844   321A      2.462056   322A      2.474885  
     323A      2.496322   324A      2.506104   325A      2.528525  
     326A      2.532936   327A      2.548734   328A      2.560084  
     329A      2.568894   330A      2.576741   331A      2.611619  
     332A      2.616219   333A      2.641292   334A      2.648121  
     335A      2.679005   336A      2.695695   337A      2.714092  
     338A      2.745683   339A      2.757274   340A      2.795267  
     341A      2.806160   342A      2.819668   343A      2.839871  
     344A      2.850177   345A      2.864186   346A      2.897719  
     347A      2.905219   348A      2.936042   349A      2.958626  
     350A      2.964843   351A      2.976663   352A      3.023814  
     353A      3.039208   354A      3.058984   355A      3.077328  
     356A      3.120417   357A      3.171469   358A      3.194721  
     359A      3.231163   360A      3.245287   361A      3.280069  
     362A      3.289086   363A      3.314155   364A      3.349611  
     365A      3.387041   366A      3.406456   367A      3.424985  
     368A      3.452084   369A      3.461081   370A      3.469694  
     371A      3.508519   372A      3.526124   373A      3.537222  
     374A      3.563650   375A      3.577601   376A      3.599283  
     377A      3.617430   378A      3.648142   379A      3.654541  
     380A      3.657864   381A      3.663060   382A      3.673836  
     383A      3.710144   384A      3.712493   385A      3.722573  
     386A      3.734424   387A      3.752147   388A      3.761299  
     389A      3.765903   390A      3.781254   391A      3.801452  
     392A      3.811903   393A      3.820451   394A      3.826606  
     395A      3.843310   396A      3.857686   397A      3.875706  
     398A      3.878315   399A      3.900116   400A      3.910642  
     401A      3.924332   402A      3.931075   403A      3.942360  
     404A      3.947244   405A      3.976027   406A      3.984001  
     407A      3.998601   408A      4.018163   409A      4.028999  
     410A      4.038776   411A      4.049181   412A      4.071256  
     413A      4.077478   414A      4.084647   415A      4.093362  
     416A      4.103909   417A      4.112582   418A      4.142044  
     419A      4.150440   420A      4.167059   421A      4.174137  
     422A      4.190059   423A      4.210674   424A      4.229889  
     425A      4.238792   426A      4.254976   427A      4.261931  
     428A      4.286311   429A      4.294073   430A      4.303901  
     431A      4.314157   432A      4.323048   433A      4.348233  
     434A      4.357293   435A      4.366913   436A      4.380648  
     437A      4.399742   438A      4.418010   439A      4.457705  
     440A      4.462465   441A      4.473865   442A      4.491452  
     443A      4.513202   444A      4.524348   445A      4.533701  
     446A      4.549091   447A      4.552779   448A      4.576429  
     449A      4.595332   450A      4.608497   451A      4.620338  
     452A      4.638271   453A      4.665690   454A      4.685018  
     455A      4.690563   456A      4.701169   457A      4.721561  
     458A      4.745979   459A      4.776911   460A      4.800780  
     461A      4.824991   462A      4.836685   463A      4.864505  
     464A      4.874423   465A      4.892159   466A      4.909833  
     467A      4.932850   468A      4.944780   469A      4.963892  
     470A      4.989714   471A      5.000017   472A      5.024947  
     473A      5.042952   474A      5.050302   475A      5.060583  
     476A      5.065323   477A      5.086498   478A      5.114918  
     479A      5.127451   480A      5.140177   481A      5.149183  
     482A      5.163454   483A      5.178657   484A      5.201089  
     485A      5.202029   486A      5.249939   487A      5.267722  
     488A      5.271163   489A      5.292578   490A      5.307150  
     491A      5.335872   492A      5.341045   493A      5.359897  
     494A      5.396532   495A      5.409660   496A      5.417246  
     497A      5.426284   498A      5.465849   499A      5.472498  
     500A      5.495394   501A      5.513711   502A      5.520264  
     503A      5.543361   504A      5.551756   505A      5.570917  
     506A      5.610044   507A      5.623452   508A      5.640449  
     509A      5.688424   510A      5.701538   511A      5.708122  
     512A      5.737867   513A      5.751939   514A      5.774081  
     515A      5.802193   516A      5.833456   517A      5.850881  
     518A      5.914348   519A      5.950932   520A      6.030928  
     521A      6.062640   522A      6.092448   523A      6.107206  
     524A      6.121083   525A      6.164940   526A      6.227032  
     527A      6.269915   528A      6.291020   529A      6.316117  
     530A      6.320723   531A      6.362471   532A      6.404641  
     533A      6.459055   534A      6.566337   535A      6.626167  
     536A      6.662527   537A      6.707850   538A      6.849947  
     539A      6.861378   540A      6.882298   541A      6.916450  
     542A      6.925149   543A      6.949142   544A      6.973519  
     545A      6.995766   546A      7.018146   547A      7.060366  
     548A      7.137158   549A      7.182981   550A      7.195961  
     551A      7.272039   552A      7.324567   553A      7.391560  
     554A      7.472587   555A      7.547105   556A      7.606375  
     557A      7.613592   558A      7.649347   559A      7.760861  
     560A      7.857431   561A      7.897891   562A      7.948429  
     563A      7.962771   564A      8.066973   565A      8.157025  
     566A      8.219659   567A      8.275204   568A     14.124751  
     569A     16.775990   570A     17.086315   571A     17.273730  
     572A     17.820750   573A     18.322575   574A     19.324965  
     575A     19.944031  

    Final Occupation by Irrep:
              A 
    DOCC [    31 ]

  @DF-RHF Final Energy:  -382.32426916126064

   => Energetics <=

    Nuclear Repulsion Energy =            339.1054113194047659
    One-Electron Energy =               -1203.9132463176827059
    Two-Electron Energy =                 482.4835658370172951
    Total Energy =                       -382.3242691612606450

Computation Completed

*** tstop() called on node95.bme.utexas.edu at Mon Nov  2 22:32:56 2020
Module time:
	user time   =     197.43 seconds =       3.29 minutes
	system time =      26.45 seconds =       0.44 minutes
	total time  =         47 seconds =       0.78 minutes
Total time:
	user time   =     197.43 seconds =       3.29 minutes
	system time =      26.45 seconds =       0.44 minutes
	total time  =         47 seconds =       0.78 minutes
   => Loading Basis Set <=

    Name: (AUG-CC-PVTZ AUX)
    Role: RIFIT
    Keyword: DF_BASIS_MP2
    atoms 1-2  entry O          line   264 file /home/xy3866/psi4conda/share/psi4/basis/aug-cc-pvtz-ri.gbs 
    atoms 3-8  entry C          line   148 file /home/xy3866/psi4conda/share/psi4/basis/aug-cc-pvtz-ri.gbs 
    atoms 9-17 entry H          line    30 file /home/xy3866/psi4conda/share/psi4/basis/aug-cc-pvtz-ri.gbs 


*** tstart() called on node95.bme.utexas.edu
*** at Mon Nov  2 22:32:56 2020


  //>>>>>>>>>>>>>>>>>>>>>>>>>>>>>>>>>>>//
  //               DFMP2               //
  //<<<<<<<<<<<<<<<<<<<<<<<<<<<<<<<<<<<//

	 --------------------------------------------------------
	                          DF-MP2                         
	      2nd-Order Density-Fitted Moller-Plesset Theory     
	              RMP2 Wavefunction,   8 Threads             
	                                                         
	        Rob Parrish, Justin Turney, Andy Simmonett,      
	           Ed Hohenstein, and C. David Sherrill          
	 --------------------------------------------------------

   => Auxiliary Basis Set <=

  Basis Set: (AUG-CC-PVTZ AUX)
    Blend: AUG-CC-PVTZ-RI
    Number of shells: 350
    Number of basis function: 1262
    Number of Cartesian functions: 1583
    Spherical Harmonics?: true
    Max angular momentum: 4

	 --------------------------------------------------------
	                 NBF =   575, NAUX =  1262
	 --------------------------------------------------------
	   CLASS    FOCC     OCC    AOCC    AVIR     VIR    FVIR
	   PAIRS       0      31      31     544     544       0
	 --------------------------------------------------------

  DFHelper Memory: AOs need 2.912 GiB; user supplied 22.352 GiB. Using in-core AOs.


         ------------------------------------------------------------
                                     CPHF                           
                                  Rob Parrish                       
         ------------------------------------------------------------

  ==> Geometry <==

    Molecular point group: c1
    Full point group: C1

    Geometry (in Angstrom), charge = -1, multiplicity = 1:

       Center              X                  Y                   Z               Mass       
    ------------   -----------------  -----------------  -----------------  -----------------
         O           -2.778796159555    -0.925104229661    -0.551732432905    15.994914619570
         O           -2.384743159555     1.252673770339    -0.033150432905    15.994914619570
         C            2.698651840445     0.141102770339    -0.667103432905    12.000000000000
         C            1.460491840445    -0.472815229661    -0.079708432905    12.000000000000
         C            0.346749840445     0.206353770339     0.238835567095    12.000000000000
         C           -0.891726159555    -0.386176229661     0.843803567095    12.000000000000
         C            3.899270840445     0.049401770339     0.281063567095    12.000000000000
         C           -2.142161759555     0.095711570339    -0.002770332905    12.000000000000
         H            2.952424840445    -0.361835229661    -1.610053432905     1.007825032230
         H            2.498972840445     1.190766770339    -0.912992432905     1.007825032230
         H            1.499501840445    -1.547525229661     0.113963567095     1.007825032230
         H            0.263151940445     1.275387470339     0.035785367095     1.007825032230
         H           -0.803316159555    -1.476045229661     0.906034567095     1.007825032230
         H           -1.023595159555     0.009569770339     1.861424567095     1.007825032230
         H            4.120384840445    -0.993102229661     0.529690567095     1.007825032230
         H            3.689768840445     0.580318770339     1.214079567095     1.007825032230
         H            4.796953840445     0.486617770339    -0.167644432905     1.007825032230

  Nuclear repulsion =  339.105411319404766
  Reference energy  = -382.324269161260645

  ==> Basis Set <==

  Basis Set: AUG-CC-PVTZ
    Blend: AUG-CC-PVTZ
    Number of shells: 193
    Number of basis function: 575
    Number of Cartesian functions: 665
    Spherical Harmonics?: true
    Max angular momentum: 3

  ==> CGRSolver (by Rob Parrish) <==

   Number of roots    =         1
   Preconditioning    =    JACOBI
   Convergence cutoff =     1E-06
   Maximum iterations =       100

  ==> CPHFRHamiltonian (by Rob Parrish) <== 

  ==> MemDFJK: Density-Fitted J/K Matrices <==

    J tasked:                   Yes
    K tasked:                   Yes
    wK tasked:                   No
    OpenMP threads:               8
    Memory [MiB]:             22888
    Algorithm:                 Disk
    Schwarz Cutoff:           1E-12
    Mask sparsity (%):       8.3109
    Fitting Condition:        1E-10

   => Auxiliary Basis Set <=

  Basis Set: (AUG-CC-PVTZ AUX)
    Blend: AUG-CC-PVTZ-JKFIT
    Number of shells: 366
    Number of basis function: 1246
    Number of Cartesian functions: 1543
    Spherical Harmonics?: true
    Max angular momentum: 4

  ==> CPHF Iterations <==

  => Iterations <=

             Iter  Converged  Remaining    Residual
  CGR           1          0          1   1.154E-01
  CGR           2          0          1   3.249E-02
  CGR           3          0          1   1.328E-02
  CGR           4          0          1   5.276E-03
  CGR           5          0          1   2.349E-03
  CGR           6          0          1   7.850E-04
  CGR           7          0          1   2.500E-04
  CGR           8          0          1   9.401E-05
  CGR           9          0          1   2.941E-05
  CGR          10          0          1   9.509E-06
  CGR          11          0          1   2.682E-06
  CGR          12          1          0   7.723E-07

    CGRSolver converged.

	-----------------------------------------------------------
	 ==================> DF-MP2 Energies <==================== 
	-----------------------------------------------------------
	 Reference Energy          =    -382.3242691612606450 [Eh]
	 Singles Energy            =      -0.0000000000000000 [Eh]
	 Same-Spin Energy          =      -0.3906096313320891 [Eh]
	 Opposite-Spin Energy      =      -1.2585422382643046 [Eh]
	 Correlation Energy        =      -1.6491518695963938 [Eh]
	 Total Energy              =    -383.9734210308570255 [Eh]
	-----------------------------------------------------------
	 ================> DF-SCS-MP2 Energies <================== 
	-----------------------------------------------------------
	 SCS Same-Spin Scale       =       0.3333333333333333 [-]
	 SCS Opposite-Spin Scale   =       1.2000000000000000 [-]
	 SCS Same-Spin Energy      =      -0.1302032104440297 [Eh]
	 SCS Opposite-Spin Energy  =      -1.5102506859171654 [Eh]
	 SCS Correlation Energy    =      -1.6404538963611950 [Eh]
	 SCS Total Energy          =    -383.9647230576218249 [Eh]
	-----------------------------------------------------------



Properties will be evaluated at  -0.000000,   0.000000,   0.000000 [a0]

Properties computed using the MP2 density matrix

  Nuclear Dipole Moment: [e a0]
     X:    16.8442      Y:    -0.7820      Z:     1.8443

  Electronic Dipole Moment: [e a0]
     X:   -12.6847      Y:     0.8421      Z:    -1.1560

  Dipole Moment: [e a0]
     X:     4.1596      Y:     0.0601      Z:     0.6882     Total:     4.2165

  Dipole Moment: [D]
     X:    10.5725      Y:     0.1526      Z:     1.7493     Total:    10.7174


*** tstop() called on node95.bme.utexas.edu at Mon Nov  2 22:34:36 2020
Module time:
	user time   =     561.84 seconds =       9.36 minutes
	system time =      28.23 seconds =       0.47 minutes
	total time  =        100 seconds =       1.67 minutes
Total time:
	user time   =     760.57 seconds =      12.68 minutes
	system time =      54.73 seconds =       0.91 minutes
	total time  =        147 seconds =       2.45 minutes

    Psi4 stopped on: Monday, 02 November 2020 10:34PM
    Psi4 wall time for execution: 0:02:26.54

*** Psi4 exiting successfully. Buy a developer a beer!
