12244                                                                   
Freq      RMP2-FC                                                     6-31G(d)            
Number of atoms                            I               15
Info1-9                                    I   N=           9
          27          25        1002           0           0         100
           6           2           1
Charge                                     I                0
Multiplicity                               I                1
Number of electrons                        I               46
Number of alpha electrons                  I               23
Number of beta electrons                   I               23
Number of basis functions                  I              108
Number of independent functions            I              108
Number of point charges in /Mol/           I                0
Number of translation vectors              I                0
Atomic numbers                             I   N=          15
           7           6           6           6           6           6
           1           1           1           1           1           1
           1           1           1
Nuclear charges                            R   N=          15
  7.00000000E+00  6.00000000E+00  6.00000000E+00  6.00000000E+00  6.00000000E+00
  6.00000000E+00  1.00000000E+00  1.00000000E+00  1.00000000E+00  1.00000000E+00
  1.00000000E+00  1.00000000E+00  1.00000000E+00  1.00000000E+00  1.00000000E+00
Current cartesian coordinates              R   N=          45
 -5.19931840E+00  2.71870768E-01 -3.67492204E-01  1.44521532E+00  4.97787498E-02
 -6.45971498E-01 -6.41976050E-01 -1.54914453E+00  5.95326935E-01  1.37716817E+00
  2.76990491E+00  3.09607888E-01  4.01127990E+00 -1.17545793E+00 -1.56353271E-01
 -3.17813640E+00 -5.62156715E-01  8.02833800E-02  1.09274333E+00  5.75073624E-02
 -2.68969872E+00 -5.47339436E-01 -3.50565265E+00 -7.76375438E-02 -3.54615286E-01
 -1.59714170E+00  2.64806449E+00  1.70684776E+00  2.82635499E+00  2.35311760E+00
  2.85099191E+00  3.89600111E+00 -6.03150323E-01 -4.45599569E-01  3.66379635E+00
 -7.61933507E-02  4.41458822E+00 -1.22996202E+00  1.87342606E+00  5.51884758E+00
 -9.92865535E-02 -1.07370007E+00  4.07745863E+00 -3.11225915E+00 -8.79143313E-01
Force Field                                I                0
Int Atom Types                             I   N=          15
           0           0           0           0           0           0
           0           0           0           0           0           0
           0           0           0
MM charges                                 R   N=          15
  0.00000000E+00  0.00000000E+00  0.00000000E+00  0.00000000E+00  0.00000000E+00
  0.00000000E+00  0.00000000E+00  0.00000000E+00  0.00000000E+00  0.00000000E+00
  0.00000000E+00  0.00000000E+00  0.00000000E+00  0.00000000E+00  0.00000000E+00
Integer atomic weights                     I   N=          15
          14          12          12          12          12          12
           1           1           1           1           1           1
           1           1           1
Real atomic weights                        R   N=          15
  1.40030740E+01  1.20000000E+01  1.20000000E+01  1.20000000E+01  1.20000000E+01
  1.20000000E+01  1.00782504E+00  1.00782504E+00  1.00782504E+00  1.00782504E+00
  1.00782504E+00  1.00782504E+00  1.00782504E+00  1.00782504E+00  1.00782504E+00
Atom fragment info                         I   N=          15
           0           0           0           0           0           0
           0           0           0           0           0           0
           0           0           0
Atom residue num                           I   N=          15
           0           0           0           0           0           0
           0           0           0           0           0           0
           0           0           0
Nuclear spins                              I   N=          15
           2           0           0           0           0           0
           1           1           1           1           1           1
           1           1           1
Nuclear ZEff                               R   N=          15
 -4.55000000E+00 -3.60000000E+00 -3.60000000E+00 -3.60000000E+00 -3.60000000E+00
 -3.60000000E+00 -1.00000000E+00 -1.00000000E+00 -1.00000000E+00 -1.00000000E+00
 -1.00000000E+00 -1.00000000E+00 -1.00000000E+00 -1.00000000E+00 -1.00000000E+00
Nuclear QMom                               R   N=          15
  2.04400000E+00  0.00000000E+00  0.00000000E+00  0.00000000E+00  0.00000000E+00
  0.00000000E+00  0.00000000E+00  0.00000000E+00  0.00000000E+00  0.00000000E+00
  0.00000000E+00  0.00000000E+00  0.00000000E+00  0.00000000E+00  0.00000000E+00
Nuclear GFac                               R   N=          15
  4.03761000E-01  0.00000000E+00  0.00000000E+00  0.00000000E+00  0.00000000E+00
  0.00000000E+00  2.79284600E+00  2.79284600E+00  2.79284600E+00  2.79284600E+00
  2.79284600E+00  2.79284600E+00  2.79284600E+00  2.79284600E+00  2.79284600E+00
MicOpt                                     I   N=          15
          -1          -1          -1          -1          -1          -1
          -1          -1          -1          -1          -1          -1
          -1          -1          -1
Number of contracted shells                I               42
Number of primitive shells                 I              102
Pure/Cartesian d shells                    I                1
Pure/Cartesian f shells                    I                0
Highest angular momentum                   I                2
Largest degree of contraction              I                6
Shell types                                I   N=          42
           0          -1          -1           2           0          -1
          -1           2           0          -1          -1           2
           0          -1          -1           2           0          -1
          -1           2           0          -1          -1           2
           0           0           0           0           0           0
           0           0           0           0           0           0
           0           0           0           0           0           0
Number of primitives per shell             I   N=          42
           6           3           1           1           6           3
           1           1           6           3           1           1
           6           3           1           1           6           3
           1           1           6           3           1           1
           3           1           3           1           3           1
           3           1           3           1           3           1
           3           1           3           1           3           1
Shell to atom map                          I   N=          42
           1           1           1           1           2           2
           2           2           3           3           3           3
           4           4           4           4           5           5
           5           5           6           6           6           6
           7           7           8           8           9           9
          10          10          11          11          12          12
          13          13          14          14          15          15
Primitive exponents                        R   N=         102
  4.17351146E+03  6.27457911E+02  1.42902093E+02  4.02343293E+01  1.28202129E+01
  4.39043701E+00  1.16263619E+01  2.71627981E+00  7.72218397E-01  2.12031498E-01
  8.00000000E-01  3.04752488E+03  4.57369518E+02  1.03948685E+02  2.92101553E+01
  9.28666296E+00  3.16392696E+00  7.86827235E+00  1.88128854E+00  5.44249258E-01
  1.68714478E-01  8.00000000E-01  3.04752488E+03  4.57369518E+02  1.03948685E+02
  2.92101553E+01  9.28666296E+00  3.16392696E+00  7.86827235E+00  1.88128854E+00
  5.44249258E-01  1.68714478E-01  8.00000000E-01  3.04752488E+03  4.57369518E+02
  1.03948685E+02  2.92101553E+01  9.28666296E+00  3.16392696E+00  7.86827235E+00
  1.88128854E+00  5.44249258E-01  1.68714478E-01  8.00000000E-01  3.04752488E+03
  4.57369518E+02  1.03948685E+02  2.92101553E+01  9.28666296E+00  3.16392696E+00
  7.86827235E+00  1.88128854E+00  5.44249258E-01  1.68714478E-01  8.00000000E-01
  3.04752488E+03  4.57369518E+02  1.03948685E+02  2.92101553E+01  9.28666296E+00
  3.16392696E+00  7.86827235E+00  1.88128854E+00  5.44249258E-01  1.68714478E-01
  8.00000000E-01  1.87311370E+01  2.82539436E+00  6.40121692E-01  1.61277759E-01
  1.87311370E+01  2.82539436E+00  6.40121692E-01  1.61277759E-01  1.87311370E+01
  2.82539436E+00  6.40121692E-01  1.61277759E-01  1.87311370E+01  2.82539436E+00
  6.40121692E-01  1.61277759E-01  1.87311370E+01  2.82539436E+00  6.40121692E-01
  1.61277759E-01  1.87311370E+01  2.82539436E+00  6.40121692E-01  1.61277759E-01
  1.87311370E+01  2.82539436E+00  6.40121692E-01  1.61277759E-01  1.87311370E+01
  2.82539436E+00  6.40121692E-01  1.61277759E-01  1.87311370E+01  2.82539436E+00
  6.40121692E-01  1.61277759E-01
Contraction coefficients                   R   N=         102
  1.83477216E-03  1.39946270E-02  6.85865518E-02  2.32240873E-01  4.69069948E-01
  3.60455199E-01 -1.14961182E-01 -1.69117479E-01  1.14585195E+00  1.00000000E+00
  1.00000000E+00  1.83473713E-03  1.40373228E-02  6.88426223E-02  2.32184443E-01
  4.67941348E-01  3.62311985E-01 -1.19332420E-01 -1.60854152E-01  1.14345644E+00
  1.00000000E+00  1.00000000E+00  1.83473713E-03  1.40373228E-02  6.88426223E-02
  2.32184443E-01  4.67941348E-01  3.62311985E-01 -1.19332420E-01 -1.60854152E-01
  1.14345644E+00  1.00000000E+00  1.00000000E+00  1.83473713E-03  1.40373228E-02
  6.88426223E-02  2.32184443E-01  4.67941348E-01  3.62311985E-01 -1.19332420E-01
 -1.60854152E-01  1.14345644E+00  1.00000000E+00  1.00000000E+00  1.83473713E-03
  1.40373228E-02  6.88426223E-02  2.32184443E-01  4.67941348E-01  3.62311985E-01
 -1.19332420E-01 -1.60854152E-01  1.14345644E+00  1.00000000E+00  1.00000000E+00
  1.83473713E-03  1.40373228E-02  6.88426223E-02  2.32184443E-01  4.67941348E-01
  3.62311985E-01 -1.19332420E-01 -1.60854152E-01  1.14345644E+00  1.00000000E+00
  1.00000000E+00  3.34946043E-02  2.34726953E-01  8.13757326E-01  1.00000000E+00
  3.34946043E-02  2.34726953E-01  8.13757326E-01  1.00000000E+00  3.34946043E-02
  2.34726953E-01  8.13757326E-01  1.00000000E+00  3.34946043E-02  2.34726953E-01
  8.13757326E-01  1.00000000E+00  3.34946043E-02  2.34726953E-01  8.13757326E-01
  1.00000000E+00  3.34946043E-02  2.34726953E-01  8.13757326E-01  1.00000000E+00
  3.34946043E-02  2.34726953E-01  8.13757326E-01  1.00000000E+00  3.34946043E-02
  2.34726953E-01  8.13757326E-01  1.00000000E+00  3.34946043E-02  2.34726953E-01
  8.13757326E-01  1.00000000E+00
P(S=P) Contraction coefficients            R   N=         102
  0.00000000E+00  0.00000000E+00  0.00000000E+00  0.00000000E+00  0.00000000E+00
  0.00000000E+00  6.75797439E-02  3.23907296E-01  7.40895140E-01  1.00000000E+00
  0.00000000E+00  0.00000000E+00  0.00000000E+00  0.00000000E+00  0.00000000E+00
  0.00000000E+00  0.00000000E+00  6.89990666E-02  3.16423961E-01  7.44308291E-01
  1.00000000E+00  0.00000000E+00  0.00000000E+00  0.00000000E+00  0.00000000E+00
  0.00000000E+00  0.00000000E+00  0.00000000E+00  6.89990666E-02  3.16423961E-01
  7.44308291E-01  1.00000000E+00  0.00000000E+00  0.00000000E+00  0.00000000E+00
  0.00000000E+00  0.00000000E+00  0.00000000E+00  0.00000000E+00  6.89990666E-02
  3.16423961E-01  7.44308291E-01  1.00000000E+00  0.00000000E+00  0.00000000E+00
  0.00000000E+00  0.00000000E+00  0.00000000E+00  0.00000000E+00  0.00000000E+00
  6.89990666E-02  3.16423961E-01  7.44308291E-01  1.00000000E+00  0.00000000E+00
  0.00000000E+00  0.00000000E+00  0.00000000E+00  0.00000000E+00  0.00000000E+00
  0.00000000E+00  6.89990666E-02  3.16423961E-01  7.44308291E-01  1.00000000E+00
  0.00000000E+00  0.00000000E+00  0.00000000E+00  0.00000000E+00  0.00000000E+00
  0.00000000E+00  0.00000000E+00  0.00000000E+00  0.00000000E+00  0.00000000E+00
  0.00000000E+00  0.00000000E+00  0.00000000E+00  0.00000000E+00  0.00000000E+00
  0.00000000E+00  0.00000000E+00  0.00000000E+00  0.00000000E+00  0.00000000E+00
  0.00000000E+00  0.00000000E+00  0.00000000E+00  0.00000000E+00  0.00000000E+00
  0.00000000E+00  0.00000000E+00  0.00000000E+00  0.00000000E+00  0.00000000E+00
  0.00000000E+00  0.00000000E+00  0.00000000E+00  0.00000000E+00  0.00000000E+00
  0.00000000E+00  0.00000000E+00
Coordinates of each shell                  R   N=         126
 -5.19931840E+00  2.71870768E-01 -3.67492204E-01 -5.19931840E+00  2.71870768E-01
 -3.67492204E-01 -5.19931840E+00  2.71870768E-01 -3.67492204E-01 -5.19931840E+00
  2.71870768E-01 -3.67492204E-01  1.44521532E+00  4.97787498E-02 -6.45971498E-01
  1.44521532E+00  4.97787498E-02 -6.45971498E-01  1.44521532E+00  4.97787498E-02
 -6.45971498E-01  1.44521532E+00  4.97787498E-02 -6.45971498E-01 -6.41976050E-01
 -1.54914453E+00  5.95326935E-01 -6.41976050E-01 -1.54914453E+00  5.95326935E-01
 -6.41976050E-01 -1.54914453E+00  5.95326935E-01 -6.41976050E-01 -1.54914453E+00
  5.95326935E-01  1.37716817E+00  2.76990491E+00  3.09607888E-01  1.37716817E+00
  2.76990491E+00  3.09607888E-01  1.37716817E+00  2.76990491E+00  3.09607888E-01
  1.37716817E+00  2.76990491E+00  3.09607888E-01  4.01127990E+00 -1.17545793E+00
 -1.56353271E-01  4.01127990E+00 -1.17545793E+00 -1.56353271E-01  4.01127990E+00
 -1.17545793E+00 -1.56353271E-01  4.01127990E+00 -1.17545793E+00 -1.56353271E-01
 -3.17813640E+00 -5.62156715E-01  8.02833800E-02 -3.17813640E+00 -5.62156715E-01
  8.02833800E-02 -3.17813640E+00 -5.62156715E-01  8.02833800E-02 -3.17813640E+00
 -5.62156715E-01  8.02833800E-02  1.09274333E+00  5.75073624E-02 -2.68969872E+00
  1.09274333E+00  5.75073624E-02 -2.68969872E+00 -5.47339436E-01 -3.50565265E+00
 -7.76375438E-02 -5.47339436E-01 -3.50565265E+00 -7.76375438E-02 -3.54615286E-01
 -1.59714170E+00  2.64806449E+00 -3.54615286E-01 -1.59714170E+00  2.64806449E+00
  1.70684776E+00  2.82635499E+00  2.35311760E+00  1.70684776E+00  2.82635499E+00
  2.35311760E+00  2.85099191E+00  3.89600111E+00 -6.03150323E-01  2.85099191E+00
  3.89600111E+00 -6.03150323E-01 -4.45599569E-01  3.66379635E+00 -7.61933507E-02
 -4.45599569E-01  3.66379635E+00 -7.61933507E-02  4.41458822E+00 -1.22996202E+00
  1.87342606E+00  4.41458822E+00 -1.22996202E+00  1.87342606E+00  5.51884758E+00
 -9.92865535E-02 -1.07370007E+00  5.51884758E+00 -9.92865535E-02 -1.07370007E+00
  4.07745863E+00 -3.11225915E+00 -8.79143313E-01  4.07745863E+00 -3.11225915E+00
 -8.79143313E-01
Constraint Structure                       R   N=          45
 -5.19931840E+00  2.71870768E-01 -3.67492204E-01  1.44521532E+00  4.97787498E-02
 -6.45971498E-01 -6.41976050E-01 -1.54914453E+00  5.95326935E-01  1.37716817E+00
  2.76990491E+00  3.09607888E-01  4.01127990E+00 -1.17545793E+00 -1.56353271E-01
 -3.17813640E+00 -5.62156715E-01  8.02833800E-02  1.09274333E+00  5.75073624E-02
 -2.68969872E+00 -5.47339436E-01 -3.50565265E+00 -7.76375438E-02 -3.54615286E-01
 -1.59714170E+00  2.64806449E+00  1.70684776E+00  2.82635499E+00  2.35311760E+00
  2.85099191E+00  3.89600111E+00 -6.03150323E-01 -4.45599569E-01  3.66379635E+00
 -7.61933507E-02  4.41458822E+00 -1.22996202E+00  1.87342606E+00  5.51884758E+00
 -9.92865535E-02 -1.07370007E+00  4.07745863E+00 -3.11225915E+00 -8.79143313E-01
Num ILSW                                   I              100
ILSW                                       I   N=         100
           0           1           0           0           2           0
           0           0           0           0           0          -1
           0           0           0           0           0           0
           0           0           0           0           1           0
           1           0           0           0           0           0
           0           0      100000           0          -1           0
           0           0           0           0           0           0
           0           0           0           1           1           0
           0           0           1           0           0           0
           0           0           4          40           0           0
           0           0           0           0           0           0
           0           0           0           0           0           0
           0           0           0           0           0           0
           0           0           0           0           0           0
           0           0           0           0           0           0
           0           0           0           0           0           0
           0           0           0           0
Num RLSW                                   I               40
RLSW                                       R   N=          40
  1.00000000E+00  1.00000000E+00  1.00000000E+00  1.00000000E+00  1.00000000E+00
  0.00000000E+00  0.00000000E+00  1.00000000E+00  0.00000000E+00  0.00000000E+00
  0.00000000E+00  0.00000000E+00  1.00000000E+00  0.00000000E+00  0.00000000E+00
  0.00000000E+00  0.00000000E+00  1.00000000E+00  0.00000000E+00  0.00000000E+00
  0.00000000E+00  0.00000000E+00  1.00000000E+00  0.00000000E+00  0.00000000E+00
  0.00000000E+00  0.00000000E+00  1.00000000E+00  0.00000000E+00  0.00000000E+00
  0.00000000E+00  0.00000000E+00  0.00000000E+00  0.00000000E+00  0.00000000E+00
  0.00000000E+00  0.00000000E+00  0.00000000E+00  1.00000000E+00  1.00000000E+00
MxBond                                     I                4
NBond                                      I   N=          15
           1           4           4           4           4           2
           1           1           1           1           1           1
           1           1           1
IBond                                      I   N=          60
           6           0           0           0           3           4
           5           7           2           6           8           9
           2          10          11          12           2          13
          14          15           1           3           0           0
           2           0           0           0           3           0
           0           0           3           0           0           0
           4           0           0           0           4           0
           0           0           4           0           0           0
           5           0           0           0           5           0
           0           0           5           0           0           0
RBond                                      R   N=          60
  3.00000000E+00  0.00000000E+00  0.00000000E+00  0.00000000E+00  1.00000000E+00
  1.00000000E+00  1.00000000E+00  1.00000000E+00  1.00000000E+00  1.00000000E+00
  1.00000000E+00  1.00000000E+00  1.00000000E+00  1.00000000E+00  1.00000000E+00
  1.00000000E+00  1.00000000E+00  1.00000000E+00  1.00000000E+00  1.00000000E+00
  3.00000000E+00  1.00000000E+00  0.00000000E+00  0.00000000E+00  1.00000000E+00
  0.00000000E+00  0.00000000E+00  0.00000000E+00  1.00000000E+00  0.00000000E+00
  0.00000000E+00  0.00000000E+00  1.00000000E+00  0.00000000E+00  0.00000000E+00
  0.00000000E+00  1.00000000E+00  0.00000000E+00  0.00000000E+00  0.00000000E+00
  1.00000000E+00  0.00000000E+00  0.00000000E+00  0.00000000E+00  1.00000000E+00
  0.00000000E+00  0.00000000E+00  0.00000000E+00  1.00000000E+00  0.00000000E+00
  0.00000000E+00  0.00000000E+00  1.00000000E+00  0.00000000E+00  0.00000000E+00
  0.00000000E+00  1.00000000E+00  0.00000000E+00  0.00000000E+00  0.00000000E+00
Virial Ratio                               R      2.002244458291512E+00
SCF Energy                                 R     -2.490269855599034E+02
MP2 Energy                                 R     -2.498389420437505E+02
Total Energy                               R     -2.498389420437505E+02
Post-SCF wavefunction norm                 R      1.603322989817769E+00
RMS Force                                  R      4.571761480450599E-07
RMS Density                                R      2.978311300394626E-09
External E-field                           R   N=          35
  0.00000000E+00  0.00000000E+00  0.00000000E+00  0.00000000E+00  0.00000000E+00
  0.00000000E+00  0.00000000E+00  0.00000000E+00  0.00000000E+00  0.00000000E+00
  0.00000000E+00  0.00000000E+00  0.00000000E+00  0.00000000E+00  0.00000000E+00
  0.00000000E+00  0.00000000E+00  0.00000000E+00  0.00000000E+00  0.00000000E+00
  0.00000000E+00  0.00000000E+00  0.00000000E+00  0.00000000E+00  0.00000000E+00
  0.00000000E+00  0.00000000E+00  0.00000000E+00  0.00000000E+00  0.00000000E+00
  0.00000000E+00  0.00000000E+00  0.00000000E+00  0.00000000E+00  0.00000000E+00
IOpCl                                      I                0
IROHF                                      I                0
Alpha Orbital Energies                     R   N=         108
 -1.55790669E+01 -1.12824077E+01 -1.12807406E+01 -1.12571736E+01 -1.12339181E+01
 -1.12271025E+01 -1.20326244E+00 -1.11898511E+00 -9.94387365E-01 -9.48122738E-01
 -8.05731654E-01 -7.05535378E-01 -6.60369491E-01 -6.23112176E-01 -5.94137325E-01
 -5.64890251E-01 -5.52391073E-01 -5.39963641E-01 -5.10563535E-01 -4.94660401E-01
 -4.90123302E-01 -4.43573245E-01 -4.39720296E-01  1.85989808E-01  1.98864155E-01
  2.23049343E-01  2.59663675E-01  2.72357367E-01  2.82830373E-01  2.92304738E-01
  3.12129476E-01  3.14693401E-01  3.31744204E-01  3.49300273E-01  3.89159908E-01
  4.04659151E-01  4.10174972E-01  4.40108111E-01  5.15332210E-01  6.94199682E-01
  7.01397026E-01  7.11461752E-01  7.43444068E-01  7.76187846E-01  8.31207201E-01
  8.41779563E-01  8.74883087E-01  8.86421633E-01  9.23970063E-01  9.51596007E-01
  9.59681326E-01  1.00929259E+00  1.02303016E+00  1.07534106E+00  1.08393632E+00
  1.10395010E+00  1.13437812E+00  1.14381436E+00  1.14905772E+00  1.15581105E+00
  1.18034715E+00  1.19238108E+00  1.19825731E+00  1.21525153E+00  1.25020418E+00
  1.26742301E+00  1.29429705E+00  1.48357264E+00  1.62231991E+00  1.64076275E+00
  1.67436775E+00  1.73375474E+00  1.77734104E+00  1.80725848E+00  1.81899031E+00
  1.87806626E+00  1.97833234E+00  2.03410839E+00  2.07233537E+00  2.12368008E+00
  2.16605828E+00  2.23265655E+00  2.25069202E+00  2.26707906E+00  2.29573066E+00
  2.31420826E+00  2.38787641E+00  2.40220739E+00  2.43670478E+00  2.50923248E+00
  2.55752249E+00  2.56903437E+00  2.59112147E+00  2.77788058E+00  2.79551771E+00
  2.84179615E+00  2.96194343E+00  3.03334518E+00  3.09385380E+00  3.12298219E+00
  3.20947274E+00  3.59408015E+00  4.46127160E+00  4.54284375E+00  4.64619353E+00
  4.70472686E+00  4.90844299E+00  5.08581771E+00
Alpha MO coefficients                      R   N=       11664
  9.95386151E-01  2.43885586E-02  2.25348802E-03 -9.34956140E-04  5.00015200E-04
 -7.28042697E-03 -2.48563662E-03  1.02155088E-03 -5.52069616E-04 -1.97118573E-03
 -2.92342903E-03 -3.06487432E-03 -5.50701563E-04  2.96187802E-04 -1.19522551E-04
  6.18624956E-06  3.21986136E-05 -9.39933281E-07  1.04817779E-05 -7.03855253E-06
 -3.50862896E-04  9.41767647E-05  1.46356200E-04 -4.77837873E-05  6.06491977E-06
  2.45778352E-06  3.30463917E-07 -1.42170017E-05  1.02396754E-05  8.95887057E-06
 -1.70604879E-05 -3.00805349E-04 -2.44283219E-04  1.01003351E-04 -5.62589465E-05
  3.65978633E-03 -1.52537455E-03  6.34205850E-04 -3.39386415E-04  3.40759841E-04
  4.36349543E-05  7.43030491E-06 -1.41643477E-04  7.15221350E-05 -3.30610434E-05
 -1.29614440E-07 -6.18854031E-06 -7.76047027E-06 -2.20018972E-05  6.84636098E-06
  9.71091455E-05 -3.55306460E-05  1.10259526E-04 -4.30327829E-05  9.63415075E-06
 -2.83447383E-06  1.35683581E-06  2.42853105E-06  1.16673503E-06 -3.22669837E-06
 -1.25247816E-05 -6.24817293E-05  1.95476548E-05  1.12888676E-05 -1.30453507E-05
  2.61872380E-04 -2.62737033E-04 -9.51179465E-05  9.85171431E-05  4.53081492E-06
 -2.59298550E-05 -1.65550520E-05  2.02827226E-06 -1.98655969E-06  1.03813982E-05
  8.46688735E-05  3.15010386E-04  7.11252798E-04 -3.17273591E-04  1.67678768E-04
  2.43200756E-03 -5.27958938E-03  2.20078285E-03 -1.15945047E-03 -1.05980476E-03
 -7.64343747E-05  5.51999072E-05  5.49286645E-04 -2.92811697E-04  1.14430966E-04
  3.12108778E-05 -1.95488818E-05 -5.22711908E-05 -2.49375218E-05 -5.35794354E-05
 -2.47648903E-05  4.74978267E-06  1.31773514E-05 -8.35788099E-06 -5.69132697E-05
  2.10710095E-05 -1.86846360E-04 -3.83620229E-05 -1.00098015E-05  9.61494454E-06
  1.12858443E-04 -3.45922082E-05 -1.16341180E-05 -6.65671246E-04  4.64685061E-04
 -3.10142839E-05  5.18690857E-07  2.16397168E-06 -9.11808668E-03 -2.85014615E-03
  1.36624770E-03 -7.42889896E-04  3.77743211E-04  2.29556045E-04  2.34206123E-04
 -2.44156934E-05  1.17154028E-05  3.84695498E-06  2.36429310E-03 -3.98656715E-05
  1.64148506E-04 -4.31280084E-05  1.33464318E-05 -9.67763601E-05 -1.49167737E-03
  2.37054731E-04 -2.63788675E-04 -4.81713534E-05 -9.07212880E-05 -7.14942825E-05
  1.43249047E-05 -1.28496333E-06 -3.01296787E-05  2.23254698E-01  6.29508141E-03
  2.36603033E-04 -8.28069807E-05  7.64578650E-05  5.14853180E-03 -3.95120747E-03
  1.13731595E-03 -6.62864461E-04 -1.24448052E-03 -7.01520512E-04 -5.95629771E-04
  2.71704449E-04 -1.31440847E-04  1.22471278E-04 -9.42183932E-05 -1.08970420E-04
  1.26900623E-04  8.42791447E-05 -4.47434809E-05  1.49921839E-04 -2.18208874E-04
 -3.71101846E-04  4.07049813E-04 -3.17794070E-05 -2.31520343E-05 -7.79569835E-05
 -4.26575042E-05 -2.35053543E-06  9.21276535E-06 -8.42884995E-05 -2.96049864E-04
  7.88102564E-06  5.17731296E-05 -4.18506174E-05  1.95167418E-03 -9.48657761E-04
  1.04693565E-05  2.07471877E-04  1.93183409E-06 -8.29892091E-05 -8.42473363E-05
 -2.33404333E-05 -1.10743879E-05 -4.65810370E-06  9.70194697E-01  2.66034243E-02
  4.91744045E-04 -8.28795083E-05  5.77524698E-05 -4.91867833E-03 -9.93966458E-03
  3.65028145E-03 -1.94674012E-03 -8.11394306E-04 -2.31369709E-03 -2.48697668E-03
 -8.19667559E-04  4.43199263E-04 -1.54302307E-04 -1.45859693E-04 -3.46174437E-05
 -2.01197571E-04  6.72422933E-04 -1.88755052E-04  8.33916210E-04 -3.02866747E-05
 -2.95232254E-04  5.57346124E-05  3.26112764E-04 -1.01746731E-04  2.10386422E-04
 -1.09172391E-04 -2.06695239E-04 -3.27371482E-05  2.31780389E-04 -8.36072460E-05
 -1.91498237E-04  1.64388901E-04  3.72665662E-06  2.42549650E-04 -9.80402568E-05
  4.89254707E-05  4.05855850E-03  9.44882862E-04 -4.66401928E-04  2.87886536E-04
  3.15208135E-05 -6.41972199E-05 -8.41363635E-05 -6.94084285E-05  4.62064250E-05
 -2.32239689E-05  1.17859297E-02  4.37209963E-04 -2.04434409E-04 -5.27940942E-05
  6.43374872E-05  3.68920177E-03 -1.02355433E-03 -1.59638670E-03  5.17624546E-04
 -2.20473997E-04 -2.49719015E-04 -1.49736898E-04 -9.84421564E-05  1.03238862E-04
  8.37097231E-05  9.70483751E-01  2.81785546E-02 -7.90453651E-04  3.30880870E-04
 -1.15443523E-04 -2.19723910E-02  2.67897361E-03 -1.89046416E-03  9.64859418E-04
 -1.21175415E-03 -1.40038998E-03 -1.42416529E-03 -1.20015968E-04  8.57653524E-05
  2.84190918E-05 -1.21118740E-04 -3.24101267E-04  3.89346611E-05  9.78421818E-05
 -5.59882947E-05  1.22580290E-03 -3.70122051E-04 -5.76537833E-04  2.94058279E-04
 -8.82682679E-05 -2.24109534E-05 -7.91489885E-05  5.90747894E-05 -3.38406062E-05
 -1.27515697E-05 -2.68798423E-05 -4.10401852E-05  5.61088554E-05  2.90979019E-06
 -2.56234936E-06 -4.01426587E-04  4.04482630E-04 -1.26006763E-04  1.41078584E-04
 -1.62471041E-05  1.06725648E-05 -1.18929192E-05  3.34626671E-05 -4.58661869E-05
 -4.23977359E-05 -2.23665438E-01 -5.97909780E-03 -1.16714047E-04  6.99597088E-05
 -2.03209866E-05  6.49125275E-03  6.80290031E-03 -2.52985784E-03  1.27884442E-03
 -7.01912348E-04  2.20941326E-04  3.86159785E-04  5.53571658E-04 -2.85849298E-04
  1.36844906E-04 -1.54213710E-04  7.47766309E-06  3.60452165E-04  2.43965195E-03
  3.94357255E-04  2.60777113E-03 -1.20556101E-04 -2.97289704E-04 -2.60073046E-05
  3.81123713E-04 -5.89007303E-05 -3.15005061E-04  3.14954507E-05 -2.42054052E-04
 -6.31009611E-06  8.85380042E-05  4.45802905E-05 -2.26901809E-04 -1.49801371E-06
 -9.53870085E-06  1.30775720E-05 -5.65404531E-06 -9.06020167E-06  1.88015715E-04
  4.01714859E-05  1.03863702E-05  8.25965942E-05  9.12726194E-06 -5.31039481E-06
  8.72172891E-06  3.17159094E-06  1.37569646E-05  5.60436665E-06  9.95796516E-01
  2.86228524E-02 -1.25346467E-04 -1.37043309E-04  2.52719046E-04 -1.99822403E-02
  1.37900236E-05  1.40183369E-04 -1.47641342E-03 -1.36305238E-03 -1.35362277E-03
 -1.28496496E-03 -1.97036020E-05  3.86166780E-05  1.21364181E-05 -1.22910686E-02
 -2.59572037E-04  1.30742198E-04  6.23782240E-05 -4.23427127E-05  4.72820175E-03
  1.74628118E-03  1.26681634E-03 -6.53509827E-04 -2.94297946E-04 -2.14787831E-04
 -1.59848248E-04 -1.49181396E-04  1.72475524E-04  1.34195296E-04  9.91570144E-03
  3.08167576E-04  4.22793791E-06 -1.53684363E-04 -1.77660640E-05  4.60814266E-03
  7.54359428E-05 -2.02968300E-03 -5.34575234E-04 -1.38554312E-04 -4.06129019E-04
 -1.59172615E-04 -3.65642714E-06  1.57657659E-05 -1.77441504E-04  1.28096591E-02
  4.18697875E-04 -1.43864379E-04  6.08853565E-05  1.42713926E-05  4.46852471E-03
 -1.78989299E-03  9.04128311E-04 -2.21968048E-04 -4.11229414E-04 -1.96552911E-04
 -1.12627466E-04  1.40677857E-04 -1.09759487E-04  5.78414718E-05  2.98915027E-04
 -1.78877585E-04 -7.25921795E-05  3.97725816E-05  1.00592037E-05  7.73866317E-05
  2.28673691E-04 -2.33286899E-04 -5.31494436E-05  2.52777214E-05 -2.57326686E-05
 -6.74144839E-05  4.51279525E-05 -4.07444760E-05 -7.63836392E-05  3.02133578E-04
  2.58680858E-03 -1.25305117E-04 -9.81074289E-05 -1.98650240E-04 -1.09464086E-04
 -1.82031324E-04 -2.51945206E-05 -1.45258694E-04 -9.20200497E-05 -1.59717523E-04
 -3.02622149E-05 -1.73237152E-04  9.86333641E-07 -1.46526054E-04 -1.17627772E-04
 -1.45694491E-04 -5.61171088E-05 -2.98320732E-05 -1.16083006E-04  6.04150408E-06
  3.04185462E-06 -3.66845781E-06  1.66946941E-03  3.84002156E-04 -1.75971756E-04