80153                                                                   
Freq      RMP2-FC                                                     6-31G(d)            
Number of atoms                            I               20
Info1-9                                    I   N=           9
          32          30        1002           0           0         100
           6           2           1
Charge                                     I                0
Multiplicity                               I                1
Number of electrons                        I               56
Number of alpha electrons                  I               28
Number of beta electrons                   I               28
Number of basis functions                  I              131
Number of independent functions            I              131
Number of point charges in /Mol/           I                0
Number of translation vectors              I                0
Atomic numbers                             I   N=          20
           7           6           6           6           6           6
           6           1           1           1           1           1
           1           1           1           1           1           1
           1           1
Nuclear charges                            R   N=          20
  7.00000000E+00  6.00000000E+00  6.00000000E+00  6.00000000E+00  6.00000000E+00
  6.00000000E+00  6.00000000E+00  1.00000000E+00  1.00000000E+00  1.00000000E+00
  1.00000000E+00  1.00000000E+00  1.00000000E+00  1.00000000E+00  1.00000000E+00
  1.00000000E+00  1.00000000E+00  1.00000000E+00  1.00000000E+00  1.00000000E+00
Current cartesian coordinates              R   N=          60
  5.15661764E+00  6.02356647E-01 -2.36784842E-01  5.91640757E-01 -4.10996129E-01
  8.81060360E-01 -4.79780104E-01  2.14861721E+00 -1.41441246E-02 -1.57790198E+00
 -2.34521598E+00  4.60327364E-01 -3.34701829E+00  1.84342435E+00  1.86199693E-01
 -3.75150001E+00 -8.54256416E-01 -7.66179842E-01  3.02983674E+00 -1.15269136E+00
 -4.84215781E-01  1.01499678E+00 -2.83656315E-01  2.91080344E+00  3.01997682E-02
  2.46201524E+00 -2.00415499E+00  2.52290433E-01  3.75288449E+00  1.06850027E+00
 -2.18939625E+00 -3.14159940E+00  2.27008470E+00 -9.65094280E-01 -3.93818607E+00
 -7.14135591E-01 -4.40030872E+00  3.26490435E+00 -8.87300097E-01 -3.93691776E+00
  1.98885227E+00  2.16864563E+00 -5.61563189E+00 -1.62538787E+00 -3.07645973E-01
 -3.56276946E+00 -8.84205851E-01 -2.82985528E+00  2.62297420E+00 -1.36336092E+00
 -2.50781574E+00  3.66729447E+00 -3.00775622E+00  1.84663656E-01  5.55731048E+00
  8.52980893E-01  1.63153566E+00  4.63706607E+00  2.33272878E+00 -9.04117795E-01
Force Field                                I                0
Int Atom Types                             I   N=          20
           0           0           0           0           0           0
           0           0           0           0           0           0
           0           0           0           0           0           0
           0           0
MM charges                                 R   N=          20
  0.00000000E+00  0.00000000E+00  0.00000000E+00  0.00000000E+00  0.00000000E+00
  0.00000000E+00  0.00000000E+00  0.00000000E+00  0.00000000E+00  0.00000000E+00
  0.00000000E+00  0.00000000E+00  0.00000000E+00  0.00000000E+00  0.00000000E+00
  0.00000000E+00  0.00000000E+00  0.00000000E+00  0.00000000E+00  0.00000000E+00
Integer atomic weights                     I   N=          20
          14          12          12          12          12          12
          12           1           1           1           1           1
           1           1           1           1           1           1
           1           1
Real atomic weights                        R   N=          20
  1.40030740E+01  1.20000000E+01  1.20000000E+01  1.20000000E+01  1.20000000E+01
  1.20000000E+01  1.20000000E+01  1.00782504E+00  1.00782504E+00  1.00782504E+00
  1.00782504E+00  1.00782504E+00  1.00782504E+00  1.00782504E+00  1.00782504E+00
  1.00782504E+00  1.00782504E+00  1.00782504E+00  1.00782504E+00  1.00782504E+00
Atom fragment info                         I   N=          20
           0           0           0           0           0           0
           0           0           0           0           0           0
           0           0           0           0           0           0
           0           0
Atom residue num                           I   N=          20
           0           0           0           0           0           0
           0           0           0           0           0           0
           0           0           0           0           0           0
           0           0
Nuclear spins                              I   N=          20
           2           0           0           0           0           0
           0           1           1           1           1           1
           1           1           1           1           1           1
           1           1
Nuclear ZEff                               R   N=          20
 -4.55000000E+00 -3.60000000E+00 -3.60000000E+00 -3.60000000E+00 -3.60000000E+00
 -3.60000000E+00 -3.60000000E+00 -1.00000000E+00 -1.00000000E+00 -1.00000000E+00
 -1.00000000E+00 -1.00000000E+00 -1.00000000E+00 -1.00000000E+00 -1.00000000E+00
 -1.00000000E+00 -1.00000000E+00 -1.00000000E+00 -1.00000000E+00 -1.00000000E+00
Nuclear QMom                               R   N=          20
  2.04400000E+00  0.00000000E+00  0.00000000E+00  0.00000000E+00  0.00000000E+00
  0.00000000E+00  0.00000000E+00  0.00000000E+00  0.00000000E+00  0.00000000E+00
  0.00000000E+00  0.00000000E+00  0.00000000E+00  0.00000000E+00  0.00000000E+00
  0.00000000E+00  0.00000000E+00  0.00000000E+00  0.00000000E+00  0.00000000E+00
Nuclear GFac                               R   N=          20
  4.03761000E-01  0.00000000E+00  0.00000000E+00  0.00000000E+00  0.00000000E+00
  0.00000000E+00  0.00000000E+00  2.79284600E+00  2.79284600E+00  2.79284600E+00
  2.79284600E+00  2.79284600E+00  2.79284600E+00  2.79284600E+00  2.79284600E+00
  2.79284600E+00  2.79284600E+00  2.79284600E+00  2.79284600E+00  2.79284600E+00
MicOpt                                     I   N=          20
          -1          -1          -1          -1          -1          -1
          -1          -1          -1          -1          -1          -1
          -1          -1          -1          -1          -1          -1
          -1          -1
Number of contracted shells                I               54
Number of primitive shells                 I              129
Pure/Cartesian d shells                    I                1
Pure/Cartesian f shells                    I                0
Highest angular momentum                   I                2
Largest degree of contraction              I                6
Shell types                                I   N=          54
           0          -1          -1           2           0          -1
          -1           2           0          -1          -1           2
           0          -1          -1           2           0          -1
          -1           2           0          -1          -1           2
           0          -1          -1           2           0           0
           0           0           0           0           0           0
           0           0           0           0           0           0
           0           0           0           0           0           0
           0           0           0           0           0           0
Number of primitives per shell             I   N=          54
           6           3           1           1           6           3
           1           1           6           3           1           1
           6           3           1           1           6           3
           1           1           6           3           1           1
           6           3           1           1           3           1
           3           1           3           1           3           1
           3           1           3           1           3           1
           3           1           3           1           3           1
           3           1           3           1           3           1
Shell to atom map                          I   N=          54
           1           1           1           1           2           2
           2           2           3           3           3           3
           4           4           4           4           5           5
           5           5           6           6           6           6
           7           7           7           7           8           8
           9           9          10          10          11          11
          12          12          13          13          14          14
          15          15          16          16          17          17
          18          18          19          19          20          20
Primitive exponents                        R   N=         129
  4.17351146E+03  6.27457911E+02  1.42902093E+02  4.02343293E+01  1.28202129E+01
  4.39043701E+00  1.16263619E+01  2.71627981E+00  7.72218397E-01  2.12031498E-01
  8.00000000E-01  3.04752488E+03  4.57369518E+02  1.03948685E+02  2.92101553E+01
  9.28666296E+00  3.16392696E+00  7.86827235E+00  1.88128854E+00  5.44249258E-01
  1.68714478E-01  8.00000000E-01  3.04752488E+03  4.57369518E+02  1.03948685E+02
  2.92101553E+01  9.28666296E+00  3.16392696E+00  7.86827235E+00  1.88128854E+00
  5.44249258E-01  1.68714478E-01  8.00000000E-01  3.04752488E+03  4.57369518E+02
  1.03948685E+02  2.92101553E+01  9.28666296E+00  3.16392696E+00  7.86827235E+00
  1.88128854E+00  5.44249258E-01  1.68714478E-01  8.00000000E-01  3.04752488E+03
  4.57369518E+02  1.03948685E+02  2.92101553E+01  9.28666296E+00  3.16392696E+00
  7.86827235E+00  1.88128854E+00  5.44249258E-01  1.68714478E-01  8.00000000E-01
  3.04752488E+03  4.57369518E+02  1.03948685E+02  2.92101553E+01  9.28666296E+00
  3.16392696E+00  7.86827235E+00  1.88128854E+00  5.44249258E-01  1.68714478E-01
  8.00000000E-01  3.04752488E+03  4.57369518E+02  1.03948685E+02  2.92101553E+01
  9.28666296E+00  3.16392696E+00  7.86827235E+00  1.88128854E+00  5.44249258E-01
  1.68714478E-01  8.00000000E-01  1.87311370E+01  2.82539436E+00  6.40121692E-01
  1.61277759E-01  1.87311370E+01  2.82539436E+00  6.40121692E-01  1.61277759E-01
  1.87311370E+01  2.82539436E+00  6.40121692E-01  1.61277759E-01  1.87311370E+01
  2.82539436E+00  6.40121692E-01  1.61277759E-01  1.87311370E+01  2.82539436E+00
  6.40121692E-01  1.61277759E-01  1.87311370E+01  2.82539436E+00  6.40121692E-01
  1.61277759E-01  1.87311370E+01  2.82539436E+00  6.40121692E-01  1.61277759E-01
  1.87311370E+01  2.82539436E+00  6.40121692E-01  1.61277759E-01  1.87311370E+01
  2.82539436E+00  6.40121692E-01  1.61277759E-01  1.87311370E+01  2.82539436E+00
  6.40121692E-01  1.61277759E-01  1.87311370E+01  2.82539436E+00  6.40121692E-01
  1.61277759E-01  1.87311370E+01  2.82539436E+00  6.40121692E-01  1.61277759E-01
  1.87311370E+01  2.82539436E+00  6.40121692E-01  1.61277759E-01
Contraction coefficients                   R   N=         129
  1.83477216E-03  1.39946270E-02  6.85865518E-02  2.32240873E-01  4.69069948E-01
  3.60455199E-01 -1.14961182E-01 -1.69117479E-01  1.14585195E+00  1.00000000E+00
  1.00000000E+00  1.83473713E-03  1.40373228E-02  6.88426223E-02  2.32184443E-01
  4.67941348E-01  3.62311985E-01 -1.19332420E-01 -1.60854152E-01  1.14345644E+00
  1.00000000E+00  1.00000000E+00  1.83473713E-03  1.40373228E-02  6.88426223E-02
  2.32184443E-01  4.67941348E-01  3.62311985E-01 -1.19332420E-01 -1.60854152E-01
  1.14345644E+00  1.00000000E+00  1.00000000E+00  1.83473713E-03  1.40373228E-02
  6.88426223E-02  2.32184443E-01  4.67941348E-01  3.62311985E-01 -1.19332420E-01
 -1.60854152E-01  1.14345644E+00  1.00000000E+00  1.00000000E+00  1.83473713E-03
  1.40373228E-02  6.88426223E-02  2.32184443E-01  4.67941348E-01  3.62311985E-01
 -1.19332420E-01 -1.60854152E-01  1.14345644E+00  1.00000000E+00  1.00000000E+00
  1.83473713E-03  1.40373228E-02  6.88426223E-02  2.32184443E-01  4.67941348E-01
  3.62311985E-01 -1.19332420E-01 -1.60854152E-01  1.14345644E+00  1.00000000E+00
  1.00000000E+00  1.83473713E-03  1.40373228E-02  6.88426223E-02  2.32184443E-01
  4.67941348E-01  3.62311985E-01 -1.19332420E-01 -1.60854152E-01  1.14345644E+00
  1.00000000E+00  1.00000000E+00  3.34946043E-02  2.34726953E-01  8.13757326E-01
  1.00000000E+00  3.34946043E-02  2.34726953E-01  8.13757326E-01  1.00000000E+00
  3.34946043E-02  2.34726953E-01  8.13757326E-01  1.00000000E+00  3.34946043E-02
  2.34726953E-01  8.13757326E-01  1.00000000E+00  3.34946043E-02  2.34726953E-01
  8.13757326E-01  1.00000000E+00  3.34946043E-02  2.34726953E-01  8.13757326E-01
  1.00000000E+00  3.34946043E-02  2.34726953E-01  8.13757326E-01  1.00000000E+00
  3.34946043E-02  2.34726953E-01  8.13757326E-01  1.00000000E+00  3.34946043E-02
  2.34726953E-01  8.13757326E-01  1.00000000E+00  3.34946043E-02  2.34726953E-01
  8.13757326E-01  1.00000000E+00  3.34946043E-02  2.34726953E-01  8.13757326E-01
  1.00000000E+00  3.34946043E-02  2.34726953E-01  8.13757326E-01  1.00000000E+00
  3.34946043E-02  2.34726953E-01  8.13757326E-01  1.00000000E+00
P(S=P) Contraction coefficients            R   N=         129
  0.00000000E+00  0.00000000E+00  0.00000000E+00  0.00000000E+00  0.00000000E+00
  0.00000000E+00  6.75797439E-02  3.23907296E-01  7.40895140E-01  1.00000000E+00
  0.00000000E+00  0.00000000E+00  0.00000000E+00  0.00000000E+00  0.00000000E+00
  0.00000000E+00  0.00000000E+00  6.89990666E-02  3.16423961E-01  7.44308291E-01
  1.00000000E+00  0.00000000E+00  0.00000000E+00  0.00000000E+00  0.00000000E+00
  0.00000000E+00  0.00000000E+00  0.00000000E+00  6.89990666E-02  3.16423961E-01
  7.44308291E-01  1.00000000E+00  0.00000000E+00  0.00000000E+00  0.00000000E+00
  0.00000000E+00  0.00000000E+00  0.00000000E+00  0.00000000E+00  6.89990666E-02
  3.16423961E-01  7.44308291E-01  1.00000000E+00  0.00000000E+00  0.00000000E+00
  0.00000000E+00  0.00000000E+00  0.00000000E+00  0.00000000E+00  0.00000000E+00
  6.89990666E-02  3.16423961E-01  7.44308291E-01  1.00000000E+00  0.00000000E+00
  0.00000000E+00  0.00000000E+00  0.00000000E+00  0.00000000E+00  0.00000000E+00
  0.00000000E+00  6.89990666E-02  3.16423961E-01  7.44308291E-01  1.00000000E+00
  0.00000000E+00  0.00000000E+00  0.00000000E+00  0.00000000E+00  0.00000000E+00
  0.00000000E+00  0.00000000E+00  6.89990666E-02  3.16423961E-01  7.44308291E-01
  1.00000000E+00  0.00000000E+00  0.00000000E+00  0.00000000E+00  0.00000000E+00
  0.00000000E+00  0.00000000E+00  0.00000000E+00  0.00000000E+00  0.00000000E+00
  0.00000000E+00  0.00000000E+00  0.00000000E+00  0.00000000E+00  0.00000000E+00
  0.00000000E+00  0.00000000E+00  0.00000000E+00  0.00000000E+00  0.00000000E+00
  0.00000000E+00  0.00000000E+00  0.00000000E+00  0.00000000E+00  0.00000000E+00
  0.00000000E+00  0.00000000E+00  0.00000000E+00  0.00000000E+00  0.00000000E+00
  0.00000000E+00  0.00000000E+00  0.00000000E+00  0.00000000E+00  0.00000000E+00
  0.00000000E+00  0.00000000E+00  0.00000000E+00  0.00000000E+00  0.00000000E+00
  0.00000000E+00  0.00000000E+00  0.00000000E+00  0.00000000E+00  0.00000000E+00
  0.00000000E+00  0.00000000E+00  0.00000000E+00  0.00000000E+00  0.00000000E+00
  0.00000000E+00  0.00000000E+00  0.00000000E+00  0.00000000E+00
Coordinates of each shell                  R   N=         162
  5.15661764E+00  6.02356647E-01 -2.36784842E-01  5.15661764E+00  6.02356647E-01
 -2.36784842E-01  5.15661764E+00  6.02356647E-01 -2.36784842E-01  5.15661764E+00
  6.02356647E-01 -2.36784842E-01  5.91640757E-01 -4.10996129E-01  8.81060360E-01
  5.91640757E-01 -4.10996129E-01  8.81060360E-01  5.91640757E-01 -4.10996129E-01
  8.81060360E-01  5.91640757E-01 -4.10996129E-01  8.81060360E-01 -4.79780104E-01
  2.14861721E+00 -1.41441246E-02 -4.79780104E-01  2.14861721E+00 -1.41441246E-02
 -4.79780104E-01  2.14861721E+00 -1.41441246E-02 -4.79780104E-01  2.14861721E+00
 -1.41441246E-02 -1.57790198E+00 -2.34521598E+00  4.60327364E-01 -1.57790198E+00
 -2.34521598E+00  4.60327364E-01 -1.57790198E+00 -2.34521598E+00  4.60327364E-01
 -1.57790198E+00 -2.34521598E+00  4.60327364E-01 -3.34701829E+00  1.84342435E+00
  1.86199693E-01 -3.34701829E+00  1.84342435E+00  1.86199693E-01 -3.34701829E+00
  1.84342435E+00  1.86199693E-01 -3.34701829E+00  1.84342435E+00  1.86199693E-01
 -3.75150001E+00 -8.54256416E-01 -7.66179842E-01 -3.75150001E+00 -8.54256416E-01
 -7.66179842E-01 -3.75150001E+00 -8.54256416E-01 -7.66179842E-01 -3.75150001E+00
 -8.54256416E-01 -7.66179842E-01  3.02983674E+00 -1.15269136E+00 -4.84215781E-01
  3.02983674E+00 -1.15269136E+00 -4.84215781E-01  3.02983674E+00 -1.15269136E+00
 -4.84215781E-01  3.02983674E+00 -1.15269136E+00 -4.84215781E-01  1.01499678E+00
 -2.83656315E-01  2.91080344E+00  1.01499678E+00 -2.83656315E-01  2.91080344E+00
  3.01997682E-02  2.46201524E+00 -2.00415499E+00  3.01997682E-02  2.46201524E+00
 -2.00415499E+00  2.52290433E-01  3.75288449E+00  1.06850027E+00  2.52290433E-01
  3.75288449E+00  1.06850027E+00 -2.18939625E+00 -3.14159940E+00  2.27008470E+00
 -2.18939625E+00 -3.14159940E+00  2.27008470E+00 -9.65094280E-01 -3.93818607E+00
 -7.14135591E-01 -9.65094280E-01 -3.93818607E+00 -7.14135591E-01 -4.40030872E+00
  3.26490435E+00 -8.87300097E-01 -4.40030872E+00  3.26490435E+00 -8.87300097E-01
 -3.93691776E+00  1.98885227E+00  2.16864563E+00 -3.93691776E+00  1.98885227E+00
  2.16864563E+00 -5.61563189E+00 -1.62538787E+00 -3.07645973E-01 -5.61563189E+00
 -1.62538787E+00 -3.07645973E-01 -3.56276946E+00 -8.84205851E-01 -2.82985528E+00
 -3.56276946E+00 -8.84205851E-01 -2.82985528E+00  2.62297420E+00 -1.36336092E+00
 -2.50781574E+00  2.62297420E+00 -1.36336092E+00 -2.50781574E+00  3.66729447E+00
 -3.00775622E+00  1.84663656E-01  3.66729447E+00 -3.00775622E+00  1.84663656E-01
  5.55731048E+00  8.52980893E-01  1.63153566E+00  5.55731048E+00  8.52980893E-01
  1.63153566E+00  4.63706607E+00  2.33272878E+00 -9.04117795E-01  4.63706607E+00
  2.33272878E+00 -9.04117795E-01
Constraint Structure                       R   N=          60
  5.15661764E+00  6.02356647E-01 -2.36784842E-01  5.91640757E-01 -4.10996129E-01
  8.81060360E-01 -4.79780104E-01  2.14861721E+00 -1.41441246E-02 -1.57790198E+00
 -2.34521598E+00  4.60327364E-01 -3.34701829E+00  1.84342435E+00  1.86199693E-01
 -3.75150001E+00 -8.54256416E-01 -7.66179842E-01  3.02983674E+00 -1.15269136E+00
 -4.84215781E-01  1.01499678E+00 -2.83656315E-01  2.91080344E+00  3.01997682E-02
  2.46201524E+00 -2.00415499E+00  2.52290433E-01  3.75288449E+00  1.06850027E+00
 -2.18939625E+00 -3.14159940E+00  2.27008470E+00 -9.65094280E-01 -3.93818607E+00
 -7.14135591E-01 -4.40030872E+00  3.26490435E+00 -8.87300097E-01 -3.93691776E+00
  1.98885227E+00  2.16864563E+00 -5.61563189E+00 -1.62538787E+00 -3.07645973E-01
 -3.56276946E+00 -8.84205851E-01 -2.82985528E+00  2.62297420E+00 -1.36336092E+00
 -2.50781574E+00  3.66729447E+00 -3.00775622E+00  1.84663656E-01  5.55731048E+00
  8.52980893E-01  1.63153566E+00  4.63706607E+00  2.33272878E+00 -9.04117795E-01
Num ILSW                                   I              100
ILSW                                       I   N=         100
           0           1           0           0           2           0
           0           0           0           0           0          -1
           0           0           0           0           0           0
           0           0           0           0           1           0
           1           0           0           0           0           0
           0           0      100000           0          -1           0
           0           0           0           0           0           0
           0           0           0           1           1           0
           0           0           1           0           0           0
           0           0           4          40           0           0
           0           0           0           0           0           0
           0           0           0           0           0           0
           0           0           0           0           0           0
           0           0           0           0           0           0
           0           0           0           0           0           0
           0           0           0           0           0           0
           0           0           0           0
Num RLSW                                   I               40
RLSW                                       R   N=          40
  1.00000000E+00  1.00000000E+00  1.00000000E+00  1.00000000E+00  1.00000000E+00
  0.00000000E+00  0.00000000E+00  1.00000000E+00  0.00000000E+00  0.00000000E+00
  0.00000000E+00  0.00000000E+00  1.00000000E+00  0.00000000E+00  0.00000000E+00
  0.00000000E+00  0.00000000E+00  1.00000000E+00  0.00000000E+00  0.00000000E+00
  0.00000000E+00  0.00000000E+00  1.00000000E+00  0.00000000E+00  0.00000000E+00
  0.00000000E+00  0.00000000E+00  1.00000000E+00  0.00000000E+00  0.00000000E+00
  0.00000000E+00  0.00000000E+00  0.00000000E+00  0.00000000E+00  0.00000000E+00
  0.00000000E+00  0.00000000E+00  0.00000000E+00  1.00000000E+00  1.00000000E+00
MxBond                                     I                4
NBond                                      I   N=          20
           3           4           4           4           4           4
           4           1           1           1           1           1
           1           1           1           1           1           1
           1           1
IBond                                      I   N=          80
           7          19          20           0           3           4
           7           8           2           5           9          10
           2           6          11          12           3           6
          13          14           4           5          15          16
           1           2          17          18           2           0
           0           0           3           0           0           0
           3           0           0           0           4           0
           0           0           4           0           0           0
           5           0           0           0           5           0
           0           0           6           0           0           0
           6           0           0           0           7           0
           0           0           7           0           0           0
           1           0           0           0           1           0
           0           0
RBond                                      R   N=          80
  1.00000000E+00  1.00000000E+00  1.00000000E+00  0.00000000E+00  1.00000000E+00
  1.00000000E+00  1.00000000E+00  1.00000000E+00  1.00000000E+00  1.00000000E+00
  1.00000000E+00  1.00000000E+00  1.00000000E+00  1.00000000E+00  1.00000000E+00
  1.00000000E+00  1.00000000E+00  1.00000000E+00  1.00000000E+00  1.00000000E+00
  1.00000000E+00  1.00000000E+00  1.00000000E+00  1.00000000E+00  1.00000000E+00
  1.00000000E+00  1.00000000E+00  1.00000000E+00  1.00000000E+00  0.00000000E+00
  0.00000000E+00  0.00000000E+00  1.00000000E+00  0.00000000E+00  0.00000000E+00
  0.00000000E+00  1.00000000E+00  0.00000000E+00  0.00000000E+00  0.00000000E+00
  1.00000000E+00  0.00000000E+00  0.00000000E+00  0.00000000E+00  1.00000000E+00
  0.00000000E+00  0.00000000E+00  0.00000000E+00  1.00000000E+00  0.00000000E+00
  0.00000000E+00  0.00000000E+00  1.00000000E+00  0.00000000E+00  0.00000000E+00
  0.00000000E+00  1.00000000E+00  0.00000000E+00  0.00000000E+00  0.00000000E+00
  1.00000000E+00  0.00000000E+00  0.00000000E+00  0.00000000E+00  1.00000000E+00
  0.00000000E+00  0.00000000E+00  0.00000000E+00  1.00000000E+00  0.00000000E+00
  0.00000000E+00  0.00000000E+00  1.00000000E+00  0.00000000E+00  0.00000000E+00
  0.00000000E+00  1.00000000E+00  0.00000000E+00  0.00000000E+00  0.00000000E+00
Virial Ratio                               R      2.001282113890545E+00
SCF Energy                                 R     -2.892159430503551E+02
MP2 Energy                                 R     -2.901661612702927E+02
Total Energy                               R     -2.901661612702927E+02
Post-SCF wavefunction norm                 R      1.620569391425224E+00
RMS Force                                  R      6.905748982157964E-08
RMS Density                                R      9.276405367479323E-10
External E-field                           R   N=          35
  0.00000000E+00  0.00000000E+00  0.00000000E+00  0.00000000E+00  0.00000000E+00
  0.00000000E+00  0.00000000E+00  0.00000000E+00  0.00000000E+00  0.00000000E+00
  0.00000000E+00  0.00000000E+00  0.00000000E+00  0.00000000E+00  0.00000000E+00
  0.00000000E+00  0.00000000E+00  0.00000000E+00  0.00000000E+00  0.00000000E+00
  0.00000000E+00  0.00000000E+00  0.00000000E+00  0.00000000E+00  0.00000000E+00
  0.00000000E+00  0.00000000E+00  0.00000000E+00  0.00000000E+00  0.00000000E+00
  0.00000000E+00  0.00000000E+00  0.00000000E+00  0.00000000E+00  0.00000000E+00
IOpCl                                      I                0
IROHF                                      I                0
Alpha Orbital Energies                     R   N=         131
 -1.55379560E+01 -1.12417887E+01 -1.12202931E+01 -1.12183454E+01 -1.12176504E+01
 -1.12170506E+01 -1.12164784E+01 -1.17521434E+00 -1.11785585E+00 -9.82668150E-01
 -9.61530694E-01 -8.64058099E-01 -7.82534056E-01 -7.55728389E-01 -6.67432133E-01
 -6.47435359E-01 -6.40920568E-01 -5.79774022E-01 -5.72376990E-01 -5.56849576E-01
 -5.17201151E-01 -4.90553283E-01 -4.78660298E-01 -4.68259679E-01 -4.63802942E-01
 -4.54285810E-01 -4.44735696E-01 -3.77476051E-01  2.15424403E-01  2.33763677E-01
  2.40058571E-01  2.74774468E-01  2.91098714E-01  3.05709292E-01  3.14797566E-01
  3.20122259E-01  3.28250658E-01  3.41140358E-01  3.46649539E-01  3.61469892E-01
  3.65227588E-01  3.77338925E-01  3.80370774E-01  4.36561295E-01  4.60413096E-01
  4.65183094E-01  4.96431641E-01  5.11783039E-01  7.20013876E-01  7.41215299E-01
  7.55098880E-01  7.82966647E-01  7.86526089E-01  8.06985018E-01  8.17905166E-01
  8.87254503E-01  9.06260361E-01  9.32497556E-01  9.40751412E-01  9.52810623E-01
  9.65985335E-01  1.00414897E+00  1.01530121E+00  1.04971497E+00  1.05149216E+00
  1.08480526E+00  1.12497867E+00  1.13084725E+00  1.13448763E+00  1.15125477E+00
  1.15886788E+00  1.17057117E+00  1.17335453E+00  1.19390444E+00  1.20115526E+00
  1.21006535E+00  1.23035425E+00  1.23457268E+00  1.24617032E+00  1.25186928E+00
  1.29745736E+00  1.39474321E+00  1.43431993E+00  1.48999173E+00  1.57499676E+00
  1.62671583E+00  1.65266110E+00  1.79229455E+00  1.85365419E+00  1.89272624E+00
  1.90335891E+00  1.95732471E+00  2.01397408E+00  2.09758836E+00  2.13073437E+00
  2.14233026E+00  2.20448268E+00  2.22309307E+00  2.23079612E+00  2.29677727E+00
  2.31890264E+00  2.34651408E+00  2.36509833E+00  2.37304488E+00  2.38803926E+00
  2.42412924E+00  2.44389618E+00  2.50189547E+00  2.52747525E+00  2.59078218E+00
  2.64149085E+00  2.70363402E+00  2.73272448E+00  2.74230484E+00  2.76886797E+00
  2.83299063E+00  2.87097069E+00  2.89852807E+00  2.93948604E+00  2.99574018E+00
  3.01749247E+00  3.09508764E+00  3.14446761E+00  3.22411235E+00  4.21919481E+00
  4.59811565E+00  4.70247443E+00  4.71026198E+00  4.85451865E+00  4.98872969E+00
  5.12164275E+00
Alpha MO coefficients                      R   N=       17161
  9.95050767E-01  2.48625146E-02 -1.22114356E-03  5.18444019E-04  7.45553755E-04
 -2.67800036E-03  1.17579240E-03 -2.13264616E-04 -5.20253482E-04 -3.27483104E-03
 -3.32241485E-03 -3.29400586E-03 -1.06865393E-04 -9.81019702E-05  5.52402370E-05
 -1.28474810E-05 -5.53166025E-06 -1.20755898E-04 -5.73449077E-05  7.79184481E-06
 -3.29118182E-04  2.64816085E-04  5.31245720E-04  2.28655168E-04 -8.79098449E-05
 -4.28455960E-05 -4.02185106E-05 -3.03070038E-05 -2.65374577E-06 -2.74755447E-06
  5.09994295E-06  4.92781749E-05 -3.17045172E-05 -2.63255383E-06  1.23382130E-06
 -2.73306852E-04 -1.56989319E-05  9.22256279E-05 -1.20010393E-04 -4.43069997E-05
  1.37976810E-05 -7.52613778E-07  1.62902953E-05 -6.07169192E-06  6.82453381E-06
 -1.68537513E-05 -8.89625859E-05  3.93910160E-06  8.08997287E-06  1.01805855E-06
  6.37651710E-04  3.10457977E-04  2.18134571E-04  1.22235596E-05  5.63707095E-06
 -4.27015139E-06 -3.06437038E-05  3.26053803E-05  2.21670819E-06  1.48587288E-06
 -5.88133789E-06 -2.90547266E-05  4.33138228E-07 -2.46286663E-06  8.18286861E-06
  1.91604880E-04  7.63800185E-05 -2.64894514E-05 -4.11604053E-05  9.23223191E-06
 -1.13698211E-05 -1.25346647E-05  1.50382066E-06  1.67820449E-06  5.73124778E-06
 -4.85515382E-08  2.39240871E-07 -1.16916548E-05  7.56762224E-07 -1.77494759E-06
 -9.41379000E-05 -2.85976590E-05 -5.75669567E-05 -8.57851742E-06 -1.87884798E-06
  2.45554850E-06 -4.27376535E-06  7.03911698E-07 -1.44668792E-06 -5.59680749E-06
 -1.91925979E-05  1.80653533E-04  2.08102408E-04  1.49408979E-04  2.35867041E-05
  1.59428003E-03  1.82144259E-04  4.79780221E-04  1.46027386E-04 -1.46272697E-04
 -1.26228516E-04 -9.62178455E-05 -4.96178512E-05 -1.52644200E-05  6.98514015E-06
 -2.49785597E-05 -1.93605421E-04  2.20520547E-05 -1.29971821E-04  4.70880072E-06
  3.44305421E-06 -2.20550406E-05  2.35180493E-05 -3.51481692E-05  2.06807038E-05
 -6.50701779E-06 -1.58036630E-05 -3.90060056E-06  1.74469084E-05 -4.65223576E-06
  2.21939774E-05  2.30751426E-06  4.11899303E-06 -8.12138925E-05 -1.26234855E-04
 -6.59453646E-05 -8.08773131E-05  3.17125929E-04  5.83982132E-04  3.12262157E-04
  6.31870676E-04 -2.26215111E-04  1.38657606E-05 -2.34087310E-05  1.91043276E-05
  2.97595028E-05  3.27466970E-03 -1.03333657E-03 -6.87715827E-04 -1.31706709E-04
 -4.02208056E-04 -3.85675785E-04 -1.12659010E-04 -3.20695057E-04 -4.71214985E-05