19421043                                                                
Freq      RMP2-FC                                                     6-31G(d)            
Number of atoms                            I               26
Info1-9                                    I   N=           9
          38          36        1002           0           0         100
           6           2           1
Charge                                     I                0
Multiplicity                               I                1
Number of electrons                        I               98
Number of alpha electrons                  I               49
Number of beta electrons                   I               49
Number of basis functions                  I              234
Number of independent functions            I              234
Number of point charges in /Mol/           I                0
Number of translation vectors              I                0
Atomic numbers                             I   N=          26
           7           7           6           6           6           6
           6           6           6           6           6           6
           6           6           1           1           1           1
           1           1           1           1           1           1
           1           1
Nuclear charges                            R   N=          26
  7.00000000E+00  7.00000000E+00  6.00000000E+00  6.00000000E+00  6.00000000E+00
  6.00000000E+00  6.00000000E+00  6.00000000E+00  6.00000000E+00  6.00000000E+00
  6.00000000E+00  6.00000000E+00  6.00000000E+00  6.00000000E+00  1.00000000E+00
  1.00000000E+00  1.00000000E+00  1.00000000E+00  1.00000000E+00  1.00000000E+00
  1.00000000E+00  1.00000000E+00  1.00000000E+00  1.00000000E+00  1.00000000E+00
  1.00000000E+00
Current cartesian coordinates              R   N=          78
  1.88903506E+00  3.34894519E+00  6.05536541E-01 -2.80746368E+00  1.59798872E+00
 -1.16866846E+00  7.95596804E-01 -1.06245672E+00 -1.45218418E-01  2.63790442E+00
  8.70632418E-01  1.74484927E-01 -1.94942246E+00 -5.44525648E-01 -6.05515816E-02
  1.59182247E+00 -3.55930806E+00 -5.33479208E-01  5.20241752E+00  1.68115653E-01
  2.05237151E-01  4.14083906E+00 -4.22025154E+00 -5.28802786E-01  5.94169586E+00
 -2.33560443E+00 -1.47767893E-01 -3.60459477E+00 -2.24918760E+00  1.12577128E+00
 -6.19301346E+00 -1.78337499E+00  1.08868187E+00  3.73260470E+00  5.37259911E+00
  4.70961462E-01 -5.30923246E+00  2.03641610E+00 -1.16399210E+00 -7.07479471E+00
  4.00773758E-01 -9.39306484E-02  1.69738308E-01 -5.00385539E+00 -8.82681981E-01
  6.64528451E+00  1.60114046E+00  4.72907677E-01  2.13803421E-01  3.73645183E+00
 -2.52138819E-01  4.70892691E+00 -6.16757360E+00 -8.49644351E-01  7.94379650E+00
 -2.80322292E+00 -1.32054545E-01 -2.85011158E+00 -3.89688348E+00  2.08882634E+00
 -7.49753355E+00 -3.08647674E+00  1.99600611E+00  4.81979376E+00  5.38801569E+00
 -1.30184896E+00  5.06539322E+00  5.24631239E+00  2.04652576E+00  2.72521399E+00
  7.16511688E+00  6.42566391E-01 -5.90899330E+00  3.78209289E+00 -2.07343099E+00
 -9.07724965E+00  8.47376211E-01 -1.61473513E-01
Force Field                                I                0
Int Atom Types                             I   N=          26
           0           0           0           0           0           0
           0           0           0           0           0           0
           0           0           0           0           0           0
           0           0           0           0           0           0
           0           0
MM charges                                 R   N=          26
  0.00000000E+00  0.00000000E+00  0.00000000E+00  0.00000000E+00  0.00000000E+00
  0.00000000E+00  0.00000000E+00  0.00000000E+00  0.00000000E+00  0.00000000E+00
  0.00000000E+00  0.00000000E+00  0.00000000E+00  0.00000000E+00  0.00000000E+00
  0.00000000E+00  0.00000000E+00  0.00000000E+00  0.00000000E+00  0.00000000E+00
  0.00000000E+00  0.00000000E+00  0.00000000E+00  0.00000000E+00  0.00000000E+00
  0.00000000E+00
Integer atomic weights                     I   N=          26
          14          14          12          12          12          12
          12          12          12          12          12          12
          12          12           1           1           1           1
           1           1           1           1           1           1
           1           1
Real atomic weights                        R   N=          26
  1.40030740E+01  1.40030740E+01  1.20000000E+01  1.20000000E+01  1.20000000E+01
  1.20000000E+01  1.20000000E+01  1.20000000E+01  1.20000000E+01  1.20000000E+01
  1.20000000E+01  1.20000000E+01  1.20000000E+01  1.20000000E+01  1.00782504E+00
  1.00782504E+00  1.00782504E+00  1.00782504E+00  1.00782504E+00  1.00782504E+00
  1.00782504E+00  1.00782504E+00  1.00782504E+00  1.00782504E+00  1.00782504E+00
  1.00782504E+00
Atom fragment info                         I   N=          26
           0           0           0           0           0           0
           0           0           0           0           0           0
           0           0           0           0           0           0
           0           0           0           0           0           0
           0           0
Atom residue num                           I   N=          26
           0           0           0           0           0           0
           0           0           0           0           0           0
           0           0           0           0           0           0
           0           0           0           0           0           0
           0           0
Nuclear spins                              I   N=          26
           2           2           0           0           0           0
           0           0           0           0           0           0
           0           0           1           1           1           1
           1           1           1           1           1           1
           1           1
Nuclear ZEff                               R   N=          26
 -4.55000000E+00 -4.55000000E+00 -3.60000000E+00 -3.60000000E+00 -3.60000000E+00
 -3.60000000E+00 -3.60000000E+00 -3.60000000E+00 -3.60000000E+00 -3.60000000E+00
 -3.60000000E+00 -3.60000000E+00 -3.60000000E+00 -3.60000000E+00 -1.00000000E+00
 -1.00000000E+00 -1.00000000E+00 -1.00000000E+00 -1.00000000E+00 -1.00000000E+00
 -1.00000000E+00 -1.00000000E+00 -1.00000000E+00 -1.00000000E+00 -1.00000000E+00
 -1.00000000E+00
Nuclear QMom                               R   N=          26
  2.04400000E+00  2.04400000E+00  0.00000000E+00  0.00000000E+00  0.00000000E+00
  0.00000000E+00  0.00000000E+00  0.00000000E+00  0.00000000E+00  0.00000000E+00
  0.00000000E+00  0.00000000E+00  0.00000000E+00  0.00000000E+00  0.00000000E+00
  0.00000000E+00  0.00000000E+00  0.00000000E+00  0.00000000E+00  0.00000000E+00
  0.00000000E+00  0.00000000E+00  0.00000000E+00  0.00000000E+00  0.00000000E+00
  0.00000000E+00
Nuclear GFac                               R   N=          26
  4.03761000E-01  4.03761000E-01  0.00000000E+00  0.00000000E+00  0.00000000E+00
  0.00000000E+00  0.00000000E+00  0.00000000E+00  0.00000000E+00  0.00000000E+00
  0.00000000E+00  0.00000000E+00  0.00000000E+00  0.00000000E+00  2.79284600E+00
  2.79284600E+00  2.79284600E+00  2.79284600E+00  2.79284600E+00  2.79284600E+00
  2.79284600E+00  2.79284600E+00  2.79284600E+00  2.79284600E+00  2.79284600E+00
  2.79284600E+00
MicOpt                                     I   N=          26
          -1          -1          -1          -1          -1          -1
          -1          -1          -1          -1          -1          -1
          -1          -1          -1          -1          -1          -1
          -1          -1          -1          -1          -1          -1
          -1          -1
Number of contracted shells                I               80
Number of primitive shells                 I              202
Pure/Cartesian d shells                    I                1
Pure/Cartesian f shells                    I                0
Highest angular momentum                   I                2
Largest degree of contraction              I                6
Shell types                                I   N=          80
           0          -1          -1           2           0          -1
          -1           2           0          -1          -1           2
           0          -1          -1           2           0          -1
          -1           2           0          -1          -1           2
           0          -1          -1           2           0          -1
          -1           2           0          -1          -1           2
           0          -1          -1           2           0          -1
          -1           2           0          -1          -1           2
           0          -1          -1           2           0          -1
          -1           2           0           0           0           0
           0           0           0           0           0           0
           0           0           0           0           0           0
           0           0           0           0           0           0
           0           0
Number of primitives per shell             I   N=          80
           6           3           1           1           6           3
           1           1           6           3           1           1
           6           3           1           1           6           3
           1           1           6           3           1           1
           6           3           1           1           6           3
           1           1           6           3           1           1
           6           3           1           1           6           3
           1           1           6           3           1           1
           6           3           1           1           6           3
           1           1           3           1           3           1
           3           1           3           1           3           1
           3           1           3           1           3           1
           3           1           3           1           3           1
           3           1
Shell to atom map                          I   N=          80
           1           1           1           1           2           2
           2           2           3           3           3           3
           4           4           4           4           5           5
           5           5           6           6           6           6
           7           7           7           7           8           8
           8           8           9           9           9           9
          10          10          10          10          11          11
          11          11          12          12          12          12
          13          13          13          13          14          14
          14          14          15          15          16          16
          17          17          18          18          19          19
          20          20          21          21          22          22
          23          23          24          24          25          25
          26          26
Primitive exponents                        R   N=         202
  4.17351146E+03  6.27457911E+02  1.42902093E+02  4.02343293E+01  1.28202129E+01
  4.39043701E+00  1.16263619E+01  2.71627981E+00  7.72218397E-01  2.12031498E-01
  8.00000000E-01  4.17351146E+03  6.27457911E+02  1.42902093E+02  4.02343293E+01
  1.28202129E+01  4.39043701E+00  1.16263619E+01  2.71627981E+00  7.72218397E-01
  2.12031498E-01  8.00000000E-01  3.04752488E+03  4.57369518E+02  1.03948685E+02
  2.92101553E+01  9.28666296E+00  3.16392696E+00  7.86827235E+00  1.88128854E+00
  5.44249258E-01  1.68714478E-01  8.00000000E-01  3.04752488E+03  4.57369518E+02
  1.03948685E+02  2.92101553E+01  9.28666296E+00  3.16392696E+00  7.86827235E+00
  1.88128854E+00  5.44249258E-01  1.68714478E-01  8.00000000E-01  3.04752488E+03
  4.57369518E+02  1.03948685E+02  2.92101553E+01  9.28666296E+00  3.16392696E+00
  7.86827235E+00  1.88128854E+00  5.44249258E-01  1.68714478E-01  8.00000000E-01
  3.04752488E+03  4.57369518E+02  1.03948685E+02  2.92101553E+01  9.28666296E+00
  3.16392696E+00  7.86827235E+00  1.88128854E+00  5.44249258E-01  1.68714478E-01
  8.00000000E-01  3.04752488E+03  4.57369518E+02  1.03948685E+02  2.92101553E+01
  9.28666296E+00  3.16392696E+00  7.86827235E+00  1.88128854E+00  5.44249258E-01
  1.68714478E-01  8.00000000E-01  3.04752488E+03  4.57369518E+02  1.03948685E+02
  2.92101553E+01  9.28666296E+00  3.16392696E+00  7.86827235E+00  1.88128854E+00
  5.44249258E-01  1.68714478E-01  8.00000000E-01  3.04752488E+03  4.57369518E+02
  1.03948685E+02  2.92101553E+01  9.28666296E+00  3.16392696E+00  7.86827235E+00
  1.88128854E+00  5.44249258E-01  1.68714478E-01  8.00000000E-01  3.04752488E+03
  4.57369518E+02  1.03948685E+02  2.92101553E+01  9.28666296E+00  3.16392696E+00
  7.86827235E+00  1.88128854E+00  5.44249258E-01  1.68714478E-01  8.00000000E-01
  3.04752488E+03  4.57369518E+02  1.03948685E+02  2.92101553E+01  9.28666296E+00
  3.16392696E+00  7.86827235E+00  1.88128854E+00  5.44249258E-01  1.68714478E-01
  8.00000000E-01  3.04752488E+03  4.57369518E+02  1.03948685E+02  2.92101553E+01
  9.28666296E+00  3.16392696E+00  7.86827235E+00  1.88128854E+00  5.44249258E-01
  1.68714478E-01  8.00000000E-01  3.04752488E+03  4.57369518E+02  1.03948685E+02
  2.92101553E+01  9.28666296E+00  3.16392696E+00  7.86827235E+00  1.88128854E+00
  5.44249258E-01  1.68714478E-01  8.00000000E-01  3.04752488E+03  4.57369518E+02
  1.03948685E+02  2.92101553E+01  9.28666296E+00  3.16392696E+00  7.86827235E+00
  1.88128854E+00  5.44249258E-01  1.68714478E-01  8.00000000E-01  1.87311370E+01
  2.82539436E+00  6.40121692E-01  1.61277759E-01  1.87311370E+01  2.82539436E+00
  6.40121692E-01  1.61277759E-01  1.87311370E+01  2.82539436E+00  6.40121692E-01
  1.61277759E-01  1.87311370E+01  2.82539436E+00  6.40121692E-01  1.61277759E-01
  1.87311370E+01  2.82539436E+00  6.40121692E-01  1.61277759E-01  1.87311370E+01
  2.82539436E+00  6.40121692E-01  1.61277759E-01  1.87311370E+01  2.82539436E+00
  6.40121692E-01  1.61277759E-01  1.87311370E+01  2.82539436E+00  6.40121692E-01
  1.61277759E-01  1.87311370E+01  2.82539436E+00  6.40121692E-01  1.61277759E-01
  1.87311370E+01  2.82539436E+00  6.40121692E-01  1.61277759E-01  1.87311370E+01
  2.82539436E+00  6.40121692E-01  1.61277759E-01  1.87311370E+01  2.82539436E+00
  6.40121692E-01  1.61277759E-01
Contraction coefficients                   R   N=         202
  1.83477216E-03  1.39946270E-02  6.85865518E-02  2.32240873E-01  4.69069948E-01
  3.60455199E-01 -1.14961182E-01 -1.69117479E-01  1.14585195E+00  1.00000000E+00
  1.00000000E+00  1.83477216E-03  1.39946270E-02  6.85865518E-02  2.32240873E-01
  4.69069948E-01  3.60455199E-01 -1.14961182E-01 -1.69117479E-01  1.14585195E+00
  1.00000000E+00  1.00000000E+00  1.83473713E-03  1.40373228E-02  6.88426223E-02
  2.32184443E-01  4.67941348E-01  3.62311985E-01 -1.19332420E-01 -1.60854152E-01
  1.14345644E+00  1.00000000E+00  1.00000000E+00  1.83473713E-03  1.40373228E-02
  6.88426223E-02  2.32184443E-01  4.67941348E-01  3.62311985E-01 -1.19332420E-01
 -1.60854152E-01  1.14345644E+00  1.00000000E+00  1.00000000E+00  1.83473713E-03
  1.40373228E-02  6.88426223E-02  2.32184443E-01  4.67941348E-01  3.62311985E-01
 -1.19332420E-01 -1.60854152E-01  1.14345644E+00  1.00000000E+00  1.00000000E+00
  1.83473713E-03  1.40373228E-02  6.88426223E-02  2.32184443E-01  4.67941348E-01
  3.62311985E-01 -1.19332420E-01 -1.60854152E-01  1.14345644E+00  1.00000000E+00
  1.00000000E+00  1.83473713E-03  1.40373228E-02  6.88426223E-02  2.32184443E-01
  4.67941348E-01  3.62311985E-01 -1.19332420E-01 -1.60854152E-01  1.14345644E+00
  1.00000000E+00  1.00000000E+00  1.83473713E-03  1.40373228E-02  6.88426223E-02
  2.32184443E-01  4.67941348E-01  3.62311985E-01 -1.19332420E-01 -1.60854152E-01
  1.14345644E+00  1.00000000E+00  1.00000000E+00  1.83473713E-03  1.40373228E-02
  6.88426223E-02  2.32184443E-01  4.67941348E-01  3.62311985E-01 -1.19332420E-01
 -1.60854152E-01  1.14345644E+00  1.00000000E+00  1.00000000E+00  1.83473713E-03
  1.40373228E-02  6.88426223E-02  2.32184443E-01  4.67941348E-01  3.62311985E-01
 -1.19332420E-01 -1.60854152E-01  1.14345644E+00  1.00000000E+00  1.00000000E+00
  1.83473713E-03  1.40373228E-02  6.88426223E-02  2.32184443E-01  4.67941348E-01
  3.62311985E-01 -1.19332420E-01 -1.60854152E-01  1.14345644E+00  1.00000000E+00
  1.00000000E+00  1.83473713E-03  1.40373228E-02  6.88426223E-02  2.32184443E-01
  4.67941348E-01  3.62311985E-01 -1.19332420E-01 -1.60854152E-01  1.14345644E+00
  1.00000000E+00  1.00000000E+00  1.83473713E-03  1.40373228E-02  6.88426223E-02
  2.32184443E-01  4.67941348E-01  3.62311985E-01 -1.19332420E-01 -1.60854152E-01
  1.14345644E+00  1.00000000E+00  1.00000000E+00  1.83473713E-03  1.40373228E-02
  6.88426223E-02  2.32184443E-01  4.67941348E-01  3.62311985E-01 -1.19332420E-01
 -1.60854152E-01  1.14345644E+00  1.00000000E+00  1.00000000E+00  3.34946043E-02
  2.34726953E-01  8.13757326E-01  1.00000000E+00  3.34946043E-02  2.34726953E-01
  8.13757326E-01  1.00000000E+00  3.34946043E-02  2.34726953E-01  8.13757326E-01
  1.00000000E+00  3.34946043E-02  2.34726953E-01  8.13757326E-01  1.00000000E+00
  3.34946043E-02  2.34726953E-01  8.13757326E-01  1.00000000E+00  3.34946043E-02
  2.34726953E-01  8.13757326E-01  1.00000000E+00  3.34946043E-02  2.34726953E-01
  8.13757326E-01  1.00000000E+00  3.34946043E-02  2.34726953E-01  8.13757326E-01
  1.00000000E+00  3.34946043E-02  2.34726953E-01  8.13757326E-01  1.00000000E+00
  3.34946043E-02  2.34726953E-01  8.13757326E-01  1.00000000E+00  3.34946043E-02
  2.34726953E-01  8.13757326E-01  1.00000000E+00  3.34946043E-02  2.34726953E-01
  8.13757326E-01  1.00000000E+00
P(S=P) Contraction coefficients            R   N=         202
  0.00000000E+00  0.00000000E+00  0.00000000E+00  0.00000000E+00  0.00000000E+00
  0.00000000E+00  6.75797439E-02  3.23907296E-01  7.40895140E-01  1.00000000E+00
  0.00000000E+00  0.00000000E+00  0.00000000E+00  0.00000000E+00  0.00000000E+00
  0.00000000E+00  0.00000000E+00  6.75797439E-02  3.23907296E-01  7.40895140E-01
  1.00000000E+00  0.00000000E+00  0.00000000E+00  0.00000000E+00  0.00000000E+00
  0.00000000E+00  0.00000000E+00  0.00000000E+00  6.89990666E-02  3.16423961E-01
  7.44308291E-01  1.00000000E+00  0.00000000E+00  0.00000000E+00  0.00000000E+00
  0.00000000E+00  0.00000000E+00  0.00000000E+00  0.00000000E+00  6.89990666E-02
  3.16423961E-01  7.44308291E-01  1.00000000E+00  0.00000000E+00  0.00000000E+00
  0.00000000E+00  0.00000000E+00  0.00000000E+00  0.00000000E+00  0.00000000E+00
  6.89990666E-02  3.16423961E-01  7.44308291E-01  1.00000000E+00  0.00000000E+00
  0.00000000E+00  0.00000000E+00  0.00000000E+00  0.00000000E+00  0.00000000E+00
  0.00000000E+00  6.89990666E-02  3.16423961E-01  7.44308291E-01  1.00000000E+00
  0.00000000E+00  0.00000000E+00  0.00000000E+00  0.00000000E+00  0.00000000E+00
  0.00000000E+00  0.00000000E+00  6.89990666E-02  3.16423961E-01  7.44308291E-01
  1.00000000E+00  0.00000000E+00  0.00000000E+00  0.00000000E+00  0.00000000E+00
  0.00000000E+00  0.00000000E+00  0.00000000E+00  6.89990666E-02  3.16423961E-01
  7.44308291E-01  1.00000000E+00  0.00000000E+00  0.00000000E+00  0.00000000E+00
  0.00000000E+00  0.00000000E+00  0.00000000E+00  0.00000000E+00  6.89990666E-02
  3.16423961E-01  7.44308291E-01  1.00000000E+00  0.00000000E+00  0.00000000E+00
  0.00000000E+00  0.00000000E+00  0.00000000E+00  0.00000000E+00  0.00000000E+00
  6.89990666E-02  3.16423961E-01  7.44308291E-01  1.00000000E+00  0.00000000E+00
  0.00000000E+00  0.00000000E+00  0.00000000E+00  0.00000000E+00  0.00000000E+00
  0.00000000E+00  6.89990666E-02  3.16423961E-01  7.44308291E-01  1.00000000E+00
  0.00000000E+00  0.00000000E+00  0.00000000E+00  0.00000000E+00  0.00000000E+00
  0.00000000E+00  0.00000000E+00  6.89990666E-02  3.16423961E-01  7.44308291E-01
  1.00000000E+00  0.00000000E+00  0.00000000E+00  0.00000000E+00  0.00000000E+00
  0.00000000E+00  0.00000000E+00  0.00000000E+00  6.89990666E-02  3.16423961E-01
  7.44308291E-01  1.00000000E+00  0.00000000E+00  0.00000000E+00  0.00000000E+00
  0.00000000E+00  0.00000000E+00  0.00000000E+00  0.00000000E+00  6.89990666E-02
  3.16423961E-01  7.44308291E-01  1.00000000E+00  0.00000000E+00  0.00000000E+00
  0.00000000E+00  0.00000000E+00  0.00000000E+00  0.00000000E+00  0.00000000E+00
  0.00000000E+00  0.00000000E+00  0.00000000E+00  0.00000000E+00  0.00000000E+00
  0.00000000E+00  0.00000000E+00  0.00000000E+00  0.00000000E+00  0.00000000E+00
  0.00000000E+00  0.00000000E+00  0.00000000E+00  0.00000000E+00  0.00000000E+00
  0.00000000E+00  0.00000000E+00  0.00000000E+00  0.00000000E+00  0.00000000E+00
  0.00000000E+00  0.00000000E+00  0.00000000E+00  0.00000000E+00  0.00000000E+00
  0.00000000E+00  0.00000000E+00  0.00000000E+00  0.00000000E+00  0.00000000E+00
  0.00000000E+00  0.00000000E+00  0.00000000E+00  0.00000000E+00  0.00000000E+00
  0.00000000E+00  0.00000000E+00  0.00000000E+00  0.00000000E+00  0.00000000E+00
  0.00000000E+00  0.00000000E+00
Coordinates of each shell                  R   N=         240
  1.88903506E+00  3.34894519E+00  6.05536541E-01  1.88903506E+00  3.34894519E+00
  6.05536541E-01  1.88903506E+00  3.34894519E+00  6.05536541E-01  1.88903506E+00
  3.34894519E+00  6.05536541E-01 -2.80746368E+00  1.59798872E+00 -1.16866846E+00
 -2.80746368E+00  1.59798872E+00 -1.16866846E+00 -2.80746368E+00  1.59798872E+00
 -1.16866846E+00 -2.80746368E+00  1.59798872E+00 -1.16866846E+00  7.95596804E-01
 -1.06245672E+00 -1.45218418E-01  7.95596804E-01 -1.06245672E+00 -1.45218418E-01
  7.95596804E-01 -1.06245672E+00 -1.45218418E-01  7.95596804E-01 -1.06245672E+00
 -1.45218418E-01  2.63790442E+00  8.70632418E-01  1.74484927E-01  2.63790442E+00
  8.70632418E-01  1.74484927E-01  2.63790442E+00  8.70632418E-01  1.74484927E-01
  2.63790442E+00  8.70632418E-01  1.74484927E-01 -1.94942246E+00 -5.44525648E-01
 -6.05515816E-02 -1.94942246E+00 -5.44525648E-01 -6.05515816E-02 -1.94942246E+00
 -5.44525648E-01 -6.05515816E-02 -1.94942246E+00 -5.44525648E-01 -6.05515816E-02
  1.59182247E+00 -3.55930806E+00 -5.33479208E-01  1.59182247E+00 -3.55930806E+00
 -5.33479208E-01  1.59182247E+00 -3.55930806E+00 -5.33479208E-01  1.59182247E+00
 -3.55930806E+00 -5.33479208E-01  5.20241752E+00  1.68115653E-01  2.05237151E-01
  5.20241752E+00  1.68115653E-01  2.05237151E-01  5.20241752E+00  1.68115653E-01
  2.05237151E-01  5.20241752E+00  1.68115653E-01  2.05237151E-01  4.14083906E+00
 -4.22025154E+00 -5.28802786E-01  4.14083906E+00 -4.22025154E+00 -5.28802786E-01
  4.14083906E+00 -4.22025154E+00 -5.28802786E-01  4.14083906E+00 -4.22025154E+00
 -5.28802786E-01  5.94169586E+00 -2.33560443E+00 -1.47767893E-01  5.94169586E+00
 -2.33560443E+00 -1.47767893E-01  5.94169586E+00 -2.33560443E+00 -1.47767893E-01
  5.94169586E+00 -2.33560443E+00 -1.47767893E-01 -3.60459477E+00 -2.24918760E+00
  1.12577128E+00 -3.60459477E+00 -2.24918760E+00  1.12577128E+00 -3.60459477E+00
 -2.24918760E+00  1.12577128E+00 -3.60459477E+00 -2.24918760E+00  1.12577128E+00
 -6.19301346E+00 -1.78337499E+00  1.08868187E+00 -6.19301346E+00 -1.78337499E+00
  1.08868187E+00 -6.19301346E+00 -1.78337499E+00  1.08868187E+00 -6.19301346E+00
 -1.78337499E+00  1.08868187E+00  3.73260470E+00  5.37259911E+00  4.70961462E-01
  3.73260470E+00  5.37259911E+00  4.70961462E-01  3.73260470E+00  5.37259911E+00
  4.70961462E-01  3.73260470E+00  5.37259911E+00  4.70961462E-01 -5.30923246E+00
  2.03641610E+00 -1.16399210E+00 -5.30923246E+00  2.03641610E+00 -1.16399210E+00
 -5.30923246E+00  2.03641610E+00 -1.16399210E+00 -5.30923246E+00  2.03641610E+00
 -1.16399210E+00 -7.07479471E+00  4.00773758E-01 -9.39306484E-02 -7.07479471E+00
  4.00773758E-01 -9.39306484E-02 -7.07479471E+00  4.00773758E-01 -9.39306484E-02
 -7.07479471E+00  4.00773758E-01 -9.39306484E-02  1.69738308E-01 -5.00385539E+00
 -8.82681981E-01  1.69738308E-01 -5.00385539E+00 -8.82681981E-01  6.64528451E+00
  1.60114046E+00  4.72907677E-01  6.64528451E+00  1.60114046E+00  4.72907677E-01
  2.13803421E-01  3.73645183E+00 -2.52138819E-01  2.13803421E-01  3.73645183E+00
 -2.52138819E-01  4.70892691E+00 -6.16757360E+00 -8.49644351E-01  4.70892691E+00
 -6.16757360E+00 -8.49644351E-01  7.94379650E+00 -2.80322292E+00 -1.32054545E-01
  7.94379650E+00 -2.80322292E+00 -1.32054545E-01 -2.85011158E+00 -3.89688348E+00
  2.08882634E+00 -2.85011158E+00 -3.89688348E+00  2.08882634E+00 -7.49753355E+00
 -3.08647674E+00  1.99600611E+00 -7.49753355E+00 -3.08647674E+00  1.99600611E+00
  4.81979376E+00  5.38801569E+00 -1.30184896E+00  4.81979376E+00  5.38801569E+00
 -1.30184896E+00  5.06539322E+00  5.24631239E+00  2.04652576E+00  5.06539322E+00
  5.24631239E+00  2.04652576E+00  2.72521399E+00  7.16511688E+00  6.42566391E-01
  2.72521399E+00  7.16511688E+00  6.42566391E-01 -5.90899330E+00  3.78209289E+00
 -2.07343099E+00 -5.90899330E+00  3.78209289E+00 -2.07343099E+00 -9.07724965E+00
  8.47376211E-01 -1.61473513E-01 -9.07724965E+00  8.47376211E-01 -1.61473513E-01
Constraint Structure                       R   N=          78
  1.88903506E+00  3.34894519E+00  6.05536541E-01 -2.80746368E+00  1.59798872E+00
 -1.16866846E+00  7.95596804E-01 -1.06245672E+00 -1.45218418E-01  2.63790442E+00
  8.70632418E-01  1.74484927E-01 -1.94942246E+00 -5.44525648E-01 -6.05515816E-02
  1.59182247E+00 -3.55930806E+00 -5.33479208E-01  5.20241752E+00  1.68115653E-01
  2.05237151E-01  4.14083906E+00 -4.22025154E+00 -5.28802786E-01  5.94169586E+00
 -2.33560443E+00 -1.47767893E-01 -3.60459477E+00 -2.24918760E+00  1.12577128E+00
 -6.19301346E+00 -1.78337499E+00  1.08868187E+00  3.73260470E+00  5.37259911E+00
  4.70961462E-01 -5.30923246E+00  2.03641610E+00 -1.16399210E+00 -7.07479471E+00
  4.00773758E-01 -9.39306484E-02  1.69738308E-01 -5.00385539E+00 -8.82681981E-01
  6.64528451E+00  1.60114046E+00  4.72907677E-01  2.13803421E-01  3.73645183E+00
 -2.52138819E-01  4.70892691E+00 -6.16757360E+00 -8.49644351E-01  7.94379650E+00
 -2.80322292E+00 -1.32054545E-01 -2.85011158E+00 -3.89688348E+00  2.08882634E+00
 -7.49753355E+00 -3.08647674E+00  1.99600611E+00  4.81979376E+00  5.38801569E+00
 -1.30184896E+00  5.06539322E+00  5.24631239E+00  2.04652576E+00  2.72521399E+00
  7.16511688E+00  6.42566391E-01 -5.90899330E+00  3.78209289E+00 -2.07343099E+00
 -9.07724965E+00  8.47376211E-01 -1.61473513E-01
Num ILSW                                   I              100
ILSW                                       I   N=         100
           0           1           0           0           2           0
           0           0           0           0           0          -1
           0           0           0           0           0           0
           0           0           0           0           1           0
           1           0           0           0           0           0
           0           0      100000           0          -1           0
           0           0           0           0           0           0
           0           0           0           1           1           0
           0           0           1           0           0           0
           0           0           4          40           0           0
           0           0           0           0           0           0
           0           0           0           0           0           0
           0           0           0           0           0           0
           0           0           0           0           0           0
           0           0           0           0           0           0
           0           0           0           0           0           0
           0           0           0           0
Num RLSW                                   I               40
RLSW                                       R   N=          40
  1.00000000E+00  1.00000000E+00  1.00000000E+00  1.00000000E+00  1.00000000E+00
  0.00000000E+00  0.00000000E+00  1.00000000E+00  0.00000000E+00  0.00000000E+00
  0.00000000E+00  0.00000000E+00  1.00000000E+00  0.00000000E+00  0.00000000E+00
  0.00000000E+00  0.00000000E+00  1.00000000E+00  0.00000000E+00  0.00000000E+00
  0.00000000E+00  0.00000000E+00  1.00000000E+00  0.00000000E+00  0.00000000E+00
  0.00000000E+00  0.00000000E+00  1.00000000E+00  0.00000000E+00  0.00000000E+00
  0.00000000E+00  0.00000000E+00  0.00000000E+00  0.00000000E+00  0.00000000E+00
  0.00000000E+00  0.00000000E+00  0.00000000E+00  1.00000000E+00  1.00000000E+00
MxBond                                     I                4
NBond                                      I   N=          26
           3           2           3           3           3           3
           3           3           3           3           3           4
           3           3           1           1           1           1
           1           1           1           1           1           1
           1           1
IBond                                      I   N=         104
           4          12          17           0           5          13
           0           0           4           5           6           0
           1           3           7           0           2           3
          10           0           3           8          15           0
           4           9          16           0           6           9
          18           0           7           8          19           0
           5          11          20           0          10          14
          21           0           1          22          23          24
           2          14          25           0          11          13