
    -----------------------------------------------------------------------
          Psi4: An Open-Source Ab Initio Electronic Structure Package
                               Psi4 1.3.2 release

                         Git: Rev {HEAD} ecbda83 


    R. M. Parrish, L. A. Burns, D. G. A. Smith, A. C. Simmonett,
    A. E. DePrince III, E. G. Hohenstein, U. Bozkaya, A. Yu. Sokolov,
    R. Di Remigio, R. M. Richard, J. F. Gonthier, A. M. James,
    H. R. McAlexander, A. Kumar, M. Saitow, X. Wang, B. P. Pritchard,
    P. Verma, H. F. Schaefer III, K. Patkowski, R. A. King, E. F. Valeev,
    F. A. Evangelista, J. M. Turney, T. D. Crawford, and C. D. Sherrill,
    J. Chem. Theory Comput. 13(7) pp 3185--3197 (2017).
    (doi: 10.1021/acs.jctc.7b00174)


                         Additional Contributions by
    P. Kraus, H. Kruse, M. H. Lechner, M. C. Schieber, R. A. Shaw,
    A. Alenaizan, R. Galvelis, Z. L. Glick, S. Lehtola, and J. P. Misiewicz

    -----------------------------------------------------------------------


    Psi4 started on: Wednesday, 04 November 2020 11:53AM

    Process ID: 3981
    Host:       node142.bme.utexas.edu
    PSIDATADIR: /home/xy3866/psi4conda/share/psi4
    Memory:     500.0 MiB
    Threads:    8
    
  ==> Input File <==

--------------------------------------------------------------------------
#psi4
#
memory 32 gb

molecule  {
0 1
  C       -2.5063559    -1.4191482     0.0001352
  C       -0.1785650    -0.3909870     0.0002200
  C       -1.6028750    -0.2271810    -0.0000330
  C        0.4037930     0.9065250    -0.0001510
  C       -1.8343220     1.1308500    -0.0000640
  C        2.0432510    -1.3188980     0.0000320
  C        2.5978260    -0.0201320    -0.0000760
  C        0.6688440    -1.5149670    -0.0002860
  C        1.7894520     1.1098640     0.0002960
  N       -0.6328400     1.8116850    -0.0001020
  H        2.7093930    -2.1785160    -0.0003580
  H        3.6789480     0.0978590     0.0002690
  H        0.2537760    -2.5213680    -0.0000660
  H        2.2194000     2.1097800     0.0002850
  H       -3.6376700    -0.9013790    -0.0001930
  H       -2.5281620    -1.9588410     0.8832840
  H       -2.7737480     1.6710560    -0.0003610
  H       -0.5326520     2.8176750    -0.0001200
  H       -2.5278290    -1.9594320    -0.8825300
units angstrom
no_reorient  #important for SAPT in psi4, default
symmetry c1  #important for SAPT in psi4, default
}

set PROPERTIES_ORIGIN ["COM"]
properties('MP2/aug-cc-pvtz', properties = ['dipole'])
--------------------------------------------------------------------------

  Memory set to  29.802 GiB by Python driver.
    SCF Algorithm Type (re)set to DF.

*** tstart() called on node142.bme.utexas.edu
*** at Wed Nov  4 11:53:50 2020

   => Loading Basis Set <=

    Name: AUG-CC-PVTZ
    Role: ORBITAL
    Keyword: BASIS
    atoms 1-9   entry C          line   235 file /home/xy3866/psi4conda/share/psi4/basis/aug-cc-pvtz.gbs 
    atoms 10    entry N          line   281 file /home/xy3866/psi4conda/share/psi4/basis/aug-cc-pvtz.gbs 
    atoms 11-19 entry H          line    36 file /home/xy3866/psi4conda/share/psi4/basis/aug-cc-pvtz.gbs 


         ---------------------------------------------------------
                                   SCF
               by Justin Turney, Rob Parrish, Andy Simmonett
                          and Daniel G. A. Smith
                              RHF Reference
                        8 Threads,  30517 MiB Core
         ---------------------------------------------------------

  ==> Geometry <==

    Molecular point group: c1
    Full point group: C1

    Geometry (in Angstrom), charge = 0, multiplicity = 1:

       Center              X                  Y                   Z               Mass       
    ------------   -----------------  -----------------  -----------------  -----------------
         C           -2.541052224303    -1.431317031773     0.000137780768    12.000000000000
         C           -0.213261324303    -0.403155831773     0.000222580768    12.000000000000
         C           -1.637571324303    -0.239349831773    -0.000030419232    12.000000000000
         C            0.369096675697     0.894356168227    -0.000148419232    12.000000000000
         C           -1.869018324303     1.118681168227    -0.000061419232    12.000000000000
         C            2.008554675697    -1.331066831773     0.000034580768    12.000000000000
         C            2.563129675697    -0.032300831773    -0.000073419232    12.000000000000
         C            0.634147675697    -1.527135831773    -0.000283419232    12.000000000000
         C            1.754755675697     1.097695168227     0.000298580768    12.000000000000
         N           -0.667536324303     1.799516168227    -0.000099419232    14.003074004430
         H            2.674696675697    -2.190684831773    -0.000355419232     1.007825032230
         H            3.644251675697     0.085690168227     0.000271580768     1.007825032230
         H            0.219079675697    -2.533536831773    -0.000063419232     1.007825032230
         H            2.184703675697     2.097611168227     0.000287580768     1.007825032230
         H           -3.672366324303    -0.913547831773    -0.000190419232     1.007825032230
         H           -2.562858324303    -1.971009831773     0.883286580768     1.007825032230
         H           -2.808444324303     1.658887168227    -0.000358419232     1.007825032230
         H           -0.567348324303     2.805506168227    -0.000117419232     1.007825032230
         H           -2.562525324303    -1.971600831773    -0.882527419232     1.007825032230

  Running in c1 symmetry.

  Rotational constants: A =      0.08536  B =      0.04309  C =      0.02879 [cm^-1]
  Rotational constants: A =   2558.88859  B =   1291.69327  C =    862.99583 [MHz]
  Nuclear repulsion =  483.748903948415261

  Charge       = 0
  Multiplicity = 1
  Electrons    = 70
  Nalpha       = 35
  Nbeta        = 35

  ==> Algorithm <==

  SCF Algorithm Type is DF.
  DIIS enabled.
  MOM disabled.
  Fractional occupation disabled.
  Guess Type is SAD.
  Energy threshold   = 1.00e-10
  Density threshold  = 1.00e-10
  Integral threshold = 0.00e+00

  ==> Primary Basis <==

  Basis Set: AUG-CC-PVTZ
    Blend: AUG-CC-PVTZ
    Number of shells: 221
    Number of basis function: 667
    Number of Cartesian functions: 775
    Spherical Harmonics?: true
    Max angular momentum: 3

   => Loading Basis Set <=

    Name: (AUG-CC-PVTZ AUX)
    Role: JKFIT
    Keyword: DF_BASIS_SCF
    atoms 1-9   entry C          line   162 file /home/xy3866/psi4conda/share/psi4/basis/aug-cc-pvtz-jkfit.gbs 
    atoms 10    entry N          line   224 file /home/xy3866/psi4conda/share/psi4/basis/aug-cc-pvtz-jkfit.gbs 
    atoms 11-19 entry H          line    70 file /home/xy3866/psi4conda/share/psi4/basis/aug-cc-pvtz-jkfit.gbs 

  ==> Pre-Iterations <==

   -------------------------------------------------------
    Irrep   Nso     Nmo     Nalpha   Nbeta   Ndocc  Nsocc
   -------------------------------------------------------
     A        667     667       0       0       0       0
   -------------------------------------------------------
    Total     667     667      35      35      35       0
   -------------------------------------------------------

  ==> Integral Setup <==

  DFHelper Memory: AOs need 4.720 GiB; user supplied 22.352 GiB. Using in-core AOs.

  ==> MemDFJK: Density-Fitted J/K Matrices <==

    J tasked:                   Yes
    K tasked:                   Yes
    wK tasked:                   No
    OpenMP threads:               8
    Memory [MiB]:             22888
    Algorithm:                 Disk
    Schwarz Cutoff:           1E-12
    Mask sparsity (%):       4.8097
    Fitting Condition:        1E-10

   => Auxiliary Basis Set <=

  Basis Set: (AUG-CC-PVTZ AUX)
    Blend: AUG-CC-PVTZ-JKFIT
    Number of shells: 426
    Number of basis function: 1454
    Number of Cartesian functions: 1805
    Spherical Harmonics?: true
    Max angular momentum: 4

  Minimum eigenvalue in the overlap matrix is 5.0225408417E-07.
  Using Symmetric Orthogonalization.

  SCF Guess: Superposition of Atomic Densities via on-the-fly atomic UHF.

  ==> Iterations <==

                           Total Energy        Delta E     RMS |[F,P]|

   @DF-RHF iter SAD:  -400.45014467840366   -4.00450e+02   0.00000e+00 
   @DF-RHF iter   1:  -400.30374396980187    1.46401e-01   1.06153e-03 DIIS
   @DF-RHF iter   2:  -400.54394516333218   -2.40201e-01   5.50039e-04 DIIS
   @DF-RHF iter   3:  -400.61203548273778   -6.80903e-02   1.27365e-04 DIIS
   @DF-RHF iter   4:  -400.61648713312229   -4.45165e-03   5.58214e-05 DIIS
   @DF-RHF iter   5:  -400.61729279265205   -8.05660e-04   9.16413e-06 DIIS
   @DF-RHF iter   6:  -400.61733197086176   -3.91782e-05   4.31584e-06 DIIS
   @DF-RHF iter   7:  -400.61734099072265   -9.01986e-06   1.55495e-06 DIIS
   @DF-RHF iter   8:  -400.61734313935790   -2.14864e-06   6.67662e-07 DIIS
   @DF-RHF iter   9:  -400.61734356934767   -4.29990e-07   3.12158e-07 DIIS
   @DF-RHF iter  10:  -400.61734366906705   -9.97194e-08   1.36929e-07 DIIS
   @DF-RHF iter  11:  -400.61734369502256   -2.59555e-08   6.08239e-08 DIIS
   @DF-RHF iter  12:  -400.61734369919691   -4.17435e-09   2.68709e-08 DIIS
   @DF-RHF iter  13:  -400.61734369983924   -6.42331e-10   8.82440e-09 DIIS
   @DF-RHF iter  14:  -400.61734369989330   -5.40581e-11   3.00492e-09 DIIS
   @DF-RHF iter  15:  -400.61734369990000   -6.70752e-12   1.10784e-09 DIIS
   @DF-RHF iter  16:  -400.61734369990052   -5.11591e-13   5.67753e-10 DIIS
   @DF-RHF iter  17:  -400.61734369990307   -2.55795e-12   2.99804e-10 DIIS
   @DF-RHF iter  18:  -400.61734369990120    1.87583e-12   1.20348e-10 DIIS
   @DF-RHF iter  19:  -400.61734369990103    1.70530e-13   5.01036e-11 DIIS
  Energy and wave function converged.


  ==> Post-Iterations <==

    Orbital Energies [Eh]
    ---------------------

    Doubly Occupied:                                                      

       1A    -15.601651     2A    -11.268655     3A    -11.264641  
       4A    -11.231818     5A    -11.230476     6A    -11.229325  
       7A    -11.225687     8A    -11.223787     9A    -11.221286  
      10A    -11.219564    11A     -1.292876    12A     -1.127234  
      13A     -1.073272    14A     -0.997323    15A     -0.984130  
      16A     -0.935397    17A     -0.839393    18A     -0.803759  
      19A     -0.757383    20A     -0.721529    21A     -0.659601  
      22A     -0.644663    23A     -0.611641    24A     -0.600273  
      25A     -0.593060    26A     -0.571504    27A     -0.564318  
      28A     -0.549928    29A     -0.514622    30A     -0.490107  
      31A     -0.463386    32A     -0.452952    33A     -0.377321  
      34A     -0.298840    35A     -0.279672  

    Virtual:                                                              

      36A      0.024752    37A      0.031608    38A      0.032780  
      39A      0.043002    40A      0.044898    41A      0.048095  
      42A      0.061670    43A      0.063628    44A      0.075704  
      45A      0.082874    46A      0.088128    47A      0.097847  
      48A      0.105617    49A      0.105775    50A      0.108391  
      51A      0.116177    52A      0.116535    53A      0.117348  
      54A      0.123934    55A      0.126257    56A      0.128595  
      57A      0.132994    58A      0.133578    59A      0.140491  
      60A      0.147451    61A      0.148939    62A      0.150965  
      63A      0.156123    64A      0.158114    65A      0.159126  
      66A      0.164892    67A      0.172918    68A      0.173408  
      69A      0.180249    70A      0.181308    71A      0.195288  
      72A      0.196923    73A      0.211814    74A      0.211851  
      75A      0.213746    76A      0.218457    77A      0.219556  
      78A      0.229504    79A      0.239021    80A      0.249233  
      81A      0.250191    82A      0.253373    83A      0.263060  
      84A      0.268458    85A      0.269831    86A      0.278219  
      87A      0.285099    88A      0.294218    89A      0.303005  
      90A      0.305454    91A      0.314586    92A      0.317918  
      93A      0.320129    94A      0.326462    95A      0.331799  
      96A      0.337900    97A      0.340187    98A      0.343005  
      99A      0.346591   100A      0.347860   101A      0.355286  
     102A      0.355944   103A      0.363154   104A      0.368613  
     105A      0.370322   106A      0.372624   107A      0.379295  
     108A      0.386255   109A      0.395746   110A      0.402303  
     111A      0.403787   112A      0.407475   113A      0.415187  
     114A      0.421910   115A      0.427011   116A      0.427140  
     117A      0.432902   118A      0.438068   119A      0.443147  
     120A      0.443882   121A      0.456117   122A      0.462275  
     123A      0.465362   124A      0.465551   125A      0.471941  
     126A      0.474181   127A      0.479091   128A      0.486971  
     129A      0.487766   130A      0.492267   131A      0.493659  
     132A      0.497917   133A      0.504203   134A      0.510442  
     135A      0.513079   136A      0.515844   137A      0.517681  
     138A      0.519201   139A      0.523798   140A      0.528040  
     141A      0.535551   142A      0.540245   143A      0.544435  
     144A      0.545565   145A      0.552658   146A      0.557866  
     147A      0.560590   148A      0.567415   149A      0.572441  
     150A      0.574836   151A      0.580922   152A      0.587494  
     153A      0.593757   154A      0.621272   155A      0.622324  
     156A      0.630301   157A      0.632210   158A      0.637063  
     159A      0.643794   160A      0.648036   161A      0.665748  
     162A      0.674327   163A      0.683555   164A      0.688040  
     165A      0.698044   166A      0.702454   167A      0.708551  
     168A      0.718650   169A      0.723871   170A      0.731078  
     171A      0.736102   172A      0.736770   173A      0.743162  
     174A      0.750353   175A      0.756626   176A      0.763519  
     177A      0.766171   178A      0.772792   179A      0.777232  
     180A      0.792843   181A      0.798379   182A      0.814511  
     183A      0.818891   184A      0.830174   185A      0.840408  
     186A      0.847265   187A      0.851521   188A      0.854695  
     189A      0.856813   190A      0.861492   191A      0.865406  
     192A      0.876264   193A      0.879875   194A      0.886773  
     195A      0.890714   196A      0.896461   197A      0.897679  
     198A      0.899963   199A      0.907427   200A      0.915680  
     201A      0.919756   202A      0.923047   203A      0.933383  
     204A      0.943193   205A      0.951566   206A      0.952802  
     207A      0.955697   208A      0.956650   209A      0.975970  
     210A      0.978594   211A      0.986768   212A      0.986960  
     213A      0.998790   214A      1.002463   215A      1.008860  
     216A      1.009473   217A      1.015275   218A      1.018411  
     219A      1.021041   220A      1.027606   221A      1.033658  
     222A      1.043860   223A      1.053279   224A      1.054854  
     225A      1.057160   226A      1.066780   227A      1.074356  
     228A      1.075657   229A      1.078220   230A      1.080106  
     231A      1.086199   232A      1.093978   233A      1.100279  
     234A      1.102474   235A      1.113888   236A      1.130162  
     237A      1.130763   238A      1.134075   239A      1.138710  
     240A      1.147750   241A      1.147969   242A      1.154014  
     243A      1.168575   244A      1.170291   245A      1.175929  
     246A      1.182173   247A      1.186510   248A      1.192724  
     249A      1.195806   250A      1.203556   251A      1.205241  
     252A      1.214601   253A      1.221765   254A      1.228477  
     255A      1.229947   256A      1.238863   257A      1.245393  
     258A      1.251393   259A      1.253872   260A      1.265222  
     261A      1.274658   262A      1.285426   263A      1.289954  
     264A      1.292951   265A      1.302349   266A      1.310595  
     267A      1.316342   268A      1.324968   269A      1.327902  
     270A      1.333832   271A      1.349095   272A      1.353922  
     273A      1.369631   274A      1.375650   275A      1.382467  
     276A      1.387270   277A      1.394659   278A      1.399396  
     279A      1.404773   280A      1.415050   281A      1.424065  
     282A      1.430999   283A      1.433926   284A      1.450679  
     285A      1.452966   286A      1.459892   287A      1.467096  
     288A      1.470513   289A      1.475096   290A      1.482749  
     291A      1.483205   292A      1.497838   293A      1.507963  
     294A      1.515717   295A      1.519756   296A      1.543571  
     297A      1.548518   298A      1.561227   299A      1.565106  
     300A      1.599355   301A      1.603549   302A      1.616219  
     303A      1.619518   304A      1.625634   305A      1.636694  
     306A      1.638323   307A      1.654506   308A      1.656345  
     309A      1.680555   310A      1.681766   311A      1.683198  
     312A      1.696374   313A      1.712577   314A      1.714878  
     315A      1.730407   316A      1.730617   317A      1.737272  
     318A      1.742955   319A      1.744696   320A      1.751713  
     321A      1.780953   322A      1.784552   323A      1.791373  
     324A      1.793610   325A      1.811008   326A      1.822550  
     327A      1.828764   328A      1.839230   329A      1.847582  
     330A      1.854880   331A      1.870593   332A      1.879763  
     333A      1.882964   334A      1.899177   335A      1.900676  
     336A      1.915792   337A      1.915910   338A      1.921722  
     339A      1.940887   340A      1.954628   341A      1.963873  
     342A      1.965325   343A      1.989952   344A      1.998946  
     345A      2.000623   346A      2.005910   347A      2.023529  
     348A      2.034204   349A      2.038817   350A      2.049570  
     351A      2.054227   352A      2.059374   353A      2.062592  
     354A      2.074843   355A      2.086394   356A      2.106741  
     357A      2.111141   358A      2.115285   359A      2.126660  
     360A      2.130307   361A      2.145980   362A      2.154198  
     363A      2.159819   364A      2.175610   365A      2.179108  
     366A      2.182246   367A      2.189654   368A      2.195250  
     369A      2.223771   370A      2.245684   371A      2.252972  
     372A      2.254065   373A      2.268462   374A      2.273342  
     375A      2.282195   376A      2.301302   377A      2.304062  
     378A      2.312435   379A      2.331638   380A      2.343819  
     381A      2.351807   382A      2.368059   383A      2.369370  
     384A      2.392543   385A      2.397900   386A      2.421686  
     387A      2.434664   388A      2.446687   389A      2.453801  
     390A      2.462622   391A      2.502019   392A      2.510670  
     393A      2.519547   394A      2.525633   395A      2.539589  
     396A      2.564285   397A      2.574943   398A      2.582283  
     399A      2.585012   400A      2.601842   401A      2.611603  
     402A      2.619965   403A      2.653682   404A      2.679911  
     405A      2.699912   406A      2.718644   407A      2.750013  
     408A      2.752912   409A      2.781107   410A      2.816774  
     411A      2.837248   412A      2.865132   413A      2.865668  
     414A      2.888251   415A      2.922475   416A      2.952501  
     417A      2.972693   418A      3.017760   419A      3.049568  
     420A      3.073957   421A      3.092245   422A      3.137866  
     423A      3.173617   424A      3.215284   425A      3.229305  
     426A      3.259176   427A      3.263247   428A      3.284095  
     429A      3.310022   430A      3.319286   431A      3.333773  
     432A      3.361386   433A      3.376396   434A      3.383507  
     435A      3.385168   436A      3.395059   437A      3.412196  
     438A      3.422697   439A      3.448781   440A      3.456953  
     441A      3.466174   442A      3.473319   443A      3.476587  
     444A      3.485405   445A      3.500676   446A      3.511124  
     447A      3.532059   448A      3.539199   449A      3.549959  
     450A      3.558579   451A      3.573033   452A      3.574943  
     453A      3.589072   454A      3.591672   455A      3.610897  
     456A      3.621186   457A      3.635657   458A      3.641750  
     459A      3.647213   460A      3.651854   461A      3.654293  
     462A      3.662668   463A      3.673166   464A      3.692958  
     465A      3.704638   466A      3.720607   467A      3.728304  
     468A      3.735048   469A      3.752449   470A      3.757553  
     471A      3.764604   472A      3.792151   473A      3.802063  
     474A      3.811654   475A      3.816031   476A      3.842812  
     477A      3.848573   478A      3.852100   479A      3.858415  
     480A      3.867014   481A      3.873795   482A      3.892774  
     483A      3.903113   484A      3.909713   485A      3.925640  
     486A      3.935526   487A      3.947130   488A      3.955502  
     489A      3.967266   490A      3.970211   491A      3.980979  
     492A      3.992190   493A      4.004354   494A      4.008208  
     495A      4.030266   496A      4.042870   497A      4.049194  
     498A      4.067263   499A      4.069278   500A      4.081823  
     501A      4.100041   502A      4.101114   503A      4.116034  
     504A      4.118243   505A      4.138385   506A      4.150980  
     507A      4.156807   508A      4.160366   509A      4.164120  
     510A      4.186407   511A      4.190821   512A      4.206670  
     513A      4.226368   514A      4.235871   515A      4.251594  
     516A      4.254080   517A      4.264341   518A      4.266524  
     519A      4.273953   520A      4.281800   521A      4.296919  
     522A      4.310334   523A      4.323859   524A      4.337649  
     525A      4.343383   526A      4.372894   527A      4.376223  
     528A      4.392286   529A      4.392451   530A      4.403048  
     531A      4.409251   532A      4.417071   533A      4.427117  
     534A      4.443541   535A      4.445851   536A      4.456178  
     537A      4.468745   538A      4.485495   539A      4.493365  
     540A      4.507884   541A      4.512446   542A      4.528355  
     543A      4.544250   544A      4.554383   545A      4.556046  
     546A      4.571601   547A      4.582741   548A      4.585133  
     549A      4.604144   550A      4.628213   551A      4.648173  
     552A      4.674424   553A      4.691791   554A      4.704262  
     555A      4.716795   556A      4.726461   557A      4.731333  
     558A      4.739927   559A      4.757522   560A      4.761213  
     561A      4.791094   562A      4.806919   563A      4.835041  
     564A      4.850997   565A      4.861624   566A      4.868687  
     567A      4.880660   568A      4.886901   569A      4.934859  
     570A      4.956281   571A      4.959975   572A      4.966445  
     573A      4.991764   574A      5.006427   575A      5.010356  
     576A      5.029161   577A      5.044969   578A      5.064731  
     579A      5.076627   580A      5.088929   581A      5.094061  
     582A      5.127318   583A      5.129421   584A      5.140031  
     585A      5.151316   586A      5.163642   587A      5.168490  
     588A      5.169281   589A      5.199579   590A      5.216165  
     591A      5.217179   592A      5.246481   593A      5.263348  
     594A      5.271870   595A      5.282300   596A      5.308334  
     597A      5.340206   598A      5.345264   599A      5.372276  
     600A      5.387130   601A      5.389455   602A      5.419245  
     603A      5.440210   604A      5.455456   605A      5.481340  
     606A      5.520579   607A      5.540498   608A      5.562627  
     609A      5.577529   610A      5.605440   611A      5.635068  
     612A      5.641158   613A      5.670021   614A      5.679897  
     615A      5.683484   616A      5.712768   617A      5.735287  
     618A      5.751281   619A      5.795171   620A      5.836307  
     621A      5.845097   622A      5.885071   623A      5.895987  
     624A      5.926787   625A      5.975927   626A      6.052405  
     627A      6.060814   628A      6.076582   629A      6.097200  
     630A      6.115462   631A      6.194204   632A      6.218623  
     633A      6.223528   634A      6.245231   635A      6.272673  
     636A      6.310034   637A      6.338044   638A      6.371016  
     639A      6.433086   640A      6.449950   641A      6.481366  
     642A      6.574607   643A      6.637004   644A      6.674949  
     645A      6.697757   646A      6.735744   647A      6.835956  
     648A      6.860878   649A      6.876528   650A      6.968230  
     651A      7.024923   652A      7.064319   653A      7.121727  
     654A      7.186664   655A      7.224409   656A      7.527631  
     657A      7.845238   658A     16.311650   659A     16.644026  
     660A     17.266096   661A     18.967833   662A     19.039283  
     663A     19.160839   664A     19.851567   665A     20.435188  
     666A     20.705316   667A     21.366254  

    Final Occupation by Irrep:
              A 
    DOCC [    35 ]

  @DF-RHF Final Energy:  -400.61734369990103

   => Energetics <=

    Nuclear Repulsion Energy =            483.7489039484152613
    One-Electron Energy =               -1500.8903518315066776
    Two-Electron Energy =                 616.5241041831903885
    Total Energy =                       -400.6173436999009709

Computation Completed

*** tstop() called on node142.bme.utexas.edu at Wed Nov  4 11:55:32 2020
Module time:
	user time   =     474.68 seconds =       7.91 minutes
	system time =      53.93 seconds =       0.90 minutes
	total time  =        102 seconds =       1.70 minutes
Total time:
	user time   =     474.68 seconds =       7.91 minutes
	system time =      53.93 seconds =       0.90 minutes
	total time  =        102 seconds =       1.70 minutes
   => Loading Basis Set <=

    Name: (AUG-CC-PVTZ AUX)
    Role: RIFIT
    Keyword: DF_BASIS_MP2
    atoms 1-9   entry C          line   148 file /home/xy3866/psi4conda/share/psi4/basis/aug-cc-pvtz-ri.gbs 
    atoms 10    entry N          line   206 file /home/xy3866/psi4conda/share/psi4/basis/aug-cc-pvtz-ri.gbs 
    atoms 11-19 entry H          line    30 file /home/xy3866/psi4conda/share/psi4/basis/aug-cc-pvtz-ri.gbs 


*** tstart() called on node142.bme.utexas.edu
*** at Wed Nov  4 11:55:33 2020


  //>>>>>>>>>>>>>>>>>>>>>>>>>>>>>>>>>>>//
  //               DFMP2               //
  //<<<<<<<<<<<<<<<<<<<<<<<<<<<<<<<<<<<//

	 --------------------------------------------------------
	                          DF-MP2                         
	      2nd-Order Density-Fitted Moller-Plesset Theory     
	              RMP2 Wavefunction,   8 Threads             
	                                                         
	        Rob Parrish, Justin Turney, Andy Simmonett,      
	           Ed Hohenstein, and C. David Sherrill          
	 --------------------------------------------------------

   => Auxiliary Basis Set <=

  Basis Set: (AUG-CC-PVTZ AUX)
    Blend: AUG-CC-PVTZ-RI
    Number of shells: 406
    Number of basis function: 1474
    Number of Cartesian functions: 1855
    Spherical Harmonics?: true
    Max angular momentum: 4

	 --------------------------------------------------------
	                 NBF =   667, NAUX =  1474
	 --------------------------------------------------------
	   CLASS    FOCC     OCC    AOCC    AVIR     VIR    FVIR
	   PAIRS       0      35      35     632     632       0
	 --------------------------------------------------------

  DFHelper Memory: AOs need 4.720 GiB; user supplied 22.352 GiB. Using in-core AOs.


         ------------------------------------------------------------
                                     CPHF                           
                                  Rob Parrish                       
         ------------------------------------------------------------

  ==> Geometry <==

    Molecular point group: c1
    Full point group: C1

    Geometry (in Angstrom), charge = 0, multiplicity = 1:

       Center              X                  Y                   Z               Mass       
    ------------   -----------------  -----------------  -----------------  -----------------
         C           -2.541052224303    -1.431317031773     0.000137780768    12.000000000000
         C           -0.213261324303    -0.403155831773     0.000222580768    12.000000000000
         C           -1.637571324303    -0.239349831773    -0.000030419232    12.000000000000
         C            0.369096675697     0.894356168227    -0.000148419232    12.000000000000
         C           -1.869018324303     1.118681168227    -0.000061419232    12.000000000000
         C            2.008554675697    -1.331066831773     0.000034580768    12.000000000000
         C            2.563129675697    -0.032300831773    -0.000073419232    12.000000000000
         C            0.634147675697    -1.527135831773    -0.000283419232    12.000000000000
         C            1.754755675697     1.097695168227     0.000298580768    12.000000000000
         N           -0.667536324303     1.799516168227    -0.000099419232    14.003074004430
         H            2.674696675697    -2.190684831773    -0.000355419232     1.007825032230
         H            3.644251675697     0.085690168227     0.000271580768     1.007825032230
         H            0.219079675697    -2.533536831773    -0.000063419232     1.007825032230
         H            2.184703675697     2.097611168227     0.000287580768     1.007825032230
         H           -3.672366324303    -0.913547831773    -0.000190419232     1.007825032230
         H           -2.562858324303    -1.971009831773     0.883286580768     1.007825032230
         H           -2.808444324303     1.658887168227    -0.000358419232     1.007825032230
         H           -0.567348324303     2.805506168227    -0.000117419232     1.007825032230
         H           -2.562525324303    -1.971600831773    -0.882527419232     1.007825032230

  Nuclear repulsion =  483.748903948415261
  Reference energy  = -400.617343699901028

  ==> Basis Set <==

  Basis Set: AUG-CC-PVTZ
    Blend: AUG-CC-PVTZ
    Number of shells: 221
    Number of basis function: 667
    Number of Cartesian functions: 775
    Spherical Harmonics?: true
    Max angular momentum: 3

  ==> CGRSolver (by Rob Parrish) <==

   Number of roots    =         1
   Preconditioning    =    JACOBI
   Convergence cutoff =     1E-06
   Maximum iterations =       100

  ==> CPHFRHamiltonian (by Rob Parrish) <== 

  ==> MemDFJK: Density-Fitted J/K Matrices <==

    J tasked:                   Yes
    K tasked:                   Yes
    wK tasked:                   No
    OpenMP threads:               8
    Memory [MiB]:             22888
    Algorithm:                 Disk
    Schwarz Cutoff:           1E-12
    Mask sparsity (%):       4.8097
    Fitting Condition:        1E-10

   => Auxiliary Basis Set <=

  Basis Set: (AUG-CC-PVTZ AUX)
    Blend: AUG-CC-PVTZ-JKFIT
    Number of shells: 426
    Number of basis function: 1454
    Number of Cartesian functions: 1805
    Spherical Harmonics?: true
    Max angular momentum: 4

  ==> CPHF Iterations <==

  => Iterations <=

             Iter  Converged  Remaining    Residual
  CGR           1          0          1   8.963E-02
  CGR           2          0          1   3.234E-02
  CGR           3          0          1   1.804E-02
  CGR           4          0          1   6.802E-03
  CGR           5          0          1   3.084E-03
  CGR           6          0          1   1.686E-03
  CGR           7          0          1   5.378E-04
  CGR           8          0          1   1.854E-04
  CGR           9          0          1   6.883E-05
  CGR          10          0          1   3.318E-05
  CGR          11          0          1   1.765E-05
  CGR          12          0          1   6.542E-06
  CGR          13          0          1   2.086E-06
  CGR          14          1          0   5.660E-07

    CGRSolver converged.

	-----------------------------------------------------------
	 ==================> DF-MP2 Energies <==================== 
	-----------------------------------------------------------
	 Reference Energy          =    -400.6173436999010278 [Eh]
	 Singles Energy            =      -0.0000000000000000 [Eh]
	 Same-Spin Energy          =      -0.4522476865568645 [Eh]
	 Opposite-Spin Energy      =      -1.4055935419388614 [Eh]
	 Correlation Energy        =      -1.8578412284957260 [Eh]
	 Total Energy              =    -402.4751849283967431 [Eh]
	-----------------------------------------------------------
	 ================> DF-SCS-MP2 Energies <================== 
	-----------------------------------------------------------
	 SCS Same-Spin Scale       =       0.3333333333333333 [-]
	 SCS Opposite-Spin Scale   =       1.2000000000000000 [-]
	 SCS Same-Spin Energy      =      -0.1507492288522882 [Eh]
	 SCS Opposite-Spin Energy  =      -1.6867122503266336 [Eh]
	 SCS Correlation Energy    =      -1.8374614791789219 [Eh]
	 SCS Total Energy          =    -402.4548051790799263 [Eh]
	-----------------------------------------------------------



Properties will be evaluated at   0.000000,   0.000000,   0.000000 [a0]

Properties computed using the MP2 density matrix

  Nuclear Dipole Moment: [e a0]
     X:    -3.2331      Y:    -2.7545      Z:     0.0002

  Electronic Dipole Moment: [e a0]
     X:     2.8954      Y:     3.4584      Z:    -0.0002

  Dipole Moment: [e a0]
     X:    -0.3377      Y:     0.7038      Z:    -0.0000     Total:     0.7807

  Dipole Moment: [D]
     X:    -0.8584      Y:     1.7890      Z:    -0.0001     Total:     1.9842


*** tstop() called on node142.bme.utexas.edu at Wed Nov  4 12:00:17 2020
Module time:
	user time   =    1697.94 seconds =      28.30 minutes
	system time =      67.62 seconds =       1.13 minutes
	total time  =        284 seconds =       4.73 minutes
Total time:
	user time   =    2173.85 seconds =      36.23 minutes
	system time =     121.62 seconds =       2.03 minutes
	total time  =        387 seconds =       6.45 minutes

    Psi4 stopped on: Wednesday, 04 November 2020 12:00PM
    Psi4 wall time for execution: 0:06:27.45

*** Psi4 exiting successfully. Buy a developer a beer!
