
    -----------------------------------------------------------------------
          Psi4: An Open-Source Ab Initio Electronic Structure Package
                               Psi4 1.3.2 release

                         Git: Rev {HEAD} ecbda83 


    R. M. Parrish, L. A. Burns, D. G. A. Smith, A. C. Simmonett,
    A. E. DePrince III, E. G. Hohenstein, U. Bozkaya, A. Yu. Sokolov,
    R. Di Remigio, R. M. Richard, J. F. Gonthier, A. M. James,
    H. R. McAlexander, A. Kumar, M. Saitow, X. Wang, B. P. Pritchard,
    P. Verma, H. F. Schaefer III, K. Patkowski, R. A. King, E. F. Valeev,
    F. A. Evangelista, J. M. Turney, T. D. Crawford, and C. D. Sherrill,
    J. Chem. Theory Comput. 13(7) pp 3185--3197 (2017).
    (doi: 10.1021/acs.jctc.7b00174)


                         Additional Contributions by
    P. Kraus, H. Kruse, M. H. Lechner, M. C. Schieber, R. A. Shaw,
    A. Alenaizan, R. Galvelis, Z. L. Glick, S. Lehtola, and J. P. Misiewicz

    -----------------------------------------------------------------------


    Psi4 started on: Tuesday, 17 November 2020 10:39AM

    Process ID: 17348
    Host:       node142.bme.utexas.edu
    PSIDATADIR: /home/xy3866/psi4conda/share/psi4
    Memory:     500.0 MiB
    Threads:    8
    
  ==> Input File <==

--------------------------------------------------------------------------
#psi4
#
memory 32 gb

molecule  {
0 1
  C       -2.6260010    -1.3181790     0.0001460
  C       -0.1785650    -0.3909870     0.0002200
  C       -1.6055169    -0.2520636    -0.0000496
  C        0.4037930     0.9065250    -0.0001510
  C       -1.8343220     1.1308500    -0.0000640
  C        2.0432510    -1.3188980     0.0000320
  C        2.5978260    -0.0201320    -0.0000760
  C        0.6688440    -1.5149670    -0.0002860
  C        1.7894520     1.1098640     0.0002960
  N       -0.6328400     1.8116850    -0.0001020
  H        2.7093930    -2.1785160    -0.0003580
  H        3.6789480     0.0978590     0.0002690
  H        0.2537760    -2.5213680    -0.0000660
  H        2.2194000     2.1097800     0.0002850
  H       -3.6376700    -0.9013790    -0.0001930
  H       -2.5281620    -1.9588410     0.8832840
  H       -2.7737480     1.6710560    -0.0003610
  H       -0.5326520     2.8176750    -0.0001200
  H       -2.5278290    -1.9594320    -0.8825300
units angstrom
no_reorient  #important for SAPT in psi4, default
symmetry c1  #important for SAPT in psi4, default
}

set PROPERTIES_ORIGIN ["COM"]
properties('MP2/aug-cc-pvtz', properties = ['dipole'])
--------------------------------------------------------------------------

  Memory set to  29.802 GiB by Python driver.
    SCF Algorithm Type (re)set to DF.

*** tstart() called on node142.bme.utexas.edu
*** at Tue Nov 17 10:39:53 2020

   => Loading Basis Set <=

    Name: AUG-CC-PVTZ
    Role: ORBITAL
    Keyword: BASIS
    atoms 1-9   entry C          line   235 file /home/xy3866/psi4conda/share/psi4/basis/aug-cc-pvtz.gbs 
    atoms 10    entry N          line   281 file /home/xy3866/psi4conda/share/psi4/basis/aug-cc-pvtz.gbs 
    atoms 11-19 entry H          line    36 file /home/xy3866/psi4conda/share/psi4/basis/aug-cc-pvtz.gbs 


         ---------------------------------------------------------
                                   SCF
               by Justin Turney, Rob Parrish, Andy Simmonett
                          and Daniel G. A. Smith
                              RHF Reference
                        8 Threads,  30517 MiB Core
         ---------------------------------------------------------

  ==> Geometry <==

    Molecular point group: c1
    Full point group: C1

    Geometry (in Angstrom), charge = 0, multiplicity = 1:

       Center              X                  Y                   Z               Mass       
    ------------   -----------------  -----------------  -----------------  -----------------
         C           -2.649501743138    -1.337313688372     0.000149111768    12.000000000000
         C           -0.202065743138    -0.410121688372     0.000223111768    12.000000000000
         C           -1.629017643138    -0.271198288372    -0.000046488232    12.000000000000
         C            0.380292256862     0.887390311628    -0.000147888232    12.000000000000
         C           -1.857822743138     1.111715311628    -0.000060888232    12.000000000000
         C            2.019750256862    -1.338032688372     0.000035111768    12.000000000000
         C            2.574325256862    -0.039266688372    -0.000072888232    12.000000000000
         C            0.645343256862    -1.534101688372    -0.000282888232    12.000000000000
         C            1.765951256862     1.090729311628     0.000299111768    12.000000000000
         N           -0.656340743138     1.792550311628    -0.000098888232    14.003074004430
         H            2.685892256862    -2.197650688372    -0.000354888232     1.007825032230
         H            3.655447256862     0.078724311628     0.000272111768     1.007825032230
         H            0.230275256862    -2.540502688372    -0.000062888232     1.007825032230
         H            2.195899256862     2.090645311628     0.000288111768     1.007825032230
         H           -3.661170743138    -0.920513688372    -0.000189888232     1.007825032230
         H           -2.551662743138    -1.977975688372     0.883287111768     1.007825032230
         H           -2.797248743138     1.651921311628    -0.000357888232     1.007825032230
         H           -0.556152743138     2.798540311628    -0.000116888232     1.007825032230
         H           -2.551329743138    -1.978566688372    -0.882526888232     1.007825032230

  Running in c1 symmetry.

  Rotational constants: A =      0.08677  B =      0.04227  C =      0.02857 [cm^-1]
  Rotational constants: A =   2601.40047  B =   1267.14006  C =    856.62720 [MHz]
  Nuclear repulsion =  483.071681915198667

  Charge       = 0
  Multiplicity = 1
  Electrons    = 70
  Nalpha       = 35
  Nbeta        = 35

  ==> Algorithm <==

  SCF Algorithm Type is DF.
  DIIS enabled.
  MOM disabled.
  Fractional occupation disabled.
  Guess Type is SAD.
  Energy threshold   = 1.00e-10
  Density threshold  = 1.00e-10
  Integral threshold = 0.00e+00

  ==> Primary Basis <==

  Basis Set: AUG-CC-PVTZ
    Blend: AUG-CC-PVTZ
    Number of shells: 221
    Number of basis function: 667
    Number of Cartesian functions: 775
    Spherical Harmonics?: true
    Max angular momentum: 3

   => Loading Basis Set <=

    Name: (AUG-CC-PVTZ AUX)
    Role: JKFIT
    Keyword: DF_BASIS_SCF
    atoms 1-9   entry C          line   162 file /home/xy3866/psi4conda/share/psi4/basis/aug-cc-pvtz-jkfit.gbs 
    atoms 10    entry N          line   224 file /home/xy3866/psi4conda/share/psi4/basis/aug-cc-pvtz-jkfit.gbs 
    atoms 11-19 entry H          line    70 file /home/xy3866/psi4conda/share/psi4/basis/aug-cc-pvtz-jkfit.gbs 

  ==> Pre-Iterations <==

   -------------------------------------------------------
    Irrep   Nso     Nmo     Nalpha   Nbeta   Ndocc  Nsocc
   -------------------------------------------------------
     A        667     667       0       0       0       0
   -------------------------------------------------------
    Total     667     667      35      35      35       0
   -------------------------------------------------------

  ==> Integral Setup <==

  DFHelper Memory: AOs need 4.717 GiB; user supplied 22.352 GiB. Using in-core AOs.

  ==> MemDFJK: Density-Fitted J/K Matrices <==

    J tasked:                   Yes
    K tasked:                   Yes
    wK tasked:                   No
    OpenMP threads:               8
    Memory [MiB]:             22888
    Algorithm:                 Disk
    Schwarz Cutoff:           1E-12
    Mask sparsity (%):       4.8587
    Fitting Condition:        1E-10

   => Auxiliary Basis Set <=

  Basis Set: (AUG-CC-PVTZ AUX)
    Blend: AUG-CC-PVTZ-JKFIT
    Number of shells: 426
    Number of basis function: 1454
    Number of Cartesian functions: 1805
    Spherical Harmonics?: true
    Max angular momentum: 4

  Minimum eigenvalue in the overlap matrix is 4.9273754873E-07.
  Using Symmetric Orthogonalization.

  SCF Guess: Superposition of Atomic Densities via on-the-fly atomic UHF.

  ==> Iterations <==

                           Total Energy        Delta E     RMS |[F,P]|

   @DF-RHF iter SAD:  -400.44974186133021   -4.00450e+02   0.00000e+00 
   @DF-RHF iter   1:  -400.33066130750285    1.19081e-01   1.05232e-03 DIIS
   @DF-RHF iter   2:  -400.56997331079640   -2.39312e-01   5.28947e-04 DIIS
   @DF-RHF iter   3:  -400.63295688541865   -6.29836e-02   1.23389e-04 DIIS
   @DF-RHF iter   4:  -400.63714541253569   -4.18853e-03   5.45284e-05 DIIS
   @DF-RHF iter   5:  -400.63790475670902   -7.59344e-04   8.93928e-06 DIIS
   @DF-RHF iter   6:  -400.63794289098212   -3.81343e-05   4.24852e-06 DIIS
   @DF-RHF iter   7:  -400.63795215057576   -9.25959e-06   1.63230e-06 DIIS
   @DF-RHF iter   8:  -400.63795467426883   -2.52369e-06   7.23404e-07 DIIS
   @DF-RHF iter   9:  -400.63795522026101   -5.45992e-07   3.30274e-07 DIIS
   @DF-RHF iter  10:  -400.63795532939213   -1.09131e-07   1.47448e-07 DIIS
   @DF-RHF iter  11:  -400.63795535977374   -3.03816e-08   6.48625e-08 DIIS
   @DF-RHF iter  12:  -400.63795536474203   -4.96829e-09   2.66783e-08 DIIS
   @DF-RHF iter  13:  -400.63795536530552   -5.63489e-10   8.15874e-09 DIIS
   @DF-RHF iter  14:  -400.63795536534576   -4.02451e-11   2.80663e-09 DIIS
   @DF-RHF iter  15:  -400.63795536534928   -3.52429e-12   1.05898e-09 DIIS
   @DF-RHF iter  16:  -400.63795536535065   -1.36424e-12   5.85591e-10 DIIS
   @DF-RHF iter  17:  -400.63795536535133   -6.82121e-13   2.93166e-10 DIIS
   @DF-RHF iter  18:  -400.63795536535287   -1.53477e-12   1.11579e-10 DIIS
   @DF-RHF iter  19:  -400.63795536535440   -1.53477e-12   5.04648e-11 DIIS
  Energy and wave function converged.


  ==> Post-Iterations <==

    Orbital Energies [Eh]
    ---------------------

    Doubly Occupied:                                                      

       1A    -15.601724     2A    -11.267503     3A    -11.265394  
       4A    -11.232093     5A    -11.229885     6A    -11.229099  
       7A    -11.224389     8A    -11.222397     9A    -11.220942  
      10A    -11.220792    11A     -1.290964    12A     -1.127126  
      13A     -1.072550    14A     -0.997804    15A     -0.986015  
      16A     -0.930203    17A     -0.838711    18A     -0.803673  
      19A     -0.756310    20A     -0.720356    21A     -0.659117  
      22A     -0.644044    23A     -0.604594    24A     -0.592879  
      25A     -0.592074    26A     -0.569314    27A     -0.552419  
      28A     -0.546722    29A     -0.528683    30A     -0.494760  
      31A     -0.477660    32A     -0.462834    33A     -0.373299  
      34A     -0.298939    35A     -0.274419  

    Virtual:                                                              

      36A      0.024744    37A      0.031202    38A      0.032992  
      39A      0.042976    40A      0.044642    41A      0.049731  
      42A      0.060951    43A      0.063703    44A      0.075839  
      45A      0.083685    46A      0.088017    47A      0.096894  
      48A      0.105494    49A      0.105801    50A      0.108553  
      51A      0.116152    52A      0.117142    53A      0.117444  
      54A      0.123898    55A      0.126199    56A      0.128038  
      57A      0.131493    58A      0.133168    59A      0.140292  
      60A      0.147894    61A      0.148479    62A      0.149940  
      63A      0.156277    64A      0.159281    65A      0.159576  
      66A      0.164999    67A      0.174302    68A      0.174751  
      69A      0.181846    70A      0.182551    71A      0.195440  
      72A      0.196845    73A      0.210005    74A      0.211175  
      75A      0.215632    76A      0.216659    77A      0.218953  
      78A      0.230056    79A      0.240651    80A      0.249659  
      81A      0.249891    82A      0.250414    83A      0.267409  
      84A      0.268739    85A      0.270346    86A      0.284652  
      87A      0.285778    88A      0.292992    89A      0.302115  
      90A      0.304810    91A      0.314944    92A      0.318654  
      93A      0.321328    94A      0.325753    95A      0.333427  
      96A      0.337168    97A      0.339464    98A      0.343196  
      99A      0.345046   100A      0.348798   101A      0.354861  
     102A      0.356588   103A      0.365256   104A      0.370304  
     105A      0.371758   106A      0.373604   107A      0.378441  
     108A      0.387927   109A      0.397367   110A      0.401959  
     111A      0.404812   112A      0.409252   113A      0.414978  
     114A      0.421325   115A      0.427072   116A      0.429951  
     117A      0.431366   118A      0.437420   119A      0.442085  
     120A      0.445697   121A      0.458842   122A      0.461548  
     123A      0.466263   124A      0.468105   125A      0.469993  
     126A      0.476086   127A      0.479034   128A      0.489355  
     129A      0.491606   130A      0.492337   131A      0.494640  
     132A      0.501850   133A      0.503929   134A      0.510253  
     135A      0.511573   136A      0.515907   137A      0.516894  
     138A      0.519825   139A      0.521891   140A      0.528660  
     141A      0.535089   142A      0.537675   143A      0.544668  
     144A      0.548605   145A      0.551675   146A      0.552868  
     147A      0.559340   148A      0.563236   149A      0.571497  
     150A      0.572393   151A      0.578349   152A      0.591837  
     153A      0.596241   154A      0.619856   155A      0.624284  
     156A      0.629745   157A      0.632879   158A      0.637160  
     159A      0.646384   160A      0.650197   161A      0.663644  
     162A      0.668779   163A      0.678289   164A      0.680854  
     165A      0.697648   166A      0.700548   167A      0.705604  
     168A      0.714592   169A      0.725691   170A      0.730909  
     171A      0.733895   172A      0.736565   173A      0.736628  
     174A      0.757019   175A      0.761451   176A      0.763952  
     177A      0.765119   178A      0.771045   179A      0.775117  
     180A      0.787677   181A      0.802029   182A      0.818963  
     183A      0.821380   184A      0.831370   185A      0.840485  
     186A      0.842246   187A      0.851051   188A      0.857594  
     189A      0.860888   190A      0.862765   191A      0.866599  
     192A      0.885070   193A      0.885362   194A      0.886875  
     195A      0.892847   196A      0.899522   197A      0.900987  
     198A      0.906437   199A      0.909394   200A      0.915995  
     201A      0.916815   202A      0.930251   203A      0.934551  
     204A      0.938164   205A      0.941974   206A      0.947385  
     207A      0.956578   208A      0.956704   209A      0.973672  
     210A      0.975435   211A      0.983963   212A      0.986053  
     213A      1.001258   214A      1.002590   215A      1.002933  
     216A      1.006148   217A      1.015034   218A      1.018954  
     219A      1.021828   220A      1.026620   221A      1.028081  
     222A      1.034136   223A      1.049433   224A      1.053381  
     225A      1.061096   226A      1.062703   227A      1.068568  
     228A      1.080029   229A      1.081582   230A      1.083343  
     231A      1.089854   232A      1.094719   233A      1.097055  
     234A      1.101369   235A      1.115124   236A      1.124576  
     237A      1.133862   238A      1.135051   239A      1.143124  
     240A      1.151547   241A      1.152405   242A      1.157049  
     243A      1.161465   244A      1.167025   245A      1.171712  
     246A      1.182072   247A      1.186306   248A      1.189612  
     249A      1.189740   250A      1.196995   251A      1.204333  
     252A      1.207826   253A      1.220714   254A      1.226395  
     255A      1.228436   256A      1.237387   257A      1.239268  
     258A      1.245840   259A      1.255329   260A      1.261937  
     261A      1.275919   262A      1.282861   263A      1.287266  
     264A      1.302703   265A      1.305331   266A      1.307098  
     267A      1.315022   268A      1.321761   269A      1.333245  
     270A      1.335859   271A      1.352655   272A      1.360578  
     273A      1.373752   274A      1.373849   275A      1.383747  
     276A      1.385401   277A      1.391296   278A      1.398728  
     279A      1.403435   280A      1.409997   281A      1.421734  
     282A      1.432158   283A      1.435471   284A      1.453110  
     285A      1.457962   286A      1.458580   287A      1.466202  
     288A      1.471320   289A      1.471764   290A      1.482827  
     291A      1.482912   292A      1.490414   293A      1.506927  
     294A      1.518671   295A      1.531504   296A      1.534508  
     297A      1.546763   298A      1.562407   299A      1.574966  
     300A      1.596873   301A      1.599234   302A      1.612079  
     303A      1.619157   304A      1.624092   305A      1.633629  
     306A      1.649060   307A      1.654698   308A      1.668962  
     309A      1.676700   310A      1.683101   311A      1.685821  
     312A      1.701177   313A      1.715134   314A      1.716172  
     315A      1.717828   316A      1.723794   317A      1.736109  
     318A      1.748113   319A      1.748933   320A      1.770665  
     321A      1.786131   322A      1.790277   323A      1.790891  
     324A      1.795103   325A      1.813621   326A      1.818001  
     327A      1.820290   328A      1.835560   329A      1.853929  
     330A      1.857295   331A      1.878925   332A      1.885727  
     333A      1.888291   334A      1.898101   335A      1.907024  
     336A      1.917936   337A      1.919133   338A      1.934213  
     339A      1.946753   340A      1.951865   341A      1.957662  
     342A      1.970293   343A      1.984352   344A      1.989894  
     345A      2.005087   346A      2.010613   347A      2.022880  
     348A      2.032872   349A      2.038237   350A      2.040190  
     351A      2.053208   352A      2.059507   353A      2.066580  
     354A      2.078939   355A      2.086797   356A      2.100576  
     357A      2.105522   358A      2.130998   359A      2.133227  
     360A      2.140986   361A      2.143489   362A      2.147768  
     363A      2.167354   364A      2.179292   365A      2.188832  
     366A      2.190336   367A      2.196900   368A      2.207765  
     369A      2.226033   370A      2.238673   371A      2.239200  
     372A      2.256139   373A      2.268180   374A      2.273386  
     375A      2.288564   376A      2.303488   377A      2.307435  
     378A      2.310879   379A      2.317657   380A      2.337078  
     381A      2.343241   382A      2.371897   383A      2.372673  
     384A      2.387436   385A      2.397930   386A      2.402925  
     387A      2.422233   388A      2.426125   389A      2.453389  
     390A      2.460560   391A      2.467714   392A      2.496129  
     393A      2.511468   394A      2.533448   395A      2.549643  
     396A      2.559988   397A      2.566677   398A      2.584102  
     399A      2.588995   400A      2.600556   401A      2.618355  
     402A      2.633040   403A      2.653002   404A      2.667835  
     405A      2.701973   406A      2.722923   407A      2.744757  
     408A      2.751120   409A      2.766648   410A      2.824990  
     411A      2.835626   412A      2.856971   413A      2.860836  
     414A      2.894153   415A      2.960419   416A      2.969426  
     417A      3.006018   418A      3.015669   419A      3.044089  
     420A      3.056883   421A      3.092377   422A      3.142392  
     423A      3.185711   424A      3.229239   425A      3.236228  
     426A      3.259513   427A      3.286820   428A      3.290867  
     429A      3.304979   430A      3.327845   431A      3.344506  
     432A      3.362887   433A      3.372851   434A      3.382490  
     435A      3.390141   436A      3.393431   437A      3.412007  
     438A      3.436602   439A      3.443359   440A      3.450295  
     441A      3.450593   442A      3.460791   443A      3.479727  
     444A      3.489471   445A      3.491894   446A      3.504841  
     447A      3.516766   448A      3.542899   449A      3.556446  
     450A      3.560727   451A      3.568802   452A      3.571902  
     453A      3.582975   454A      3.593041   455A      3.608903  
     456A      3.626835   457A      3.630802   458A      3.639578  
     459A      3.639620   460A      3.648929   461A      3.655688  
     462A      3.672284   463A      3.688475   464A      3.698577  
     465A      3.701303   466A      3.725292   467A      3.729834  
     468A      3.736815   469A      3.743214   470A      3.758490  
     471A      3.764346   472A      3.790524   473A      3.798699  
     474A      3.808807   475A      3.816870   476A      3.835291  
     477A      3.836147   478A      3.854699   479A      3.865857  
     480A      3.866071   481A      3.893411   482A      3.901906  
     483A      3.908720   484A      3.916668   485A      3.936525  
     486A      3.937548   487A      3.942579   488A      3.948640  
     489A      3.953193   490A      3.970859   491A      3.982637  
     492A      3.995021   493A      4.005308   494A      4.010931  
     495A      4.026091   496A      4.028859   497A      4.038980  
     498A      4.071498   499A      4.079529   500A      4.084558  
     501A      4.097237   502A      4.107388   503A      4.132136  
     504A      4.134315   505A      4.144962   506A      4.147880  
     507A      4.152183   508A      4.162352   509A      4.176838  
     510A      4.178347   511A      4.183365   512A      4.212845  
     513A      4.223838   514A      4.234086   515A      4.250125  
     516A      4.259049   517A      4.259961   518A      4.277327  
     519A      4.278966   520A      4.292530   521A      4.302119  
     522A      4.312250   523A      4.330772   524A      4.343205  
     525A      4.346506   526A      4.374539   527A      4.380051  
     528A      4.385852   529A      4.392944   530A      4.400548  
     531A      4.410456   532A      4.412634   533A      4.416760  
     534A      4.432624   535A      4.439219   536A      4.456590  
     537A      4.468905   538A      4.478270   539A      4.489543  
     540A      4.499001   541A      4.519568   542A      4.533053  
     543A      4.538450   544A      4.548746   545A      4.564138  
     546A      4.569655   547A      4.574200   548A      4.585851  
     549A      4.611793   550A      4.659538   551A      4.663847  
     552A      4.678676   553A      4.695546   554A      4.708917  
     555A      4.712476   556A      4.733491   557A      4.734869  
     558A      4.753829   559A      4.790999   560A      4.798420  
     561A      4.811840   562A      4.812771   563A      4.838979  
     564A      4.843405   565A      4.861756   566A      4.864989  
     567A      4.879838   568A      4.900514   569A      4.913914  
     570A      4.955289   571A      4.958131   572A      4.971801  
     573A      4.990661   574A      5.007675   575A      5.019621  
     576A      5.040859   577A      5.042740   578A      5.072240  
     579A      5.081582   580A      5.085456   581A      5.107865  
     582A      5.128171   583A      5.143404   584A      5.147797  
     585A      5.159329   586A      5.163021   587A      5.169500  
     588A      5.191279   589A      5.192322   590A      5.217073  
     591A      5.222983   592A      5.232335   593A      5.239818  
     594A      5.250888   595A      5.279132   596A      5.300928  
     597A      5.328893   598A      5.353132   599A      5.380578  
     600A      5.384054   601A      5.403516   602A      5.416854  
     603A      5.440157   604A      5.470903   605A      5.516508  
     606A      5.531060   607A      5.561150   608A      5.575238  
     609A      5.591621   610A      5.599199   611A      5.610415  
     612A      5.621904   613A      5.650960   614A      5.669460  
     615A      5.673777   616A      5.675603   617A      5.711984  
     618A      5.764251   619A      5.771077   620A      5.830423  
     621A      5.851365   622A      5.863411   623A      5.890310  
     624A      5.916919   625A      5.935038   626A      6.013986  
     627A      6.084192   628A      6.088796   629A      6.103407  
     630A      6.139578   631A      6.176490   632A      6.181220  
     633A      6.220670   634A      6.236190   635A      6.256490  
     636A      6.276297   637A      6.326124   638A      6.350034  
     639A      6.385207   640A      6.450120   641A      6.483376  
     642A      6.566267   643A      6.632988   644A      6.663690  
     645A      6.707258   646A      6.769689   647A      6.836319  
     648A      6.863309   649A      6.890218   650A      6.965572  
     651A      7.001208   652A      7.031188   653A      7.111630  
     654A      7.182445   655A      7.220821   656A      7.521386  
     657A      7.842100   658A     16.290494   659A     16.730766  
     660A     17.078304   661A     18.846005   662A     18.968543  
     663A     19.211083   664A     19.915244   665A     20.466726  
     666A     20.631048   667A     21.063368  

    Final Occupation by Irrep:
              A 
    DOCC [    35 ]

  @DF-RHF Final Energy:  -400.63795536535440

   => Energetics <=

    Nuclear Repulsion Energy =            483.0716819151986670
    One-Electron Energy =               -1499.5999031126980299
    Two-Electron Energy =                 615.8902658321449053
    Total Energy =                       -400.6379553653544008

Computation Completed

*** tstop() called on node142.bme.utexas.edu at Tue Nov 17 10:41:11 2020
Module time:
	user time   =     338.48 seconds =       5.64 minutes
	system time =      44.71 seconds =       0.75 minutes
	total time  =         78 seconds =       1.30 minutes
Total time:
	user time   =     338.48 seconds =       5.64 minutes
	system time =      44.71 seconds =       0.75 minutes
	total time  =         78 seconds =       1.30 minutes
   => Loading Basis Set <=

    Name: (AUG-CC-PVTZ AUX)
    Role: RIFIT
    Keyword: DF_BASIS_MP2
    atoms 1-9   entry C          line   148 file /home/xy3866/psi4conda/share/psi4/basis/aug-cc-pvtz-ri.gbs 
    atoms 10    entry N          line   206 file /home/xy3866/psi4conda/share/psi4/basis/aug-cc-pvtz-ri.gbs 
    atoms 11-19 entry H          line    30 file /home/xy3866/psi4conda/share/psi4/basis/aug-cc-pvtz-ri.gbs 


*** tstart() called on node142.bme.utexas.edu
*** at Tue Nov 17 10:41:12 2020


  //>>>>>>>>>>>>>>>>>>>>>>>>>>>>>>>>>>>//
  //               DFMP2               //
  //<<<<<<<<<<<<<<<<<<<<<<<<<<<<<<<<<<<//

	 --------------------------------------------------------
	                          DF-MP2                         
	      2nd-Order Density-Fitted Moller-Plesset Theory     
	              RMP2 Wavefunction,   8 Threads             
	                                                         
	        Rob Parrish, Justin Turney, Andy Simmonett,      
	           Ed Hohenstein, and C. David Sherrill          
	 --------------------------------------------------------

   => Auxiliary Basis Set <=

  Basis Set: (AUG-CC-PVTZ AUX)
    Blend: AUG-CC-PVTZ-RI
    Number of shells: 406
    Number of basis function: 1474
    Number of Cartesian functions: 1855
    Spherical Harmonics?: true
    Max angular momentum: 4

	 --------------------------------------------------------
	                 NBF =   667, NAUX =  1474
	 --------------------------------------------------------
	   CLASS    FOCC     OCC    AOCC    AVIR     VIR    FVIR
	   PAIRS       0      35      35     632     632       0
	 --------------------------------------------------------

  DFHelper Memory: AOs need 4.717 GiB; user supplied 22.352 GiB. Using in-core AOs.


         ------------------------------------------------------------
                                     CPHF                           
                                  Rob Parrish                       
         ------------------------------------------------------------

  ==> Geometry <==

    Molecular point group: c1
    Full point group: C1

    Geometry (in Angstrom), charge = 0, multiplicity = 1:

       Center              X                  Y                   Z               Mass       
    ------------   -----------------  -----------------  -----------------  -----------------
         C           -2.649501743138    -1.337313688372     0.000149111768    12.000000000000
         C           -0.202065743138    -0.410121688372     0.000223111768    12.000000000000
         C           -1.629017643138    -0.271198288372    -0.000046488232    12.000000000000
         C            0.380292256862     0.887390311628    -0.000147888232    12.000000000000
         C           -1.857822743138     1.111715311628    -0.000060888232    12.000000000000
         C            2.019750256862    -1.338032688372     0.000035111768    12.000000000000
         C            2.574325256862    -0.039266688372    -0.000072888232    12.000000000000
         C            0.645343256862    -1.534101688372    -0.000282888232    12.000000000000
         C            1.765951256862     1.090729311628     0.000299111768    12.000000000000
         N           -0.656340743138     1.792550311628    -0.000098888232    14.003074004430
         H            2.685892256862    -2.197650688372    -0.000354888232     1.007825032230
         H            3.655447256862     0.078724311628     0.000272111768     1.007825032230
         H            0.230275256862    -2.540502688372    -0.000062888232     1.007825032230
         H            2.195899256862     2.090645311628     0.000288111768     1.007825032230
         H           -3.661170743138    -0.920513688372    -0.000189888232     1.007825032230
         H           -2.551662743138    -1.977975688372     0.883287111768     1.007825032230
         H           -2.797248743138     1.651921311628    -0.000357888232     1.007825032230
         H           -0.556152743138     2.798540311628    -0.000116888232     1.007825032230
         H           -2.551329743138    -1.978566688372    -0.882526888232     1.007825032230

  Nuclear repulsion =  483.071681915198667
  Reference energy  = -400.637955365354401

  ==> Basis Set <==

  Basis Set: AUG-CC-PVTZ
    Blend: AUG-CC-PVTZ
    Number of shells: 221
    Number of basis function: 667
    Number of Cartesian functions: 775
    Spherical Harmonics?: true
    Max angular momentum: 3

  ==> CGRSolver (by Rob Parrish) <==

   Number of roots    =         1
   Preconditioning    =    JACOBI
   Convergence cutoff =     1E-06
   Maximum iterations =       100

  ==> CPHFRHamiltonian (by Rob Parrish) <== 

  ==> MemDFJK: Density-Fitted J/K Matrices <==

    J tasked:                   Yes
    K tasked:                   Yes
    wK tasked:                   No
    OpenMP threads:               8
    Memory [MiB]:             22888
    Algorithm:                 Disk
    Schwarz Cutoff:           1E-12
    Mask sparsity (%):       4.8587
    Fitting Condition:        1E-10

   => Auxiliary Basis Set <=

  Basis Set: (AUG-CC-PVTZ AUX)
    Blend: AUG-CC-PVTZ-JKFIT
    Number of shells: 426
    Number of basis function: 1454
    Number of Cartesian functions: 1805
    Spherical Harmonics?: true
    Max angular momentum: 4

  ==> CPHF Iterations <==

  => Iterations <=

             Iter  Converged  Remaining    Residual
  CGR           1          0          1   8.835E-02
  CGR           2          0          1   3.167E-02
  CGR           3          0          1   1.782E-02
  CGR           4          0          1   6.758E-03
  CGR           5          0          1   3.025E-03
  CGR           6          0          1   1.686E-03
  CGR           7          0          1   5.486E-04
  CGR           8          0          1   1.878E-04
  CGR           9          0          1   6.955E-05
  CGR          10          0          1   3.460E-05
  CGR          11          0          1   1.806E-05
  CGR          12          0          1   6.398E-06
  CGR          13          0          1   1.988E-06
  CGR          14          1          0   5.396E-07

    CGRSolver converged.

	-----------------------------------------------------------
	 ==================> DF-MP2 Energies <==================== 
	-----------------------------------------------------------
	 Reference Energy          =    -400.6379553653544008 [Eh]
	 Singles Energy            =      -0.0000000000000000 [Eh]
	 Same-Spin Energy          =      -0.4522286970936311 [Eh]
	 Opposite-Spin Energy      =      -1.4049742554683951 [Eh]
	 Correlation Energy        =      -1.8572029525620262 [Eh]
	 Total Energy              =    -402.4951583179164345 [Eh]
	-----------------------------------------------------------
	 ================> DF-SCS-MP2 Energies <================== 
	-----------------------------------------------------------
	 SCS Same-Spin Scale       =       0.3333333333333333 [-]
	 SCS Opposite-Spin Scale   =       1.2000000000000000 [-]
	 SCS Same-Spin Energy      =      -0.1507428990312104 [Eh]
	 SCS Opposite-Spin Energy  =      -1.6859691065620741 [Eh]
	 SCS Correlation Energy    =      -1.8367120055932844 [Eh]
	 SCS Total Energy          =    -402.4746673709477136 [Eh]
	-----------------------------------------------------------



Properties will be evaluated at   0.000000,   0.000000,   0.000000 [a0]

Properties computed using the MP2 density matrix

  Nuclear Dipole Moment: [e a0]
     X:    -3.1387      Y:    -2.8133      Z:     0.0002

  Electronic Dipole Moment: [e a0]
     X:     2.7573      Y:     3.5237      Z:    -0.0002

  Dipole Moment: [e a0]
     X:    -0.3813      Y:     0.7104      Z:    -0.0000     Total:     0.8063

  Dipole Moment: [D]
     X:    -0.9693      Y:     1.8056      Z:    -0.0001     Total:     2.0493


*** tstop() called on node142.bme.utexas.edu at Tue Nov 17 10:44:07 2020
Module time:
	user time   =    1024.23 seconds =      17.07 minutes
	system time =      50.23 seconds =       0.84 minutes
	total time  =        175 seconds =       2.92 minutes
Total time:
	user time   =    1362.95 seconds =      22.72 minutes
	system time =      94.94 seconds =       1.58 minutes
	total time  =        254 seconds =       4.23 minutes

    Psi4 stopped on: Tuesday, 17 November 2020 10:44AM
    Psi4 wall time for execution: 0:04:14.84

*** Psi4 exiting successfully. Buy a developer a beer!
