
    -----------------------------------------------------------------------
          Psi4: An Open-Source Ab Initio Electronic Structure Package
                               Psi4 1.3.2 release

                         Git: Rev {HEAD} ecbda83 


    R. M. Parrish, L. A. Burns, D. G. A. Smith, A. C. Simmonett,
    A. E. DePrince III, E. G. Hohenstein, U. Bozkaya, A. Yu. Sokolov,
    R. Di Remigio, R. M. Richard, J. F. Gonthier, A. M. James,
    H. R. McAlexander, A. Kumar, M. Saitow, X. Wang, B. P. Pritchard,
    P. Verma, H. F. Schaefer III, K. Patkowski, R. A. King, E. F. Valeev,
    F. A. Evangelista, J. M. Turney, T. D. Crawford, and C. D. Sherrill,
    J. Chem. Theory Comput. 13(7) pp 3185--3197 (2017).
    (doi: 10.1021/acs.jctc.7b00174)


                         Additional Contributions by
    P. Kraus, H. Kruse, M. H. Lechner, M. C. Schieber, R. A. Shaw,
    A. Alenaizan, R. Galvelis, Z. L. Glick, S. Lehtola, and J. P. Misiewicz

    -----------------------------------------------------------------------


    Psi4 started on: Wednesday, 04 November 2020 12:58PM

    Process ID: 8289
    Host:       node142.bme.utexas.edu
    PSIDATADIR: /home/xy3866/psi4conda/share/psi4
    Memory:     500.0 MiB
    Threads:    8
    
  ==> Input File <==

--------------------------------------------------------------------------
#psi4
#
memory 32 gb

molecule  {
0 1
  C       -2.6260010    -1.3181790     0.0001460
  C       -0.2011210    -0.3806258     0.0002064
  C       -1.6028750    -0.2271810    -0.0000330
  C        0.4037930     0.9065250    -0.0001510
  C       -1.8343220     1.1308500    -0.0000640
  C        2.0432510    -1.3188980     0.0000320
  C        2.5978260    -0.0201320    -0.0000760
  C        0.6688440    -1.5149670    -0.0002860
  C        1.7894520     1.1098640     0.0002960
  N       -0.6328400     1.8116850    -0.0001020
  H        2.7093930    -2.1785160    -0.0003580
  H        3.6789480     0.0978590     0.0002690
  H        0.2537760    -2.5213680    -0.0000660
  H        2.2194000     2.1097800     0.0002850
  H       -3.6376700    -0.9013790    -0.0001930
  H       -2.5281620    -1.9588410     0.8832840
  H       -2.7737480     1.6710560    -0.0003610
  H       -0.5326520     2.8176750    -0.0001200
  H       -2.5278290    -1.9594320    -0.8825300
units angstrom
no_reorient  #important for SAPT in psi4, default
symmetry c1  #important for SAPT in psi4, default
}

set PROPERTIES_ORIGIN ["COM"]
properties('MP2/aug-cc-pvtz', properties = ['dipole'])
--------------------------------------------------------------------------

  Memory set to  29.802 GiB by Python driver.
    SCF Algorithm Type (re)set to DF.

*** tstart() called on node142.bme.utexas.edu
*** at Wed Nov  4 12:58:35 2020

   => Loading Basis Set <=

    Name: AUG-CC-PVTZ
    Role: ORBITAL
    Keyword: BASIS
    atoms 1-9   entry C          line   235 file /home/xy3866/psi4conda/share/psi4/basis/aug-cc-pvtz.gbs 
    atoms 10    entry N          line   281 file /home/xy3866/psi4conda/share/psi4/basis/aug-cc-pvtz.gbs 
    atoms 11-19 entry H          line    36 file /home/xy3866/psi4conda/share/psi4/basis/aug-cc-pvtz.gbs 


         ---------------------------------------------------------
                                   SCF
               by Justin Turney, Rob Parrish, Andy Simmonett
                          and Daniel G. A. Smith
                              RHF Reference
                        8 Threads,  30517 MiB Core
         ---------------------------------------------------------

  ==> Geometry <==

    Molecular point group: c1
    Full point group: C1

    Geometry (in Angstrom), charge = 0, multiplicity = 1:

       Center              X                  Y                   Z               Mass       
    ------------   -----------------  -----------------  -----------------  -----------------
         C           -2.647678573685    -1.340540317723     0.000148837113    12.000000000000
         C           -0.222798573685    -0.402987117723     0.000209237113    12.000000000000
         C           -1.624552573685    -0.249542317723    -0.000030162887    12.000000000000
         C            0.382115426315     0.884163682277    -0.000148162887    12.000000000000
         C           -1.855999573685     1.108488682277    -0.000061162887    12.000000000000
         C            2.021573426315    -1.341259317723     0.000034837113    12.000000000000
         C            2.576148426315    -0.042493317723    -0.000073162887    12.000000000000
         C            0.647166426315    -1.537328317723    -0.000283162887    12.000000000000
         C            1.767774426315     1.087502682277     0.000298837113    12.000000000000
         N           -0.654517573685     1.789323682277    -0.000099162887    14.003074004430
         H            2.687715426315    -2.200877317723    -0.000355162887     1.007825032230
         H            3.657270426315     0.075497682277     0.000271837113     1.007825032230
         H            0.232098426315    -2.543729317723    -0.000063162887     1.007825032230
         H            2.197722426315     2.087418682277     0.000287837113     1.007825032230
         H           -3.659347573685    -0.923740317723    -0.000190162887     1.007825032230
         H           -2.549839573685    -1.981202317723     0.883286837113     1.007825032230
         H           -2.795425573685     1.648694682277    -0.000358162887     1.007825032230
         H           -0.554329573685     2.795313682277    -0.000117162887     1.007825032230
         H           -2.549506573685    -1.981793317723    -0.882527162887     1.007825032230

  Running in c1 symmetry.

  Rotational constants: A =      0.08690  B =      0.04226  C =      0.02859 [cm^-1]
  Rotational constants: A =   2605.12299  B =   1267.03565  C =    856.98271 [MHz]
  Nuclear repulsion =  483.310441310855595

  Charge       = 0
  Multiplicity = 1
  Electrons    = 70
  Nalpha       = 35
  Nbeta        = 35

  ==> Algorithm <==

  SCF Algorithm Type is DF.
  DIIS enabled.
  MOM disabled.
  Fractional occupation disabled.
  Guess Type is SAD.
  Energy threshold   = 1.00e-10
  Density threshold  = 1.00e-10
  Integral threshold = 0.00e+00

  ==> Primary Basis <==

  Basis Set: AUG-CC-PVTZ
    Blend: AUG-CC-PVTZ
    Number of shells: 221
    Number of basis function: 667
    Number of Cartesian functions: 775
    Spherical Harmonics?: true
    Max angular momentum: 3

   => Loading Basis Set <=

    Name: (AUG-CC-PVTZ AUX)
    Role: JKFIT
    Keyword: DF_BASIS_SCF
    atoms 1-9   entry C          line   162 file /home/xy3866/psi4conda/share/psi4/basis/aug-cc-pvtz-jkfit.gbs 
    atoms 10    entry N          line   224 file /home/xy3866/psi4conda/share/psi4/basis/aug-cc-pvtz-jkfit.gbs 
    atoms 11-19 entry H          line    70 file /home/xy3866/psi4conda/share/psi4/basis/aug-cc-pvtz-jkfit.gbs 

  ==> Pre-Iterations <==

   -------------------------------------------------------
    Irrep   Nso     Nmo     Nalpha   Nbeta   Ndocc  Nsocc
   -------------------------------------------------------
     A        667     667       0       0       0       0
   -------------------------------------------------------
    Total     667     667      35      35      35       0
   -------------------------------------------------------

  ==> Integral Setup <==

  DFHelper Memory: AOs need 4.717 GiB; user supplied 22.352 GiB. Using in-core AOs.

  ==> MemDFJK: Density-Fitted J/K Matrices <==

    J tasked:                   Yes
    K tasked:                   Yes
    wK tasked:                   No
    OpenMP threads:               8
    Memory [MiB]:             22888
    Algorithm:                 Disk
    Schwarz Cutoff:           1E-12
    Mask sparsity (%):       4.8587
    Fitting Condition:        1E-10

   => Auxiliary Basis Set <=

  Basis Set: (AUG-CC-PVTZ AUX)
    Blend: AUG-CC-PVTZ-JKFIT
    Number of shells: 426
    Number of basis function: 1454
    Number of Cartesian functions: 1805
    Spherical Harmonics?: true
    Max angular momentum: 4

  Minimum eigenvalue in the overlap matrix is 5.0435134999E-07.
  Using Symmetric Orthogonalization.

  SCF Guess: Superposition of Atomic Densities via on-the-fly atomic UHF.

  ==> Iterations <==

                           Total Energy        Delta E     RMS |[F,P]|

   @DF-RHF iter SAD:  -400.46471627979787   -4.00465e+02   0.00000e+00 
   @DF-RHF iter   1:  -400.33269718205298    1.32019e-01   1.05132e-03 DIIS
   @DF-RHF iter   2:  -400.57182091293652   -2.39124e-01   5.24830e-04 DIIS
   @DF-RHF iter   3:  -400.63379774342616   -6.19768e-02   1.21395e-04 DIIS
   @DF-RHF iter   4:  -400.63787537149437   -4.07763e-03   5.33662e-05 DIIS
   @DF-RHF iter   5:  -400.63860124176114   -7.25870e-04   8.85109e-06 DIIS
   @DF-RHF iter   6:  -400.63863851018976   -3.72684e-05   4.14800e-06 DIIS
   @DF-RHF iter   7:  -400.63864744718626   -8.93700e-06   1.61448e-06 DIIS
   @DF-RHF iter   8:  -400.63864992081625   -2.47363e-06   7.10070e-07 DIIS
   @DF-RHF iter   9:  -400.63865045424893   -5.33433e-07   3.28879e-07 DIIS
   @DF-RHF iter  10:  -400.63865056277996   -1.08531e-07   1.47251e-07 DIIS
   @DF-RHF iter  11:  -400.63865059306090   -3.02809e-08   6.34883e-08 DIIS
   @DF-RHF iter  12:  -400.63865059796211   -4.90121e-09   2.50948e-08 DIIS
   @DF-RHF iter  13:  -400.63865059844301   -4.80895e-10   8.00606e-09 DIIS
   @DF-RHF iter  14:  -400.63865059847626   -3.32534e-11   2.63481e-09 DIIS
   @DF-RHF iter  15:  -400.63865059848172   -5.45697e-12   8.43284e-10 DIIS
   @DF-RHF iter  16:  -400.63865059848092    7.95808e-13   4.54255e-10 DIIS
   @DF-RHF iter  17:  -400.63865059848024    6.82121e-13   2.14409e-10 DIIS
   @DF-RHF iter  18:  -400.63865059848143   -1.19371e-12   9.37137e-11 DIIS
  Energy and wave function converged.


  ==> Post-Iterations <==

    Orbital Energies [Eh]
    ---------------------

    Doubly Occupied:                                                      

       1A    -15.600849     2A    -11.264498     3A    -11.264406  
       4A    -11.232389     5A    -11.232301     6A    -11.229407  
       7A    -11.222127     8A    -11.221913     9A    -11.221295  
      10A    -11.220232    11A     -1.293002    12A     -1.124842  
      13A     -1.075005    14A     -0.996232    15A     -0.984859  
      16A     -0.931871    17A     -0.838307    18A     -0.804386  
      19A     -0.756749    20A     -0.719842    21A     -0.660863  
      22A     -0.644579    23A     -0.603886    24A     -0.592866  
      25A     -0.589820    26A     -0.569265    27A     -0.551575  
      28A     -0.543422    29A     -0.529575    30A     -0.496629  
      31A     -0.477994    32A     -0.461598    33A     -0.375277  
      34A     -0.299840    35A     -0.275783  

    Virtual:                                                              

      36A      0.024798    37A      0.031203    38A      0.032994  
      39A      0.043000    40A      0.044625    41A      0.049721  
      42A      0.060982    43A      0.063698    44A      0.075838  
      45A      0.083253    46A      0.088009    47A      0.097182  
      48A      0.105468    49A      0.105964    50A      0.107605  
      51A      0.116489    52A      0.117234    53A      0.117401  
      54A      0.123873    55A      0.126164    56A      0.128044  
      57A      0.131684    58A      0.133107    59A      0.140564  
      60A      0.147866    61A      0.148511    62A      0.149558  
      63A      0.156397    64A      0.158999    65A      0.159280  
      66A      0.165070    67A      0.174438    68A      0.174673  
      69A      0.181954    70A      0.182982    71A      0.195590  
      72A      0.197180    73A      0.210411    74A      0.211382  
      75A      0.215362    76A      0.219098    77A      0.219700  
      78A      0.229999    79A      0.241106    80A      0.249601  
      81A      0.250004    82A      0.250208    83A      0.267225  
      84A      0.268910    85A      0.269998    86A      0.284999  
      87A      0.285883    88A      0.292580    89A      0.302271  
      90A      0.304980    91A      0.314880    92A      0.318833  
      93A      0.321154    94A      0.325365    95A      0.332682  
      96A      0.337332    97A      0.339939    98A      0.343215  
      99A      0.344924   100A      0.348359   101A      0.354628  
     102A      0.356157   103A      0.365559   104A      0.370066  
     105A      0.371602   106A      0.373668   107A      0.379206  
     108A      0.388168   109A      0.397227   110A      0.402037  
     111A      0.404557   112A      0.409254   113A      0.415102  
     114A      0.421306   115A      0.427431   116A      0.429852  
     117A      0.431603   118A      0.436764   119A      0.442063  
     120A      0.444852   121A      0.458363   122A      0.462607  
     123A      0.466934   124A      0.467047   125A      0.470189  
     126A      0.473327   127A      0.479367   128A      0.488901  
     129A      0.491175   130A      0.492747   131A      0.494539  
     132A      0.501507   133A      0.504241   134A      0.509996  
     135A      0.511640   136A      0.515831   137A      0.516521  
     138A      0.520274   139A      0.521981   140A      0.528264  
     141A      0.535366   142A      0.537741   143A      0.543954  
     144A      0.547882   145A      0.551480   146A      0.552779  
     147A      0.559627   148A      0.564204   149A      0.571339  
     150A      0.572866   151A      0.578656   152A      0.590469  
     153A      0.595631   154A      0.619710   155A      0.624156  
     156A      0.630243   157A      0.631839   158A      0.635943  
     159A      0.645991   160A      0.652403   161A      0.664043  
     162A      0.669046   163A      0.677952   164A      0.681422  
     165A      0.697538   166A      0.700836   167A      0.707310  
     168A      0.715293   169A      0.725065   170A      0.731027  
     171A      0.733127   172A      0.735328   173A      0.737220  
     174A      0.757204   175A      0.759070   176A      0.764071  
     177A      0.765508   178A      0.772004   179A      0.774687  
     180A      0.787980   181A      0.803269   182A      0.818596  
     183A      0.822952   184A      0.831401   185A      0.838887  
     186A      0.841350   187A      0.850758   188A      0.857364  
     189A      0.859882   190A      0.863102   191A      0.866446  
     192A      0.885145   193A      0.885828   194A      0.886371  
     195A      0.894308   196A      0.900221   197A      0.901609  
     198A      0.906725   199A      0.909010   200A      0.914988  
     201A      0.915014   202A      0.930987   203A      0.933514  
     204A      0.939796   205A      0.944212   206A      0.947272  
     207A      0.954677   208A      0.958227   209A      0.975487  
     210A      0.976283   211A      0.985233   212A      0.986448  
     213A      0.999968   214A      1.001446   215A      1.004009  
     216A      1.009364   217A      1.014708   218A      1.018599  
     219A      1.020934   220A      1.027107   221A      1.028608  
     222A      1.034078   223A      1.048838   224A      1.054248  
     225A      1.061188   226A      1.061317   227A      1.069403  
     228A      1.079663   229A      1.081381   230A      1.082731  
     231A      1.090193   232A      1.095947   233A      1.096742  
     234A      1.101668   235A      1.114258   236A      1.125520  
     237A      1.133763   238A      1.135926   239A      1.142054  
     240A      1.152426   241A      1.153229   242A      1.155672  
     243A      1.162123   244A      1.167977   245A      1.171695  
     246A      1.182465   247A      1.186086   248A      1.188786  
     249A      1.189716   250A      1.196715   251A      1.204427  
     252A      1.208187   253A      1.220090   254A      1.227507  
     255A      1.228688   256A      1.239580   257A      1.240190  
     258A      1.244865   259A      1.256001   260A      1.262347  
     261A      1.273380   262A      1.283087   263A      1.287634  
     264A      1.301952   265A      1.305416   266A      1.308113  
     267A      1.314798   268A      1.321756   269A      1.333089  
     270A      1.336539   271A      1.352975   272A      1.360769  
     273A      1.370504   274A      1.373563   275A      1.383188  
     276A      1.385508   277A      1.391664   278A      1.398117  
     279A      1.404851   280A      1.410449   281A      1.421928  
     282A      1.431780   283A      1.435549   284A      1.450881  
     285A      1.458924   286A      1.459533   287A      1.465475  
     288A      1.470734   289A      1.471347   290A      1.483476  
     291A      1.483805   292A      1.490773   293A      1.507292  
     294A      1.517877   295A      1.531419   296A      1.536267  
     297A      1.546600   298A      1.560729   299A      1.572881  
     300A      1.599200   301A      1.599745   302A      1.612762  
     303A      1.618075   304A      1.624215   305A      1.632564  
     306A      1.648001   307A      1.656626   308A      1.669284  
     309A      1.677019   310A      1.683128   311A      1.685311  
     312A      1.702015   313A      1.715087   314A      1.715672  
     315A      1.717940   316A      1.725766   317A      1.736205  
     318A      1.746070   319A      1.749091   320A      1.769409  
     321A      1.784817   322A      1.790084   323A      1.791705  
     324A      1.796002   325A      1.815014   326A      1.817650  
     327A      1.821910   328A      1.835440   329A      1.855404  
     330A      1.855650   331A      1.876500   332A      1.885324  
     333A      1.889333   334A      1.896980   335A      1.908513  
     336A      1.919738   337A      1.920744   338A      1.931521  
     339A      1.946702   340A      1.953650   341A      1.958383  
     342A      1.969195   343A      1.981970   344A      1.990088  
     345A      2.004442   346A      2.013537   347A      2.023391  
     348A      2.031607   349A      2.036986   350A      2.041961  
     351A      2.053822   352A      2.059376   353A      2.067447  
     354A      2.077338   355A      2.087843   356A      2.099703  
     357A      2.105709   358A      2.132418   359A      2.136526  
     360A      2.141730   361A      2.142649   362A      2.148578  
     363A      2.163994   364A      2.180629   365A      2.188422  
     366A      2.189782   367A      2.195850   368A      2.211433  
     369A      2.227754   370A      2.239034   371A      2.242396  
     372A      2.256920   373A      2.268547   374A      2.271039  
     375A      2.288174   376A      2.305836   377A      2.309082  
     378A      2.310759   379A      2.316982   380A      2.337443  
     381A      2.344840   382A      2.369908   383A      2.373105  
     384A      2.390335   385A      2.400058   386A      2.401969  
     387A      2.422158   388A      2.428822   389A      2.450042  
     390A      2.461623   391A      2.465404   392A      2.494661  
     393A      2.509863   394A      2.535222   395A      2.550423  
     396A      2.560079   397A      2.566061   398A      2.585554  
     399A      2.588081   400A      2.605373   401A      2.615758  
     402A      2.632932   403A      2.651423   404A      2.670774  
     405A      2.701286   406A      2.722658   407A      2.743956  
     408A      2.749238   409A      2.765993   410A      2.822487  
     411A      2.834512   412A      2.857085   413A      2.864386  
     414A      2.890784   415A      2.959883   416A      2.964498  
     417A      3.006126   418A      3.012744   419A      3.044025  
     420A      3.064099   421A      3.091975   422A      3.137187  
     423A      3.177217   424A      3.224797   425A      3.239108  
     426A      3.256738   427A      3.289319   428A      3.293406  
     429A      3.297764   430A      3.331546   431A      3.357927  
     432A      3.368381   433A      3.373069   434A      3.387932  
     435A      3.388391   436A      3.399121   437A      3.410086  
     438A      3.431733   439A      3.443067   440A      3.449991  
     441A      3.450858   442A      3.457554   443A      3.484440  
     444A      3.491982   445A      3.494009   446A      3.500251  
     447A      3.519358   448A      3.542563   449A      3.557878  
     450A      3.564285   451A      3.574762   452A      3.575898  
     453A      3.583344   454A      3.593455   455A      3.608344  
     456A      3.625101   457A      3.631297   458A      3.639840  
     459A      3.641990   460A      3.646417   461A      3.655433  
     462A      3.669665   463A      3.682009   464A      3.701327  
     465A      3.702824   466A      3.729632   467A      3.737654  
     468A      3.738474   469A      3.746132   470A      3.761410  
     471A      3.765651   472A      3.791664   473A      3.798993  
     474A      3.810689   475A      3.818400   476A      3.836222  
     477A      3.838932   478A      3.854009   479A      3.863468  
     480A      3.864797   481A      3.892778   482A      3.900822  
     483A      3.911428   484A      3.914726   485A      3.936456  
     486A      3.938210   487A      3.941222   488A      3.949492  
     489A      3.953390   490A      3.970774   491A      3.985881  
     492A      3.996124   493A      4.005034   494A      4.011622  
     495A      4.026935   496A      4.027630   497A      4.040623  
     498A      4.074246   499A      4.081865   500A      4.083785  
     501A      4.093290   502A      4.105878   503A      4.131634  
     504A      4.137131   505A      4.147860   506A      4.148501  
     507A      4.149567   508A      4.164787   509A      4.176720  
     510A      4.179269   511A      4.183204   512A      4.213225  
     513A      4.222812   514A      4.234928   515A      4.248744  
     516A      4.257388   517A      4.257711   518A      4.275465  
     519A      4.277683   520A      4.292921   521A      4.299219  
     522A      4.313070   523A      4.328508   524A      4.344058  
     525A      4.348164   526A      4.379699   527A      4.380603  
     528A      4.385486   529A      4.392911   530A      4.403031  
     531A      4.410491   532A      4.418633   533A      4.420923  
     534A      4.433692   535A      4.442384   536A      4.454871  
     537A      4.469096   538A      4.479805   539A      4.485013  
     540A      4.501224   541A      4.519478   542A      4.537744  
     543A      4.540305   544A      4.551487   545A      4.567072  
     546A      4.572737   547A      4.575824   548A      4.586228  
     549A      4.611959   550A      4.656888   551A      4.664683  
     552A      4.681665   553A      4.693947   554A      4.700644  
     555A      4.713831   556A      4.737296   557A      4.737461  
     558A      4.754466   559A      4.793501   560A      4.802825  
     561A      4.810835   562A      4.816648   563A      4.841410  
     564A      4.855690   565A      4.864789   566A      4.874134  
     567A      4.883321   568A      4.904183   569A      4.910858  
     570A      4.951990   571A      4.964600   572A      4.976787  
     573A      4.989569   574A      5.007421   575A      5.016840  
     576A      5.043448   577A      5.053388   578A      5.079735  
     579A      5.080453   580A      5.089872   581A      5.104675  
     582A      5.127956   583A      5.145693   584A      5.148068  
     585A      5.161862   586A      5.164063   587A      5.169586  
     588A      5.191528   589A      5.193301   590A      5.216723  
     591A      5.220324   592A      5.230208   593A      5.244388  
     594A      5.254430   595A      5.275377   596A      5.294626  
     597A      5.323593   598A      5.352461   599A      5.381254  
     600A      5.386974   601A      5.404689   602A      5.413230  
     603A      5.441622   604A      5.468926   605A      5.514894  
     606A      5.531673   607A      5.558063   608A      5.571085  
     609A      5.590990   610A      5.599914   611A      5.609163  
     612A      5.627894   613A      5.650145   614A      5.671521  
     615A      5.672740   616A      5.674207   617A      5.711035  
     618A      5.764143   619A      5.767226   620A      5.831768  
     621A      5.852844   622A      5.858697   623A      5.897451  
     624A      5.915206   625A      5.939360   626A      6.013394  
     627A      6.077243   628A      6.089019   629A      6.102469  
     630A      6.128898   631A      6.174705   632A      6.177024  
     633A      6.216171   634A      6.238388   635A      6.249812  
     636A      6.275276   637A      6.318896   638A      6.349208  
     639A      6.384103   640A      6.448431   641A      6.474527  
     642A      6.581467   643A      6.628695   644A      6.680984  
     645A      6.724927   646A      6.769919   647A      6.835994  
     648A      6.859644   649A      6.889544   650A      6.965315  
     651A      7.014923   652A      7.040667   653A      7.115047  
     654A      7.190365   655A      7.215857   656A      7.520823  
     657A      7.848491   658A     16.296098   659A     16.771962  
     660A     17.210738   661A     18.784855   662A     18.956250  
     663A     19.308507   664A     19.948378   665A     20.439131  
     666A     20.690761   667A     21.175041  

    Final Occupation by Irrep:
              A 
    DOCC [    35 ]

  @DF-RHF Final Energy:  -400.63865059848143

   => Energetics <=

    Nuclear Repulsion Energy =            483.3104413108555946
    One-Electron Energy =               -1500.0832104584630997
    Two-Electron Energy =                 616.1341185491261285
    Total Energy =                       -400.6386505984813766

Computation Completed

*** tstop() called on node142.bme.utexas.edu at Wed Nov  4 13:01:07 2020
Module time:
	user time   =     678.75 seconds =      11.31 minutes
	system time =      67.18 seconds =       1.12 minutes
	total time  =        152 seconds =       2.53 minutes
Total time:
	user time   =     678.75 seconds =      11.31 minutes
	system time =      67.18 seconds =       1.12 minutes
	total time  =        152 seconds =       2.53 minutes
   => Loading Basis Set <=

    Name: (AUG-CC-PVTZ AUX)
    Role: RIFIT
    Keyword: DF_BASIS_MP2
    atoms 1-9   entry C          line   148 file /home/xy3866/psi4conda/share/psi4/basis/aug-cc-pvtz-ri.gbs 
    atoms 10    entry N          line   206 file /home/xy3866/psi4conda/share/psi4/basis/aug-cc-pvtz-ri.gbs 
    atoms 11-19 entry H          line    30 file /home/xy3866/psi4conda/share/psi4/basis/aug-cc-pvtz-ri.gbs 


*** tstart() called on node142.bme.utexas.edu
*** at Wed Nov  4 13:01:07 2020


  //>>>>>>>>>>>>>>>>>>>>>>>>>>>>>>>>>>>//
  //               DFMP2               //
  //<<<<<<<<<<<<<<<<<<<<<<<<<<<<<<<<<<<//

	 --------------------------------------------------------
	                          DF-MP2                         
	      2nd-Order Density-Fitted Moller-Plesset Theory     
	              RMP2 Wavefunction,   8 Threads             
	                                                         
	        Rob Parrish, Justin Turney, Andy Simmonett,      
	           Ed Hohenstein, and C. David Sherrill          
	 --------------------------------------------------------

   => Auxiliary Basis Set <=

  Basis Set: (AUG-CC-PVTZ AUX)
    Blend: AUG-CC-PVTZ-RI
    Number of shells: 406
    Number of basis function: 1474
    Number of Cartesian functions: 1855
    Spherical Harmonics?: true
    Max angular momentum: 4

	 --------------------------------------------------------
	                 NBF =   667, NAUX =  1474
	 --------------------------------------------------------
	   CLASS    FOCC     OCC    AOCC    AVIR     VIR    FVIR
	   PAIRS       0      35      35     632     632       0
	 --------------------------------------------------------

  DFHelper Memory: AOs need 4.717 GiB; user supplied 22.352 GiB. Using in-core AOs.


         ------------------------------------------------------------
                                     CPHF                           
                                  Rob Parrish                       
         ------------------------------------------------------------

  ==> Geometry <==

    Molecular point group: c1
    Full point group: C1

    Geometry (in Angstrom), charge = 0, multiplicity = 1:

       Center              X                  Y                   Z               Mass       
    ------------   -----------------  -----------------  -----------------  -----------------
         C           -2.647678573685    -1.340540317723     0.000148837113    12.000000000000
         C           -0.222798573685    -0.402987117723     0.000209237113    12.000000000000
         C           -1.624552573685    -0.249542317723    -0.000030162887    12.000000000000
         C            0.382115426315     0.884163682277    -0.000148162887    12.000000000000
         C           -1.855999573685     1.108488682277    -0.000061162887    12.000000000000
         C            2.021573426315    -1.341259317723     0.000034837113    12.000000000000
         C            2.576148426315    -0.042493317723    -0.000073162887    12.000000000000
         C            0.647166426315    -1.537328317723    -0.000283162887    12.000000000000
         C            1.767774426315     1.087502682277     0.000298837113    12.000000000000
         N           -0.654517573685     1.789323682277    -0.000099162887    14.003074004430
         H            2.687715426315    -2.200877317723    -0.000355162887     1.007825032230
         H            3.657270426315     0.075497682277     0.000271837113     1.007825032230
         H            0.232098426315    -2.543729317723    -0.000063162887     1.007825032230
         H            2.197722426315     2.087418682277     0.000287837113     1.007825032230
         H           -3.659347573685    -0.923740317723    -0.000190162887     1.007825032230
         H           -2.549839573685    -1.981202317723     0.883286837113     1.007825032230
         H           -2.795425573685     1.648694682277    -0.000358162887     1.007825032230
         H           -0.554329573685     2.795313682277    -0.000117162887     1.007825032230
         H           -2.549506573685    -1.981793317723    -0.882527162887     1.007825032230

  Nuclear repulsion =  483.310441310855595
  Reference energy  = -400.638650598481433

  ==> Basis Set <==

  Basis Set: AUG-CC-PVTZ
    Blend: AUG-CC-PVTZ
    Number of shells: 221
    Number of basis function: 667
    Number of Cartesian functions: 775
    Spherical Harmonics?: true
    Max angular momentum: 3

  ==> CGRSolver (by Rob Parrish) <==

   Number of roots    =         1
   Preconditioning    =    JACOBI
   Convergence cutoff =     1E-06
   Maximum iterations =       100

  ==> CPHFRHamiltonian (by Rob Parrish) <== 

  ==> MemDFJK: Density-Fitted J/K Matrices <==

    J tasked:                   Yes
    K tasked:                   Yes
    wK tasked:                   No
    OpenMP threads:               8
    Memory [MiB]:             22888
    Algorithm:                 Disk
    Schwarz Cutoff:           1E-12
    Mask sparsity (%):       4.8587
    Fitting Condition:        1E-10

   => Auxiliary Basis Set <=

  Basis Set: (AUG-CC-PVTZ AUX)
    Blend: AUG-CC-PVTZ-JKFIT
    Number of shells: 426
    Number of basis function: 1454
    Number of Cartesian functions: 1805
    Spherical Harmonics?: true
    Max angular momentum: 4

  ==> CPHF Iterations <==

  => Iterations <=

             Iter  Converged  Remaining    Residual
  CGR           1          0          1   8.792E-02
  CGR           2          0          1   3.150E-02
  CGR           3          0          1   1.764E-02
  CGR           4          0          1   6.703E-03
  CGR           5          0          1   3.042E-03
  CGR           6          0          1   1.710E-03
  CGR           7          0          1   5.540E-04
  CGR           8          0          1   1.849E-04
  CGR           9          0          1   6.757E-05
  CGR          10          0          1   3.269E-05
  CGR          11          0          1   1.655E-05
  CGR          12          0          1   6.141E-06
  CGR          13          0          1   1.956E-06
  CGR          14          1          0   5.335E-07

    CGRSolver converged.

	-----------------------------------------------------------
	 ==================> DF-MP2 Energies <==================== 
	-----------------------------------------------------------
	 Reference Energy          =    -400.6386505984814335 [Eh]
	 Singles Energy            =      -0.0000000000000000 [Eh]
	 Same-Spin Energy          =      -0.4520070031182103 [Eh]
	 Opposite-Spin Energy      =      -1.4045915256330321 [Eh]
	 Correlation Energy        =      -1.8565985287512423 [Eh]
	 Total Energy              =    -402.4952491272326824 [Eh]
	-----------------------------------------------------------
	 ================> DF-SCS-MP2 Energies <================== 
	-----------------------------------------------------------
	 SCS Same-Spin Scale       =       0.3333333333333333 [-]
	 SCS Opposite-Spin Scale   =       1.2000000000000000 [-]
	 SCS Same-Spin Energy      =      -0.1506690010394034 [Eh]
	 SCS Opposite-Spin Energy  =      -1.6855098307596386 [Eh]
	 SCS Correlation Energy    =      -1.8361788317990420 [Eh]
	 SCS Total Energy          =    -402.4748294302804652 [Eh]
	-----------------------------------------------------------



Properties will be evaluated at   0.000000,  -0.000000,   0.000000 [a0]

Properties computed using the MP2 density matrix

  Nuclear Dipole Moment: [e a0]
     X:    -3.1233      Y:    -2.8405      Z:     0.0002

  Electronic Dipole Moment: [e a0]
     X:     2.7374      Y:     3.5569      Z:    -0.0002

  Dipole Moment: [e a0]
     X:    -0.3859      Y:     0.7164      Z:    -0.0000     Total:     0.8137

  Dipole Moment: [D]
     X:    -0.9808      Y:     1.8208      Z:    -0.0001     Total:     2.0682


*** tstop() called on node142.bme.utexas.edu at Wed Nov  4 13:06:29 2020
Module time:
	user time   =    1890.94 seconds =      31.52 minutes
	system time =      75.82 seconds =       1.26 minutes
	total time  =        322 seconds =       5.37 minutes
Total time:
	user time   =    2570.98 seconds =      42.85 minutes
	system time =     143.08 seconds =       2.38 minutes
	total time  =        474 seconds =       7.90 minutes

    Psi4 stopped on: Wednesday, 04 November 2020 01:06PM
    Psi4 wall time for execution: 0:07:54.77

*** Psi4 exiting successfully. Buy a developer a beer!
