
    -----------------------------------------------------------------------
          Psi4: An Open-Source Ab Initio Electronic Structure Package
                               Psi4 1.4a3.dev225 

                         Git: Rev {master} 7105e37 


    D. G. A. Smith, L. A. Burns, A. C. Simmonett, R. M. Parrish,
    M. C. Schieber, R. Galvelis, P. Kraus, H. Kruse, R. Di Remigio,
    A. Alenaizan, A. M. James, S. Lehtola, J. P. Misiewicz, M. Scheurer,
    R. A. Shaw, J. B. Schriber, Y. Xie, Z. L. Glick, D. A. Sirianni,
    J. S. O'Brien, J. M. Waldrop, A. Kumar, E. G. Hohenstein,
    B. P. Pritchard, B. R. Brooks, H. F. Schaefer III, A. Yu. Sokolov,
    K. Patkowski, A. E. DePrince III, U. Bozkaya, R. A. King,
    F. A. Evangelista, J. M. Turney, T. D. Crawford, C. D. Sherrill,
    J. Chem. Phys. 152(18) 184108 (2020). https://doi.org/10.1063/5.0006002

                            Additional Code Authors
    E. T. Seidl, C. L. Janssen, E. F. Valeev, M. L. Leininger,
    J. F. Gonthier, R. M. Richard, H. R. McAlexander, M. Saitow, X. Wang,
    P. Verma, and M. H. Lechner

             Previous Authors, Complete List of Code Contributors,
                       and Citations for Specific Modules
    https://github.com/psi4/psi4/blob/master/codemeta.json
    https://github.com/psi4/psi4/graphs/contributors
    http://psicode.org/psi4manual/master/introduction.html#citing-psifour

    -----------------------------------------------------------------------


    Psi4 started on: Friday, 19 March 2021 01:36PM

    Process ID: 236472
    Host:       c468-104.stampede2.tacc.utexas.edu
    PSIDATADIR: /home1/07844/xy3866/miniconda3/envs/p4env/share/psi4
    Memory:     500.0 MiB
    Threads:    8
    
  ==> Input File <==

--------------------------------------------------------------------------
#psi4
#
memory 32 gb

molecule  {
0 1
  C       -2.6260070    -1.3181640     0.0000030
  C       -0.1785920    -0.3910100    -0.0000140
  C       -1.6028860    -0.2271800    -0.0000070
  C        0.4037990     0.9065080    -0.0000120
  C       -1.8343130     1.1308630     0.0000070
  C        2.0432640    -1.3188820     0.0000040
  C        2.5978420    -0.0201300     0.0000040
  C        0.6688530    -1.5149630     0.0000000
  C        1.7894440     1.1098670     0.0000020
  N       -0.6328500     1.8116730     0.0000060
  H        2.7093900    -2.1785170     0.0000140
  H        3.6988388     0.1000859     0.0000121
  H        0.2538510    -2.5213940    -0.0000090
  H        2.2194160     2.1097700    -0.0000210
  H       -3.6376970    -0.9014040    -0.0000240
  H       -2.5280300    -1.9591080     0.8829250
  H       -2.7737400     1.6710680     0.0000050
  H       -0.5326180     2.8176610     0.0000030
  H       -2.5279980    -1.9591520    -0.8828820
units angstrom
no_reorient  #important for SAPT in psi4, default
symmetry c1  #important for SAPT in psi4, default
}

set PROPERTIES_ORIGIN ["COM"]
properties('MP2/aug-cc-pvtz', properties = ['dipole'])
--------------------------------------------------------------------------

  Memory set to  29.802 GiB by Python driver.
    SCF Algorithm Type (re)set to DF.

*** tstart() called on c468-104.stampede2.tacc.utexas.edu
*** at Fri Mar 19 13:36:06 2021

   => Loading Basis Set <=

    Name: AUG-CC-PVTZ
    Role: ORBITAL
    Keyword: BASIS
    atoms 1-9   entry C          line   239 file /home1/07844/xy3866/miniconda3/envs/p4env/share/psi4/basis/aug-cc-pvtz.gbs 
    atoms 10    entry N          line   285 file /home1/07844/xy3866/miniconda3/envs/p4env/share/psi4/basis/aug-cc-pvtz.gbs 
    atoms 11-19 entry H          line    40 file /home1/07844/xy3866/miniconda3/envs/p4env/share/psi4/basis/aug-cc-pvtz.gbs 


         ---------------------------------------------------------
                                   SCF
               by Justin Turney, Rob Parrish, Andy Simmonett
                          and Daniel G. A. Smith
                              RHF Reference
                        8 Threads,  30517 MiB Core
         ---------------------------------------------------------

  ==> Geometry <==

    Molecular point group: c1
    Full point group: C1

    Geometry (in Angstrom), charge = 0, multiplicity = 1:

       Center              X                  Y                   Z               Mass       
    ------------   -----------------  -----------------  -----------------  -----------------
         C           -2.649902084726    -1.339593462611     0.000003371553    12.000000000000
         C           -0.202487084726    -0.412439462611    -0.000013628447    12.000000000000
         C           -1.626781084726    -0.248609462611    -0.000006628447    12.000000000000
         C            0.379903915274     0.885078537389    -0.000011628447    12.000000000000
         C           -1.858208084726     1.109433537389     0.000007371553    12.000000000000
         C            2.019368915274    -1.340311462611     0.000004371553    12.000000000000
         C            2.573946915274    -0.041559462611     0.000004371553    12.000000000000
         C            0.644957915274    -1.536392462611     0.000000371553    12.000000000000
         C            1.765548915274     1.088437537389     0.000002371553    12.000000000000
         N           -0.656745084726     1.790243537389     0.000006371553    14.003074004430
         H            2.685494915274    -2.199946462611     0.000014371553     1.007825032230
         H            3.674943715274     0.078656437389     0.000012471553     1.007825032230
         H            0.229955915274    -2.542823462611    -0.000008628447     1.007825032230
         H            2.195520915274     2.088340537389    -0.000020628447     1.007825032230
         H           -3.661592084726    -0.922833462611    -0.000023628447     1.007825032230
         H           -2.551925084726    -1.980537462611     0.882925371553     1.007825032230
         H           -2.797635084726     1.649638537389     0.000005371553     1.007825032230
         H           -0.556513084726     2.796231537389     0.000003371553     1.007825032230
         H           -2.551893084726    -1.980581462611    -0.882881628447     1.007825032230

  Running in c1 symmetry.

  Rotational constants: A =      0.08685  B =      0.04226  C =      0.02858 [cm^-1]
  Rotational constants: A =   2603.83138  B =   1266.91328  C =    856.78687 [MHz]
  Nuclear repulsion =  483.156272889106447

  Charge       = 0
  Multiplicity = 1
  Electrons    = 70
  Nalpha       = 35
  Nbeta        = 35

  ==> Algorithm <==

  SCF Algorithm Type is DF.
  DIIS enabled.
  MOM disabled.
  Fractional occupation disabled.
  Guess Type is SAD.
  Energy threshold   = 1.00e-10
  Density threshold  = 1.00e-10
  Integral threshold = 1.00e-12

  ==> Primary Basis <==

  Basis Set: AUG-CC-PVTZ
    Blend: AUG-CC-PVTZ
    Number of shells: 221
    Number of basis functions: 667
    Number of Cartesian functions: 775
    Spherical Harmonics?: true
    Max angular momentum: 3

   => Loading Basis Set <=

    Name: (AUG-CC-PVTZ AUX)
    Role: JKFIT
    Keyword: DF_BASIS_SCF
    atoms 1-9   entry C          line   162 file /home1/07844/xy3866/miniconda3/envs/p4env/share/psi4/basis/aug-cc-pvtz-jkfit.gbs 
    atoms 10    entry N          line   224 file /home1/07844/xy3866/miniconda3/envs/p4env/share/psi4/basis/aug-cc-pvtz-jkfit.gbs 
    atoms 11-19 entry H          line    70 file /home1/07844/xy3866/miniconda3/envs/p4env/share/psi4/basis/aug-cc-pvtz-jkfit.gbs 

  ==> Integral Setup <==

  DFHelper Memory: AOs need 4.558 GiB; user supplied 22.352 GiB. Using in-core AOs.

  ==> MemDFJK: Density-Fitted J/K Matrices <==

    J tasked:                   Yes
    K tasked:                   Yes
    wK tasked:                   No
    OpenMP threads:               8
    Memory [MiB]:             22888
    Algorithm:                 Core
    Schwarz Cutoff:           1E-12
    Mask sparsity (%):       8.1553
    Fitting Condition:        1E-10

   => Auxiliary Basis Set <=

  Basis Set: (AUG-CC-PVTZ AUX)
    Blend: AUG-CC-PVTZ-JKFIT
    Number of shells: 426
    Number of basis functions: 1454
    Number of Cartesian functions: 1805
    Spherical Harmonics?: true
    Max angular momentum: 4

  Minimum eigenvalue in the overlap matrix is 4.9985912192E-07.
  Reciprocal condition number of the overlap matrix is 2.5634408591E-08.
    Using symmetric orthogonalization.

  ==> Pre-Iterations <==

  SCF Guess: Superposition of Atomic Densities via on-the-fly atomic UHF (no occupation information).

   -------------------------
    Irrep   Nso     Nmo    
   -------------------------
     A        667     667 
   -------------------------
    Total     667     667
   -------------------------

  ==> Iterations <==

                           Total Energy        Delta E     RMS |[F,P]|

   @DF-RHF iter SAD:  -400.45146406030995   -4.00451e+02   0.00000e+00 
   @DF-RHF iter   1:  -400.33345594789171    1.18008e-01   1.05118e-03 DIIS
   @DF-RHF iter   2:  -400.57263050485011   -2.39175e-01   5.24837e-04 DIIS
   @DF-RHF iter   3:  -400.63468257488125   -6.20521e-02   1.21436e-04 DIIS
   @DF-RHF iter   4:  -400.63876692826329   -4.08435e-03   5.35058e-05 DIIS
   @DF-RHF iter   5:  -400.63949710740479   -7.30179e-04   8.82639e-06 DIIS
   @DF-RHF iter   6:  -400.63953409652100   -3.69891e-05   4.13675e-06 DIIS
   @DF-RHF iter   7:  -400.63954284740322   -8.75088e-06   1.58384e-06 DIIS
   @DF-RHF iter   8:  -400.63954517859111   -2.33119e-06   6.86970e-07 DIIS
   @DF-RHF iter   9:  -400.63954566372416   -4.85133e-07   3.13367e-07 DIIS
   @DF-RHF iter  10:  -400.63954576074349   -9.70193e-08   1.40399e-07 DIIS
   @DF-RHF iter  11:  -400.63954578791032   -2.71668e-08   6.21328e-08 DIIS
   @DF-RHF iter  12:  -400.63954579252106   -4.61074e-09   2.55121e-08 DIIS
   @DF-RHF iter  13:  -400.63954579304834   -5.27280e-10   7.98068e-09 DIIS
   @DF-RHF iter  14:  -400.63954579308592   -3.75735e-11   2.74236e-09 DIIS
   @DF-RHF iter  15:  -400.63954579309006   -4.14957e-12   1.01851e-09 DIIS
   @DF-RHF iter  16:  -400.63954579309103   -9.66338e-13   5.66554e-10 DIIS
   @DF-RHF iter  17:  -400.63954579309154   -5.11591e-13   2.82628e-10 DIIS
   @DF-RHF iter  18:  -400.63954579309166   -1.13687e-13   1.06931e-10 DIIS
   @DF-RHF iter  19:  -400.63954579309143    2.27374e-13   4.79802e-11 DIIS
  Energy and wave function converged.


  ==> Post-Iterations <==

    Orbital Energies [Eh]
    ---------------------

    Doubly Occupied:                                                      

       1A    -15.600031     2A    -11.265417     3A    -11.264612  
       4A    -11.232557     5A    -11.231301     6A    -11.230786  
       7A    -11.222797     8A    -11.221884     9A    -11.221416  
      10A    -11.221267    11A     -1.291770    12A     -1.126979  
      13A     -1.072121    14A     -0.997433    15A     -0.985245  
      16A     -0.930895    17A     -0.838824    18A     -0.802976  
      19A     -0.755894    20A     -0.719784    21A     -0.658877  
      22A     -0.643971    23A     -0.603432    24A     -0.592714  
      25A     -0.592023    26A     -0.569702    27A     -0.551447  
      28A     -0.542123    29A     -0.528079    30A     -0.497617  
      31A     -0.475486    32A     -0.463196    33A     -0.374640  
      34A     -0.298754    35A     -0.277811  

    Virtual:                                                              

      36A      0.024804    37A      0.031257    38A      0.032951  
      39A      0.042989    40A      0.044635    41A      0.049754  
      42A      0.060983    43A      0.063743    44A      0.075755  
      45A      0.083586    46A      0.088091    47A      0.097077  
      48A      0.105517    49A      0.105840    50A      0.108436  
      51A      0.116205    52A      0.117157    53A      0.117474  
      54A      0.123785    55A      0.126200    56A      0.128005  
      57A      0.131954    58A      0.133008    59A      0.140245  
      60A      0.147969    61A      0.148494    62A      0.149719  
      63A      0.156348    64A      0.159088    65A      0.159744  
      66A      0.165107    67A      0.174377    68A      0.174648  
      69A      0.181923    70A      0.182370    71A      0.195643  
      72A      0.197227    73A      0.210526    74A      0.211296  
      75A      0.215394    76A      0.218601    77A      0.218913  
      78A      0.230177    79A      0.240774    80A      0.249412  
      81A      0.249895    82A      0.250445    83A      0.267309  
      84A      0.268887    85A      0.270066    86A      0.284468  
      87A      0.285505    88A      0.292821    89A      0.302197  
      90A      0.304564    91A      0.314593    92A      0.318833  
      93A      0.321139    94A      0.325725    95A      0.333028  
      96A      0.336825    97A      0.339129    98A      0.342963  
      99A      0.345186   100A      0.348741   101A      0.354283  
     102A      0.356187   103A      0.365545   104A      0.369804  
     105A      0.372229   106A      0.373612   107A      0.378993  
     108A      0.388163   109A      0.397274   110A      0.401862  
     111A      0.404484   112A      0.408909   113A      0.414905  
     114A      0.421334   115A      0.427094   116A      0.429665  
     117A      0.431814   118A      0.436741   119A      0.442301  
     120A      0.445160   121A      0.458891   122A      0.461563  
     123A      0.466699   124A      0.467945   125A      0.469322  
     126A      0.473893   127A      0.479229   128A      0.489548  
     129A      0.490790   130A      0.492316   131A      0.494091  
     132A      0.501796   133A      0.503646   134A      0.510203  
     135A      0.511702   136A      0.515930   137A      0.516254  
     138A      0.519845   139A      0.522096   140A      0.527849  
     141A      0.534788   142A      0.537512   143A      0.544819  
     144A      0.548176   145A      0.550950   146A      0.553159  
     147A      0.559415   148A      0.563403   149A      0.571490  
     150A      0.571663   151A      0.578229   152A      0.590869  
     153A      0.595684   154A      0.619974   155A      0.624372  
     156A      0.630029   157A      0.632080   158A      0.636787  
     159A      0.645093   160A      0.652473   161A      0.663788  
     162A      0.668620   163A      0.678077   164A      0.681074  
     165A      0.697829   166A      0.700891   167A      0.706563  
     168A      0.713940   169A      0.725047   170A      0.730186  
     171A      0.734074   172A      0.735438   173A      0.736493  
     174A      0.757635   175A      0.760032   176A      0.763401  
     177A      0.763893   178A      0.771657   179A      0.775122  
     180A      0.787657   181A      0.801276   182A      0.818950  
     183A      0.821458   184A      0.831203   185A      0.840896  
     186A      0.841562   187A      0.851036   188A      0.857529  
     189A      0.859779   190A      0.863503   191A      0.866290  
     192A      0.884821   193A      0.885073   194A      0.886664  
     195A      0.894380   196A      0.899540   197A      0.900223  
     198A      0.906489   199A      0.909195   200A      0.915068  
     201A      0.916099   202A      0.930705   203A      0.934017  
     204A      0.939632   205A      0.943499   206A      0.947923  
     207A      0.955962   208A      0.958338   209A      0.975318  
     210A      0.975457   211A      0.984956   212A      0.986179  
     213A      1.001043   214A      1.002107   215A      1.003842  
     216A      1.009280   217A      1.013873   218A      1.019087  
     219A      1.021676   220A      1.026391   221A      1.029386  
     222A      1.033960   223A      1.048805   224A      1.053080  
     225A      1.060933   226A      1.061307   227A      1.069231  
     228A      1.079936   229A      1.082007   230A      1.083085  
     231A      1.089973   232A      1.094659   233A      1.097165  
     234A      1.101719   235A      1.115074   236A      1.125284  
     237A      1.133892   238A      1.135591   239A      1.142228  
     240A      1.151452   241A      1.152048   242A      1.155660  
     243A      1.161744   244A      1.167125   245A      1.171586  
     246A      1.182115   247A      1.185613   248A      1.187713  
     249A      1.189292   250A      1.196861   251A      1.203819  
     252A      1.207093   253A      1.219912   254A      1.226806  
     255A      1.228100   256A      1.236766   257A      1.239380  
     258A      1.243761   259A      1.255238   260A      1.261926  
     261A      1.275282   262A      1.281463   263A      1.286106  
     264A      1.302058   265A      1.304495   266A      1.307401  
     267A      1.314030   268A      1.320233   269A      1.333159  
     270A      1.335491   271A      1.352499   272A      1.360308  
     273A      1.370898   274A      1.372242   275A      1.382787  
     276A      1.383834   277A      1.393479   278A      1.397449  
     279A      1.402727   280A      1.409961   281A      1.421346  
     282A      1.432126   283A      1.436203   284A      1.452067  
     285A      1.457054   286A      1.459233   287A      1.463862  
     288A      1.469579   289A      1.471278   290A      1.482951  
     291A      1.483143   292A      1.491756   293A      1.507110  
     294A      1.518160   295A      1.531820   296A      1.534788  
     297A      1.546174   298A      1.562723   299A      1.573234  
     300A      1.597606   301A      1.598853   302A      1.612521  
     303A      1.618069   304A      1.623649   305A      1.632440  
     306A      1.647825   307A      1.655536   308A      1.668299  
     309A      1.675258   310A      1.682654   311A      1.685567  
     312A      1.700319   313A      1.714710   314A      1.716376  
     315A      1.717807   316A      1.725515   317A      1.735653  
     318A      1.747696   319A      1.748264   320A      1.768586  
     321A      1.784389   322A      1.789354   323A      1.790396  
     324A      1.795012   325A      1.814453   326A      1.817455  
     327A      1.819032   328A      1.833953   329A      1.853787  
     330A      1.855240   331A      1.876234   332A      1.884215  
     333A      1.888553   334A      1.896736   335A      1.906535  
     336A      1.918420   337A      1.918683   338A      1.930583  
     339A      1.946541   340A      1.952088   341A      1.957832  
     342A      1.969301   343A      1.981894   344A      1.989314  
     345A      2.006449   346A      2.009167   347A      2.021721  
     348A      2.032316   349A      2.037506   350A      2.038460  
     351A      2.051843   352A      2.058874   353A      2.067300  
     354A      2.077682   355A      2.086731   356A      2.097619  
     357A      2.106540   358A      2.131082   359A      2.134584  
     360A      2.140912   361A      2.142308   362A      2.149425  
     363A      2.162024   364A      2.181855   365A      2.185514  
     366A      2.191342   367A      2.196672   368A      2.211956  
     369A      2.226967   370A      2.239725   371A      2.240759  
     372A      2.255715   373A      2.267131   374A      2.269546  
     375A      2.288431   376A      2.305633   377A      2.307327  
     378A      2.309489   379A      2.316448   380A      2.336513  
     381A      2.342439   382A      2.369342   383A      2.373576  
     384A      2.389582   385A      2.398674   386A      2.402761  
     387A      2.421949   388A      2.429121   389A      2.450162  
     390A      2.465659   391A      2.467297   392A      2.493206  
     393A      2.513716   394A      2.533149   395A      2.548147  
     396A      2.560835   397A      2.565617   398A      2.585166  
     399A      2.586943   400A      2.599593   401A      2.617871  
     402A      2.631639   403A      2.652236   404A      2.671245  
     405A      2.701660   406A      2.721848   407A      2.743743  
     408A      2.749082   409A      2.762860   410A      2.822135  
     411A      2.835262   412A      2.859681   413A      2.860227  
     414A      2.891646   415A      2.957579   416A      2.961697  
     417A      3.006334   418A      3.012718   419A      3.048713  
     420A      3.062989   421A      3.101383   422A      3.135462  
     423A      3.184083   424A      3.224233   425A      3.236119  
     426A      3.256299   427A      3.288516   428A      3.291917  
     429A      3.296913   430A      3.325260   431A      3.351009  
     432A      3.367835   433A      3.375767   434A      3.387462  
     435A      3.387712   436A      3.397006   437A      3.411284  
     438A      3.433912   439A      3.444804   440A      3.447664  
     441A      3.452050   442A      3.459593   443A      3.480191  
     444A      3.489353   445A      3.492141   446A      3.506938  
     447A      3.519608   448A      3.540919   449A      3.557305  
     450A      3.562558   451A      3.570922   452A      3.572888  
     453A      3.580406   454A      3.590858   455A      3.608447  
     456A      3.626102   457A      3.629535   458A      3.639951  
     459A      3.640071   460A      3.647968   461A      3.657215  
     462A      3.669899   463A      3.687475   464A      3.699059  
     465A      3.702440   466A      3.726405   467A      3.732444  
     468A      3.737199   469A      3.745584   470A      3.757913  
     471A      3.764894   472A      3.786134   473A      3.799012  
     474A      3.808372   475A      3.820828   476A      3.837577  
     477A      3.837981   478A      3.853754   479A      3.863934  
     480A      3.866104   481A      3.892626   482A      3.898875  
     483A      3.910817   484A      3.914575   485A      3.935363  
     486A      3.937655   487A      3.941204   488A      3.948024  
     489A      3.953380   490A      3.968929   491A      3.986235  
     492A      3.993939   493A      4.004657   494A      4.008114  
     495A      4.023241   496A      4.027939   497A      4.037576  
     498A      4.073402   499A      4.080399   500A      4.082594  
     501A      4.097813   502A      4.107280   503A      4.132058  
     504A      4.133753   505A      4.145748   506A      4.147216  
     507A      4.150333   508A      4.163460   509A      4.177038  
     510A      4.178814   511A      4.182323   512A      4.214497  
     513A      4.223452   514A      4.235522   515A      4.249779  
     516A      4.258143   517A      4.261753   518A      4.275392  
     519A      4.277237   520A      4.294850   521A      4.302490  
     522A      4.307925   523A      4.325216   524A      4.343446  
     525A      4.344612   526A      4.373886   527A      4.379783  
     528A      4.381192   529A      4.389380   530A      4.401532  
     531A      4.408100   532A      4.416140   533A      4.416667  
     534A      4.432037   535A      4.439232   536A      4.455352  
     537A      4.466507   538A      4.478914   539A      4.489727  
     540A      4.500764   541A      4.520646   542A      4.535653  
     543A      4.539267   544A      4.549577   545A      4.562463  
     546A      4.568754   547A      4.574609   548A      4.582770  
     549A      4.607550   550A      4.657516   551A      4.662227  
     552A      4.678151   553A      4.694833   554A      4.704878  
     555A      4.706729   556A      4.734099   557A      4.734732  
     558A      4.753230   559A      4.787189   560A      4.802161  
     561A      4.809489   562A      4.810639   563A      4.835968  
     564A      4.852699   565A      4.861583   566A      4.866975  
     567A      4.879235   568A      4.899358   569A      4.907704  
     570A      4.957597   571A      4.962100   572A      4.972115  
     573A      4.987870   574A      5.007709   575A      5.014360  
     576A      5.041200   577A      5.050675   578A      5.075864  
     579A      5.079134   580A      5.085194   581A      5.103688  
     582A      5.118303   583A      5.141525   584A      5.147551  
     585A      5.159261   586A      5.159959   587A      5.165681  
     588A      5.187413   589A      5.188766   590A      5.208625  
     591A      5.216658   592A      5.230243   593A      5.241290  
     594A      5.248333   595A      5.274603   596A      5.289793  
     597A      5.325079   598A      5.351708   599A      5.376738  
     600A      5.380563   601A      5.404726   602A      5.412058  
     603A      5.441365   604A      5.462177   605A      5.511567  
     606A      5.528298   607A      5.560849   608A      5.567823  
     609A      5.590534   610A      5.598604   611A      5.608007  
     612A      5.623137   613A      5.634539   614A      5.664589  
     615A      5.667335   616A      5.676565   617A      5.705049  
     618A      5.761451   619A      5.766497   620A      5.827495  
     621A      5.852474   622A      5.860970   623A      5.886457  
     624A      5.912283   625A      5.936851   626A      6.003426  
     627A      6.076197   628A      6.090561   629A      6.104336  
     630A      6.125519   631A      6.175217   632A      6.176351  
     633A      6.217223   634A      6.238974   635A      6.254073  
     636A      6.265774   637A      6.310149   638A      6.348136  
     639A      6.392154   640A      6.446607   641A      6.473178  
     642A      6.568034   643A      6.628656   644A      6.674138  
     645A      6.706704   646A      6.769816   647A      6.833017  
     648A      6.865315   649A      6.890900   650A      6.962333  
     651A      7.018344   652A      7.030838   653A      7.117080  
     654A      7.186505   655A      7.218837   656A      7.525281  
     657A      7.845853   658A     16.289179   659A     16.714109  
     660A     17.206679   661A     18.817085   662A     18.889508  
     663A     19.187829   664A     19.910630   665A     20.457590  
     666A     20.669414   667A     21.101708  

    Final Occupation by Irrep:
              A 
    DOCC [    35 ]

  @DF-RHF Final Energy:  -400.63954579309143

   => Energetics <=

    Nuclear Repulsion Energy =            483.1562728891064467
    One-Electron Energy =               -1499.7839188309490055
    Two-Electron Energy =                 615.9881001487510730
    Total Energy =                       -400.6395457930914290

Computation Completed

*** tstop() called on c468-104.stampede2.tacc.utexas.edu at Fri Mar 19 13:37:13 2021
Module time:
	user time   =     419.71 seconds =       7.00 minutes
	system time =      11.01 seconds =       0.18 minutes
	total time  =         67 seconds =       1.12 minutes
Total time:
	user time   =     419.71 seconds =       7.00 minutes
	system time =      11.01 seconds =       0.18 minutes
	total time  =         67 seconds =       1.12 minutes
   => Loading Basis Set <=

    Name: (AUG-CC-PVTZ AUX)
    Role: RIFIT
    Keyword: DF_BASIS_MP2
    atoms 1-9   entry C          line   148 file /home1/07844/xy3866/miniconda3/envs/p4env/share/psi4/basis/aug-cc-pvtz-ri.gbs 
    atoms 10    entry N          line   206 file /home1/07844/xy3866/miniconda3/envs/p4env/share/psi4/basis/aug-cc-pvtz-ri.gbs 
    atoms 11-19 entry H          line    30 file /home1/07844/xy3866/miniconda3/envs/p4env/share/psi4/basis/aug-cc-pvtz-ri.gbs 


*** tstart() called on c468-104.stampede2.tacc.utexas.edu
*** at Fri Mar 19 13:37:14 2021


  //>>>>>>>>>>>>>>>>>>>>>>>>>>>>>>>>>>>//
  //               DFMP2               //
  //<<<<<<<<<<<<<<<<<<<<<<<<<<<<<<<<<<<//

	 --------------------------------------------------------
	                          DF-MP2                         
	      2nd-Order Density-Fitted Moller-Plesset Theory     
	              RMP2 Wavefunction,   8 Threads             
	                                                         
	        Rob Parrish, Justin Turney, Andy Simmonett,      
	           Ed Hohenstein, and C. David Sherrill          
	 --------------------------------------------------------

   => Auxiliary Basis Set <=

  Basis Set: (AUG-CC-PVTZ AUX)
    Blend: AUG-CC-PVTZ-RI
    Number of shells: 406
    Number of basis functions: 1474
    Number of Cartesian functions: 1855
    Spherical Harmonics?: true
    Max angular momentum: 4

	 --------------------------------------------------------
	                 NBF =   667, NAUX =  1474
	 --------------------------------------------------------
	   CLASS    FOCC     OCC    AOCC    AVIR     VIR    FVIR
	   PAIRS       0      35      35     632     632       0
	 --------------------------------------------------------

  DFHelper Memory: AOs need 4.716 GiB; user supplied 22.352 GiB. Using in-core AOs.


         ------------------------------------------------------------
                                     CPHF                           
                                  Rob Parrish                       
         ------------------------------------------------------------

  ==> Geometry <==

    Molecular point group: c1
    Full point group: C1

    Geometry (in Angstrom), charge = 0, multiplicity = 1:

       Center              X                  Y                   Z               Mass       
    ------------   -----------------  -----------------  -----------------  -----------------
         C           -2.649902084726    -1.339593462611     0.000003371553    12.000000000000
         C           -0.202487084726    -0.412439462611    -0.000013628447    12.000000000000
         C           -1.626781084726    -0.248609462611    -0.000006628447    12.000000000000
         C            0.379903915274     0.885078537389    -0.000011628447    12.000000000000
         C           -1.858208084726     1.109433537389     0.000007371553    12.000000000000
         C            2.019368915274    -1.340311462611     0.000004371553    12.000000000000
         C            2.573946915274    -0.041559462611     0.000004371553    12.000000000000
         C            0.644957915274    -1.536392462611     0.000000371553    12.000000000000
         C            1.765548915274     1.088437537389     0.000002371553    12.000000000000
         N           -0.656745084726     1.790243537389     0.000006371553    14.003074004430
         H            2.685494915274    -2.199946462611     0.000014371553     1.007825032230
         H            3.674943715274     0.078656437389     0.000012471553     1.007825032230
         H            0.229955915274    -2.542823462611    -0.000008628447     1.007825032230
         H            2.195520915274     2.088340537389    -0.000020628447     1.007825032230
         H           -3.661592084726    -0.922833462611    -0.000023628447     1.007825032230
         H           -2.551925084726    -1.980537462611     0.882925371553     1.007825032230
         H           -2.797635084726     1.649638537389     0.000005371553     1.007825032230
         H           -0.556513084726     2.796231537389     0.000003371553     1.007825032230
         H           -2.551893084726    -1.980581462611    -0.882881628447     1.007825032230

  Nuclear repulsion =  483.156272889106447
  Reference energy  = -400.639545793091429

  ==> Basis Set <==

  Basis Set: AUG-CC-PVTZ
    Blend: AUG-CC-PVTZ
    Number of shells: 221
    Number of basis functions: 667
    Number of Cartesian functions: 775
    Spherical Harmonics?: true
    Max angular momentum: 3

  ==> CGRSolver (by Rob Parrish) <==

   Number of roots    =         1
   Preconditioning    =    JACOBI
   Convergence cutoff =     1E-06
   Maximum iterations =       100

  ==> CPHFRHamiltonian (by Rob Parrish) <== 

  ==> MemDFJK: Density-Fitted J/K Matrices <==

    J tasked:                   Yes
    K tasked:                   Yes
    wK tasked:                   No
    OpenMP threads:               8
    Memory [MiB]:             22888
    Algorithm:                 Core
    Schwarz Cutoff:           1E-12
    Mask sparsity (%):       4.8740
    Fitting Condition:        1E-10

   => Auxiliary Basis Set <=

  Basis Set: (AUG-CC-PVTZ AUX)
    Blend: AUG-CC-PVTZ-JKFIT
    Number of shells: 426
    Number of basis functions: 1454
    Number of Cartesian functions: 1805
    Spherical Harmonics?: true
    Max angular momentum: 4

  ==> CPHF Iterations <==

  => Iterations <=

             Iter  Converged  Remaining    Residual
  CGR           1          0          1   8.883E-02
  CGR           2          0          1   3.216E-02
  CGR           3          0          1   1.812E-02
  CGR           4          0          1   6.851E-03
  CGR           5          0          1   3.107E-03
  CGR           6          0          1   1.711E-03
  CGR           7          0          1   5.426E-04
  CGR           8          0          1   1.813E-04
  CGR           9          0          1   6.771E-05
  CGR          10          0          1   3.403E-05
  CGR          11          0          1   1.721E-05
  CGR          12          0          1   6.113E-06
  CGR          13          0          1   1.907E-06
  CGR          14          1          0   5.212E-07

    CGRSolver converged.

	-----------------------------------------------------------
	 ==================> DF-MP2 Energies <==================== 
	-----------------------------------------------------------
	 Reference Energy          =    -400.6395457930914290 [Eh]
	 Singles Energy            =      -0.0000000000000000 [Eh]
	 Same-Spin Energy          =      -0.4517253380653085 [Eh]
	 Opposite-Spin Energy      =      -1.4042857805288187 [Eh]
	 Correlation Energy        =      -1.8560111185941270 [Eh]
	 Total Energy              =    -402.4955569116855827 [Eh]
	-----------------------------------------------------------
	 ================> DF-SCS-MP2 Energies <================== 
	-----------------------------------------------------------
	 SCS Same-Spin Scale       =       0.3333333333333333 [-]
	 SCS Opposite-Spin Scale   =       1.2000000000000000 [-]
	 SCS Same-Spin Energy      =      -0.1505751126884362 [Eh]
	 SCS Opposite-Spin Energy  =      -1.6851429366345825 [Eh]
	 SCS Correlation Energy    =      -1.8357180493230185 [Eh]
	 SCS Total Energy          =    -402.4752638424144493 [Eh]
	-----------------------------------------------------------



Properties will be evaluated at  -0.000000,  -0.000000,   0.000000 [a0]

Properties computed using the MP2 density matrix

  Nuclear Dipole Moment: [e a0]
     X:    -3.1233      Y:    -2.8306      Z:     0.0000

  Electronic Dipole Moment: [e a0]
     X:     2.7425      Y:     3.5401      Z:    -0.0000

  Dipole Moment: [e a0]
     X:    -0.3808      Y:     0.7095      Z:    -0.0000     Total:     0.8052

  Dipole Moment: [D]
     X:    -0.9678      Y:     1.8034      Z:    -0.0000     Total:     2.0467


*** tstop() called on c468-104.stampede2.tacc.utexas.edu at Fri Mar 19 13:41:21 2021
Module time:
	user time   =    1525.81 seconds =      25.43 minutes
	system time =      23.06 seconds =       0.38 minutes
	total time  =        247 seconds =       4.12 minutes
Total time:
	user time   =    1946.46 seconds =      32.44 minutes
	system time =      34.09 seconds =       0.57 minutes
	total time  =        315 seconds =       5.25 minutes

    Psi4 stopped on: Friday, 19 March 2021 01:41PM
    Psi4 wall time for execution: 0:05:16.50

*** Psi4 exiting successfully. Buy a developer a beer!
