141_Nitrobenzene Gaussian SP Calculation on node142.bme.utexas.edu      
Freq      RMP2-FC                                                     6-31G(d)            
Number of atoms                            I               14
Info1-9                                    I   N=           9
          25          24        1002           0           0         100
           6           2           1
Charge                                     I                0
Multiplicity                               I                1
Number of electrons                        I               64
Number of alpha electrons                  I               32
Number of beta electrons                   I               32
Number of basis functions                  I              145
Number of independent functions            I              145
Number of point charges in /Mol/           I                0
Number of translation vectors              I                0
Atomic numbers                             I   N=          14
           8           8           7           6           6           6
           6           6           6           1           1           1
           1           1
Nuclear charges                            R   N=          14
  8.00000000E+00  8.00000000E+00  7.00000000E+00  6.00000000E+00  6.00000000E+00
  6.00000000E+00  6.00000000E+00  6.00000000E+00  6.00000000E+00  1.00000000E+00
  1.00000000E+00  1.00000000E+00  1.00000000E+00  1.00000000E+00
Current cartesian coordinates              R   N=          42
 -4.32775411E+00 -2.07947898E+00 -2.33570515E-04 -4.32775400E+00  2.07947900E+00
  5.14811119E-05 -3.23757970E+00  0.00000000E+00 -6.92473177E-05 -4.56892319E-01
 -4.10452350E-08 -1.38465894E-05  8.02781204E-01 -2.31045408E+00  7.56800404E-05
  8.02781121E-01  2.31045405E+00 -3.87895130E-05  3.43832901E+00 -2.28685183E+00
  1.30984701E-04  3.43832895E+00  2.28685186E+00  1.17538214E-05  4.75839077E+00
  0.00000000E+00  1.03689234E-04 -2.66290209E-01 -4.05824651E+00  8.91280394E-05
 -2.66290295E-01  4.05824657E+00 -1.04191426E-04  4.46245523E+00 -4.06698107E+00
  2.06899816E-04  4.46245518E+00  4.06698112E+00 -1.07621593E-05  6.81248039E+00
  6.10216681E-08  1.43542018E-04
Force Field                                I                0
Int Atom Types                             I   N=          14
           0           0           0           0           0           0
           0           0           0           0           0           0
           0           0
MM charges                                 R   N=          14
  0.00000000E+00  0.00000000E+00  0.00000000E+00  0.00000000E+00  0.00000000E+00
  0.00000000E+00  0.00000000E+00  0.00000000E+00  0.00000000E+00  0.00000000E+00
  0.00000000E+00  0.00000000E+00  0.00000000E+00  0.00000000E+00
Integer atomic weights                     I   N=          14
          16          16          14          12          12          12
          12          12          12           1           1           1
           1           1
Real atomic weights                        R   N=          14
  1.59949146E+01  1.59949146E+01  1.40030740E+01  1.20000000E+01  1.20000000E+01
  1.20000000E+01  1.20000000E+01  1.20000000E+01  1.20000000E+01  1.00782504E+00
  1.00782504E+00  1.00782504E+00  1.00782504E+00  1.00782504E+00
Atom fragment info                         I   N=          14
           0           0           0           0           0           0
           0           0           0           0           0           0
           0           0
Atom residue num                           I   N=          14
           0           0           0           0           0           0
           0           0           0           0           0           0
           0           0
Nuclear spins                              I   N=          14
           0           0           2           0           0           0
           0           0           0           1           1           1
           1           1
Nuclear ZEff                               R   N=          14
 -5.60000000E+00 -5.60000000E+00 -4.55000000E+00 -3.60000000E+00 -3.60000000E+00
 -3.60000000E+00 -3.60000000E+00 -3.60000000E+00 -3.60000000E+00 -1.00000000E+00
 -1.00000000E+00 -1.00000000E+00 -1.00000000E+00 -1.00000000E+00
Nuclear QMom                               R   N=          14
  0.00000000E+00  0.00000000E+00  2.04400000E+00  0.00000000E+00  0.00000000E+00
  0.00000000E+00  0.00000000E+00  0.00000000E+00  0.00000000E+00  0.00000000E+00
  0.00000000E+00  0.00000000E+00  0.00000000E+00  0.00000000E+00
Nuclear GFac                               R   N=          14
  0.00000000E+00  0.00000000E+00  4.03761000E-01  0.00000000E+00  0.00000000E+00
  0.00000000E+00  0.00000000E+00  0.00000000E+00  0.00000000E+00  2.79284600E+00
  2.79284600E+00  2.79284600E+00  2.79284600E+00  2.79284600E+00
MicOpt                                     I   N=          14
          -1          -1          -1          -1          -1          -1
          -1          -1          -1          -1          -1          -1
          -1          -1
Number of contracted shells                I               46
Number of primitive shells                 I              119
Pure/Cartesian d shells                    I                1
Pure/Cartesian f shells                    I                0
Highest angular momentum                   I                2
Largest degree of contraction              I                6
Shell types                                I   N=          46
           0          -1          -1           2           0          -1
          -1           2           0          -1          -1           2
           0          -1          -1           2           0          -1
          -1           2           0          -1          -1           2
           0          -1          -1           2           0          -1
          -1           2           0          -1          -1           2
           0           0           0           0           0           0
           0           0           0           0
Number of primitives per shell             I   N=          46
           6           3           1           1           6           3
           1           1           6           3           1           1
           6           3           1           1           6           3
           1           1           6           3           1           1
           6           3           1           1           6           3
           1           1           6           3           1           1
           3           1           3           1           3           1
           3           1           3           1
Shell to atom map                          I   N=          46
           1           1           1           1           2           2
           2           2           3           3           3           3
           4           4           4           4           5           5
           5           5           6           6           6           6
           7           7           7           7           8           8
           8           8           9           9           9           9
          10          10          11          11          12          12
          13          13          14          14
Primitive exponents                        R   N=         119
  5.48467166E+03  8.25234946E+02  1.88046958E+02  5.29645000E+01  1.68975704E+01
  5.79963534E+00  1.55396162E+01  3.59993359E+00  1.01376175E+00  2.70005823E-01
  8.00000000E-01  5.48467166E+03  8.25234946E+02  1.88046958E+02  5.29645000E+01
  1.68975704E+01  5.79963534E+00  1.55396162E+01  3.59993359E+00  1.01376175E+00
  2.70005823E-01  8.00000000E-01  4.17351146E+03  6.27457911E+02  1.42902093E+02
  4.02343293E+01  1.28202129E+01  4.39043701E+00  1.16263619E+01  2.71627981E+00
  7.72218397E-01  2.12031498E-01  8.00000000E-01  3.04752488E+03  4.57369518E+02
  1.03948685E+02  2.92101553E+01  9.28666296E+00  3.16392696E+00  7.86827235E+00
  1.88128854E+00  5.44249258E-01  1.68714478E-01  8.00000000E-01  3.04752488E+03
  4.57369518E+02  1.03948685E+02  2.92101553E+01  9.28666296E+00  3.16392696E+00
  7.86827235E+00  1.88128854E+00  5.44249258E-01  1.68714478E-01  8.00000000E-01
  3.04752488E+03  4.57369518E+02  1.03948685E+02  2.92101553E+01  9.28666296E+00
  3.16392696E+00  7.86827235E+00  1.88128854E+00  5.44249258E-01  1.68714478E-01
  8.00000000E-01  3.04752488E+03  4.57369518E+02  1.03948685E+02  2.92101553E+01
  9.28666296E+00  3.16392696E+00  7.86827235E+00  1.88128854E+00  5.44249258E-01
  1.68714478E-01  8.00000000E-01  3.04752488E+03  4.57369518E+02  1.03948685E+02
  2.92101553E+01  9.28666296E+00  3.16392696E+00  7.86827235E+00  1.88128854E+00
  5.44249258E-01  1.68714478E-01  8.00000000E-01  3.04752488E+03  4.57369518E+02
  1.03948685E+02  2.92101553E+01  9.28666296E+00  3.16392696E+00  7.86827235E+00
  1.88128854E+00  5.44249258E-01  1.68714478E-01  8.00000000E-01  1.87311370E+01
  2.82539436E+00  6.40121692E-01  1.61277759E-01  1.87311370E+01  2.82539436E+00
  6.40121692E-01  1.61277759E-01  1.87311370E+01  2.82539436E+00  6.40121692E-01
  1.61277759E-01  1.87311370E+01  2.82539436E+00  6.40121692E-01  1.61277759E-01
  1.87311370E+01  2.82539436E+00  6.40121692E-01  1.61277759E-01
Contraction coefficients                   R   N=         119
  1.83107443E-03  1.39501722E-02  6.84450781E-02  2.32714336E-01  4.70192898E-01
  3.58520853E-01 -1.10777550E-01 -1.48026263E-01  1.13076702E+00  1.00000000E+00
  1.00000000E+00  1.83107443E-03  1.39501722E-02  6.84450781E-02  2.32714336E-01
  4.70192898E-01  3.58520853E-01 -1.10777550E-01 -1.48026263E-01  1.13076702E+00
  1.00000000E+00  1.00000000E+00  1.83477216E-03  1.39946270E-02  6.85865518E-02
  2.32240873E-01  4.69069948E-01  3.60455199E-01 -1.14961182E-01 -1.69117479E-01
  1.14585195E+00  1.00000000E+00  1.00000000E+00  1.83473713E-03  1.40373228E-02
  6.88426223E-02  2.32184443E-01  4.67941348E-01  3.62311985E-01 -1.19332420E-01
 -1.60854152E-01  1.14345644E+00  1.00000000E+00  1.00000000E+00  1.83473713E-03
  1.40373228E-02  6.88426223E-02  2.32184443E-01  4.67941348E-01  3.62311985E-01
 -1.19332420E-01 -1.60854152E-01  1.14345644E+00  1.00000000E+00  1.00000000E+00
  1.83473713E-03  1.40373228E-02  6.88426223E-02  2.32184443E-01  4.67941348E-01
  3.62311985E-01 -1.19332420E-01 -1.60854152E-01  1.14345644E+00  1.00000000E+00
  1.00000000E+00  1.83473713E-03  1.40373228E-02  6.88426223E-02  2.32184443E-01
  4.67941348E-01  3.62311985E-01 -1.19332420E-01 -1.60854152E-01  1.14345644E+00
  1.00000000E+00  1.00000000E+00  1.83473713E-03  1.40373228E-02  6.88426223E-02
  2.32184443E-01  4.67941348E-01  3.62311985E-01 -1.19332420E-01 -1.60854152E-01
  1.14345644E+00  1.00000000E+00  1.00000000E+00  1.83473713E-03  1.40373228E-02
  6.88426223E-02  2.32184443E-01  4.67941348E-01  3.62311985E-01 -1.19332420E-01
 -1.60854152E-01  1.14345644E+00  1.00000000E+00  1.00000000E+00  3.34946043E-02
  2.34726953E-01  8.13757326E-01  1.00000000E+00  3.34946043E-02  2.34726953E-01
  8.13757326E-01  1.00000000E+00  3.34946043E-02  2.34726953E-01  8.13757326E-01
  1.00000000E+00  3.34946043E-02  2.34726953E-01  8.13757326E-01  1.00000000E+00
  3.34946043E-02  2.34726953E-01  8.13757326E-01  1.00000000E+00
P(S=P) Contraction coefficients            R   N=         119
  0.00000000E+00  0.00000000E+00  0.00000000E+00  0.00000000E+00  0.00000000E+00
  0.00000000E+00  7.08742682E-02  3.39752839E-01  7.27158577E-01  1.00000000E+00
  0.00000000E+00  0.00000000E+00  0.00000000E+00  0.00000000E+00  0.00000000E+00
  0.00000000E+00  0.00000000E+00  7.08742682E-02  3.39752839E-01  7.27158577E-01
  1.00000000E+00  0.00000000E+00  0.00000000E+00  0.00000000E+00  0.00000000E+00
  0.00000000E+00  0.00000000E+00  0.00000000E+00  6.75797439E-02  3.23907296E-01
  7.40895140E-01  1.00000000E+00  0.00000000E+00  0.00000000E+00  0.00000000E+00
  0.00000000E+00  0.00000000E+00  0.00000000E+00  0.00000000E+00  6.89990666E-02
  3.16423961E-01  7.44308291E-01  1.00000000E+00  0.00000000E+00  0.00000000E+00
  0.00000000E+00  0.00000000E+00  0.00000000E+00  0.00000000E+00  0.00000000E+00
  6.89990666E-02  3.16423961E-01  7.44308291E-01  1.00000000E+00  0.00000000E+00
  0.00000000E+00  0.00000000E+00  0.00000000E+00  0.00000000E+00  0.00000000E+00
  0.00000000E+00  6.89990666E-02  3.16423961E-01  7.44308291E-01  1.00000000E+00
  0.00000000E+00  0.00000000E+00  0.00000000E+00  0.00000000E+00  0.00000000E+00
  0.00000000E+00  0.00000000E+00  6.89990666E-02  3.16423961E-01  7.44308291E-01
  1.00000000E+00  0.00000000E+00  0.00000000E+00  0.00000000E+00  0.00000000E+00
  0.00000000E+00  0.00000000E+00  0.00000000E+00  6.89990666E-02  3.16423961E-01
  7.44308291E-01  1.00000000E+00  0.00000000E+00  0.00000000E+00  0.00000000E+00
  0.00000000E+00  0.00000000E+00  0.00000000E+00  0.00000000E+00  6.89990666E-02
  3.16423961E-01  7.44308291E-01  1.00000000E+00  0.00000000E+00  0.00000000E+00
  0.00000000E+00  0.00000000E+00  0.00000000E+00  0.00000000E+00  0.00000000E+00
  0.00000000E+00  0.00000000E+00  0.00000000E+00  0.00000000E+00  0.00000000E+00
  0.00000000E+00  0.00000000E+00  0.00000000E+00  0.00000000E+00  0.00000000E+00
  0.00000000E+00  0.00000000E+00  0.00000000E+00  0.00000000E+00
Coordinates of each shell                  R   N=         138
 -4.32775411E+00 -2.07947898E+00 -2.33570515E-04 -4.32775411E+00 -2.07947898E+00
 -2.33570515E-04 -4.32775411E+00 -2.07947898E+00 -2.33570515E-04 -4.32775411E+00
 -2.07947898E+00 -2.33570515E-04 -4.32775400E+00  2.07947900E+00  5.14811119E-05
 -4.32775400E+00  2.07947900E+00  5.14811119E-05 -4.32775400E+00  2.07947900E+00
  5.14811119E-05 -4.32775400E+00  2.07947900E+00  5.14811119E-05 -3.23757970E+00
  1.69406589E-21 -6.92473177E-05 -3.23757970E+00  1.69406589E-21 -6.92473177E-05
 -3.23757970E+00  1.69406589E-21 -6.92473177E-05 -3.23757970E+00  1.69406589E-21
 -6.92473177E-05 -4.56892319E-01 -4.10452350E-08 -1.38465894E-05 -4.56892319E-01
 -4.10452350E-08 -1.38465894E-05 -4.56892319E-01 -4.10452350E-08 -1.38465894E-05
 -4.56892319E-01 -4.10452350E-08 -1.38465894E-05  8.02781204E-01 -2.31045408E+00
  7.56800404E-05  8.02781204E-01 -2.31045408E+00  7.56800404E-05  8.02781204E-01
 -2.31045408E+00  7.56800404E-05  8.02781204E-01 -2.31045408E+00  7.56800404E-05
  8.02781121E-01  2.31045405E+00 -3.87895130E-05  8.02781121E-01  2.31045405E+00
 -3.87895130E-05  8.02781121E-01  2.31045405E+00 -3.87895130E-05  8.02781121E-01
  2.31045405E+00 -3.87895130E-05  3.43832901E+00 -2.28685183E+00  1.30984701E-04
  3.43832901E+00 -2.28685183E+00  1.30984701E-04  3.43832901E+00 -2.28685183E+00
  1.30984701E-04  3.43832901E+00 -2.28685183E+00  1.30984701E-04  3.43832895E+00
  2.28685186E+00  1.17538214E-05  3.43832895E+00  2.28685186E+00  1.17538214E-05
  3.43832895E+00  2.28685186E+00  1.17538214E-05  3.43832895E+00  2.28685186E+00
  1.17538214E-05  4.75839077E+00  0.00000000E+00  1.03689234E-04  4.75839077E+00
  0.00000000E+00  1.03689234E-04  4.75839077E+00  0.00000000E+00  1.03689234E-04
  4.75839077E+00  0.00000000E+00  1.03689234E-04 -2.66290209E-01 -4.05824651E+00
  8.91280394E-05 -2.66290209E-01 -4.05824651E+00  8.91280394E-05 -2.66290295E-01
  4.05824657E+00 -1.04191426E-04 -2.66290295E-01  4.05824657E+00 -1.04191426E-04
  4.46245523E+00 -4.06698107E+00  2.06899816E-04  4.46245523E+00 -4.06698107E+00
  2.06899816E-04  4.46245518E+00  4.06698112E+00 -1.07621593E-05  4.46245518E+00
  4.06698112E+00 -1.07621593E-05  6.81248039E+00  6.10216681E-08  1.43542018E-04
  6.81248039E+00  6.10216681E-08  1.43542018E-04
Constraint Structure                       R   N=          42
 -4.32775411E+00 -2.07947898E+00 -2.33570515E-04 -4.32775400E+00  2.07947900E+00
  5.14811119E-05 -3.23757970E+00  1.69406589E-21 -6.92473177E-05 -4.56892319E-01
 -4.10452350E-08 -1.38465894E-05  8.02781204E-01 -2.31045408E+00  7.56800404E-05
  8.02781121E-01  2.31045405E+00 -3.87895130E-05  3.43832901E+00 -2.28685183E+00
  1.30984701E-04  3.43832895E+00  2.28685186E+00  1.17538214E-05  4.75839077E+00
  0.00000000E+00  1.03689234E-04 -2.66290209E-01 -4.05824651E+00  8.91280394E-05
 -2.66290295E-01  4.05824657E+00 -1.04191426E-04  4.46245523E+00 -4.06698107E+00
  2.06899816E-04  4.46245518E+00  4.06698112E+00 -1.07621593E-05  6.81248039E+00
  6.10216681E-08  1.43542018E-04
Num ILSW                                   I              100
ILSW                                       I   N=         100
           0           1           0           1           2           0
           0           0           0           0           0          -1
           0           0           0           0           0           0
           0           0           0           0           1           0
           1           0           0           0           0           0
           0           0      100000           0          -1           0
           0           0           0           0           0           0
           0           0           0           1           1           0
           0           0           1           0           0           0
           0           0           4          40           0           0
           0           0           0           0           0           0
           0           0           0           0           0           0
           0           0           0           0           0           0
           0           0           0           0           0           0
           0           0           0           0           0           0
           0           0           0           0           0           0
           0           0           0           0
Num RLSW                                   I               40
RLSW                                       R   N=          40
  1.00000000E+00  1.00000000E+00  1.00000000E+00  1.00000000E+00  1.00000000E+00
  0.00000000E+00  0.00000000E+00  1.00000000E+00  0.00000000E+00  0.00000000E+00
  0.00000000E+00  0.00000000E+00  1.00000000E+00  0.00000000E+00  0.00000000E+00
  0.00000000E+00  0.00000000E+00  1.00000000E+00  0.00000000E+00  0.00000000E+00
  0.00000000E+00  0.00000000E+00  1.00000000E+00  0.00000000E+00  0.00000000E+00
  0.00000000E+00  0.00000000E+00  1.00000000E+00  0.00000000E+00  0.00000000E+00
  0.00000000E+00  0.00000000E+00  0.00000000E+00  0.00000000E+00  0.00000000E+00
  0.00000000E+00  0.00000000E+00  0.00000000E+00  1.00000000E+00  1.00000000E+00
MxBond                                     I                3
NBond                                      I   N=          14
           1           1           3           3           3           3
           3           3           3           1           1           1
           1           1
IBond                                      I   N=          42
           3           0           0           3           0           0
           1           2           4           3           5           6
           4           7          10           4           8          11
           5           9          12           6           9          13
           7           8          14           5           0           0
           6           0           0           7           0           0
           8           0           0           9           0           0
RBond                                      R   N=          42
  2.00000000E+00  0.00000000E+00  0.00000000E+00  2.00000000E+00  0.00000000E+00
  0.00000000E+00  2.00000000E+00  2.00000000E+00  1.00000000E+00  1.00000000E+00
  1.50000000E+00  1.50000000E+00  1.50000000E+00  1.50000000E+00  1.00000000E+00
  1.50000000E+00  1.50000000E+00  1.00000000E+00  1.50000000E+00  1.50000000E+00
  1.00000000E+00  1.50000000E+00  1.50000000E+00  1.00000000E+00  1.50000000E+00
  1.50000000E+00  1.00000000E+00  1.00000000E+00  0.00000000E+00  0.00000000E+00
  1.00000000E+00  0.00000000E+00  0.00000000E+00  1.00000000E+00  0.00000000E+00
  0.00000000E+00  1.00000000E+00  0.00000000E+00  0.00000000E+00  1.00000000E+00
  0.00000000E+00  0.00000000E+00
Virial Ratio                               R      2.003155832438722E+00
SCF Energy                                 R     -4.341659393842435E+02
MP2 Energy                                 R     -4.354684090793594E+02
Total Energy                               R     -4.354684090793594E+02
Post-SCF wavefunction norm                 R      1.704749593117484E+00
RMS Force                                  R      3.072543586535494E-06
RMS Density                                R      7.426631953028316E-10
External E-field                           R   N=          35
  0.00000000E+00  0.00000000E+00  0.00000000E+00  0.00000000E+00  0.00000000E+00
  0.00000000E+00  0.00000000E+00  0.00000000E+00  0.00000000E+00  0.00000000E+00
  0.00000000E+00  0.00000000E+00  0.00000000E+00  0.00000000E+00  0.00000000E+00
  0.00000000E+00  0.00000000E+00  0.00000000E+00  0.00000000E+00  0.00000000E+00
  0.00000000E+00  0.00000000E+00  0.00000000E+00  0.00000000E+00  0.00000000E+00
  0.00000000E+00  0.00000000E+00  0.00000000E+00  0.00000000E+00  0.00000000E+00
  0.00000000E+00  0.00000000E+00  0.00000000E+00  0.00000000E+00  0.00000000E+00
IOpCl                                      I                0
IROHF                                      I                0
Alpha Orbital Energies                     R   N=         145
 -2.06085430E+01 -2.06084934E+01 -1.58578126E+01 -1.13125558E+01 -1.12782742E+01
 -1.12782400E+01 -1.12759611E+01 -1.12680156E+01 -1.12679247E+01 -1.58617362E+00
 -1.38399189E+00 -1.19633411E+00 -1.09044144E+00 -1.04984976E+00 -9.58591570E-01
 -8.62786001E-01 -8.24860981E-01 -7.72970080E-01 -7.17120134E-01 -7.04658944E-01
 -7.04471122E-01 -6.50735901E-01 -6.47921767E-01 -6.22657185E-01 -5.52871101E-01
 -5.32313681E-01 -5.29484550E-01 -4.89582789E-01 -4.86382452E-01 -4.45690899E-01
 -3.74395039E-01 -3.65452633E-01  4.56513016E-02  1.12701499E-01  1.63207108E-01
  2.13184229E-01  2.72232598E-01  2.82230785E-01  3.09417718E-01  3.25172491E-01
  3.43297321E-01  3.70598303E-01  4.32890966E-01  4.43240144E-01  4.58821759E-01
  4.83045836E-01  5.10150771E-01  5.61453135E-01  6.67979574E-01  6.86355653E-01
  7.03770421E-01  7.17145252E-01  7.78033550E-01  7.87620337E-01  7.89323528E-01
  7.94634097E-01  7.96862671E-01  8.06218923E-01  8.19392094E-01  8.58512525E-01
  8.76086780E-01  8.79425642E-01  9.35401541E-01  9.66868527E-01  1.00625910E+00
  1.01794655E+00  1.04337441E+00  1.06758337E+00  1.08326264E+00  1.08587150E+00
  1.08657618E+00  1.14477138E+00  1.16821726E+00  1.17091559E+00  1.19548951E+00
  1.22966630E+00  1.23755924E+00  1.27361390E+00  1.28289402E+00  1.30668604E+00
  1.31556065E+00  1.34106248E+00  1.40475642E+00  1.46587076E+00  1.46927238E+00
  1.52362139E+00  1.53454740E+00  1.60250912E+00  1.64910679E+00  1.66164972E+00
  1.67061967E+00  1.67638350E+00  1.72450515E+00  1.73243838E+00  1.74210754E+00
  1.75412916E+00  1.95461912E+00  1.99760022E+00  1.99894178E+00  2.04416252E+00
  2.04787948E+00  2.10120972E+00  2.12378204E+00  2.12948021E+00  2.21336490E+00
  2.21568644E+00  2.24418381E+00  2.26917087E+00  2.32733653E+00  2.36159945E+00
  2.37518265E+00  2.42526450E+00  2.43070436E+00  2.44711335E+00  2.45461313E+00
  2.46690636E+00  2.57931542E+00  2.58544130E+00  2.59697891E+00  2.69824464E+00
  2.80329982E+00  2.83193696E+00  2.91439846E+00  2.91469970E+00  2.92033315E+00
  2.99794732E+00  3.03642846E+00  3.04859272E+00  3.06895532E+00  3.09783379E+00
  3.22364939E+00  3.24675333E+00  3.27261581E+00  3.41336512E+00  3.52900855E+00
  3.77292395E+00  4.11702651E+00  4.28989890E+00  4.35546197E+00  4.48004889E+00
  4.50663706E+00  4.52821502E+00  4.71800103E+00  4.76678502E+00  5.09070523E+00
Alpha MO coefficients                      R   N=       21025
 -7.03372004E-01 -1.48344955E-02 -5.68213668E-04 -1.09347402E-03 -8.81183489E-08
 -2.85850719E-03  1.20125386E-04  1.96111815E-04  1.04396035E-08  2.68408051E-03
  2.58816443E-03  2.75018011E-03  5.66593573E-05  2.53208745E-09 -1.26538764E-08
  7.03425620E-01  1.48356210E-02  5.68260187E-04 -1.09355414E-03 -6.54554463E-08
  2.85873472E-03 -1.20127606E-04  1.96117507E-04  5.86178582E-09 -2.68427692E-03
 -2.58836739E-03 -2.75039950E-03  5.66522353E-05  5.61184450E-09  1.49149978E-08
  1.47996595E-09  2.02623505E-08 -4.32597129E-09  2.30307368E-04  1.47262586E-08
  7.06531507E-09  2.68383940E-08 -7.01113508E-04 -3.24687301E-08 -5.81455808E-09
 -3.55901273E-08 -4.92125304E-10  4.75744319E-04  3.32811801E-08  9.53827255E-09
 -2.79687097E-10 -7.63195634E-10  2.19472027E-09 -4.46577349E-05 -3.00450533E-09
  5.93684747E-09  2.66110977E-08  9.15012519E-04 -1.03433473E-08 -3.09088546E-09
  6.56283882E-10 -1.44299063E-09  1.25786742E-04  3.73530055E-09  2.88681979E-09
 -2.88930069E-06 -3.26380100E-05 -1.90192769E-05  1.01851419E-05 -1.91862722E-11
  5.19545600E-04 -2.05431251E-04  4.69362073E-04 -2.48084958E-08  8.20328224E-06
  4.27788841E-05 -4.73385631E-06 -1.65921638E-05  1.31952484E-09 -3.30889728E-09
  2.88939380E-06  3.26400927E-05  1.90189762E-05  1.01844692E-05  9.83948816E-10
 -5.19555084E-04  2.05433913E-04  4.69388116E-04 -1.38314409E-08 -8.20441578E-06
 -4.27804370E-05  4.73428960E-06 -1.65926708E-05  4.65132774E-10  2.03480245E-09
  2.16865609E-06  1.25054659E-05  6.42466997E-06  8.21298319E-06 -4.79767158E-10
 -7.48590912E-05 -5.84890613E-05 -2.34889367E-04  8.55250245E-09 -1.12186732E-06
 -2.07212418E-06  3.98398586E-06  4.74900528E-06 -6.14938476E-10  3.18337479E-10
 -2.16834146E-06 -1.25040396E-05 -6.42536659E-06  8.21292009E-06 -6.24728051E-10
  7.48538408E-05  5.84947375E-05 -2.34893672E-04  1.03104549E-08  1.12215482E-06
  2.07226061E-06 -3.98314612E-06  4.74895697E-06 -2.37114629E-10 -3.09489466E-10
  3.11120244E-11  1.68706059E-10 -4.43200291E-11 -1.09016759E-05  6.33959559E-10
 -3.06066497E-09 -1.57299128E-10 -1.46846631E-04  1.54218935E-09  4.22748752E-11
 -1.38823302E-10  1.28962343E-10  6.36860744E-06  9.04169401E-12  2.05422945E-10
 -1.40830424E-05  1.96072103E-04  1.40840870E-05 -1.96089472E-04 -1.21791567E-05
 -6.38581824E-05  1.21796037E-05  6.38584727E-05  1.85671558E-10  6.13776300E-11
  7.03417652E-01  1.47655249E-02  6.10648365E-04  1.05008341E-03  8.60167220E-08
  2.98326050E-03 -2.95337443E-05 -7.53362863E-05 -3.08747941E-09 -2.57672865E-03
 -2.66308867E-03 -2.87789485E-03  9.30754817E-05  1.31208416E-08  1.88478474E-08
  7.03364036E-01  1.47643941E-02  6.10605030E-04 -1.05000014E-03 -6.16008786E-08
  2.98304294E-03 -2.95244990E-05  7.53212427E-05  2.24302383E-09 -2.57652408E-03
 -2.66289137E-03 -2.87768526E-03 -9.30798394E-05  7.58013959E-10  1.50033084E-08
  3.87255357E-05  5.31737690E-04 -1.14114585E-04 -8.80686187E-09 -2.18894116E-09
  1.86795731E-04  7.03175124E-04  2.65106785E-08  1.33271848E-08 -1.52687511E-04
 -9.31926580E-04 -1.30217644E-05 -1.81170748E-08 -3.27607466E-09 -7.26866298E-08
 -7.32153462E-06 -1.98871778E-05  5.75819772E-05  1.69798235E-09  1.07121323E-09
  1.55149730E-04  6.97553405E-04 -3.46948943E-08  1.60589429E-08 -8.10764468E-05
  1.72354279E-05 -3.78171478E-05 -4.79421229E-09 -8.34906435E-10  1.24116604E-09
  1.21367461E-06  2.72328294E-05 -3.93686237E-06  8.78999917E-06 -1.17327308E-09
 -1.23641401E-04  3.55019906E-05 -3.40913941E-04  1.38704680E-08 -1.48393445E-05
 -2.03529185E-05  5.68007065E-06  6.70408358E-06 -1.95264516E-09  1.68402044E-09
  1.21345536E-06  2.72303570E-05 -3.93830803E-06 -8.79077067E-06  1.21029184E-09
 -1.23602014E-04  3.54864293E-05  3.40878263E-04 -1.28787096E-08 -1.48387308E-05
 -2.03496614E-05  5.67970960E-06 -6.70282276E-06  1.03774880E-09  1.17431826E-09
  4.12709701E-06  1.87182230E-05 -9.11136019E-06  8.18961899E-07  2.55849766E-10
 -6.92828491E-05  7.47038832E-05  5.64307083E-05 -1.89590778E-09  3.74687782E-06
  1.79345139E-06  1.10103030E-05  6.57441342E-07 -1.31755643E-10  2.42662565E-10
  4.12726212E-06  1.87191743E-05 -9.11087322E-06 -8.19587041E-07 -7.08479111E-10
 -6.92885678E-05  7.46994421E-05 -5.64128353E-05  5.46118836E-09  3.74679574E-06
  1.79329284E-06  1.10106064E-05 -6.57802629E-07 -3.54176783E-10  7.27440724E-11
  8.11025019E-07  4.39924073E-06 -1.15811814E-06  4.15014750E-10 -8.23033638E-11
 -8.03757547E-05 -4.29002189E-06  5.58577211E-09  1.51976222E-10  1.11390735E-06
 -3.64906838E-06  3.37177536E-06 -2.42500349E-10 -8.94896290E-11 -9.05801224E-11
  1.37499591E-05 -2.27489526E-04  1.37488874E-05 -2.27474584E-04  5.87051481E-06
  3.76406240E-06  5.86958852E-06  3.75920194E-06  4.87479040E-06  1.64391713E-06
 -1.76389876E-04  1.92565347E-04  6.66237847E-05  1.52770120E-04  9.65676504E-09
  6.84701285E-05  1.03429813E-04 -1.94696221E-04 -6.12081366E-09 -5.33311899E-05
 -2.60330689E-04  1.26373800E-04 -1.16233352E-04 -1.00469787E-08 -3.32143603E-08
 -1.76389898E-04  1.92565338E-04  6.66237673E-05 -1.52770108E-04 -7.05124258E-09
  6.84701977E-05  1.03429836E-04  1.94696241E-04  9.62631286E-09 -5.33311890E-05
 -2.60330734E-04  1.26373802E-04  1.16233357E-04  1.88257486E-09 -2.81818387E-08
  9.95299101E-01  2.41185766E-02 -3.38297003E-04  9.42405382E-11 -7.39705445E-09
 -3.89116839E-03 -1.84317394E-03 -3.08644782E-11 -3.45911480E-08 -3.02918751E-03
 -2.52621958E-03 -3.26019620E-03 -1.69241205E-11  5.53525425E-09  5.62407965E-08
  1.86131877E-06  1.26006372E-04 -1.53538731E-04 -2.21243029E-12 -3.01663393E-09
  1.30248959E-03 -3.39351121E-03  1.23022702E-10 -7.09029208E-08  8.42070177E-05
 -7.33043236E-05 -7.91393429E-05  1.71908054E-12  3.15584029E-09 -4.06231289E-09
 -1.11645164E-05 -6.69035028E-05 -6.73611063E-06  4.43646441E-06 -3.56564580E-09
  1.10114946E-03  9.77717753E-04  7.79490988E-04  9.13051531E-09 -3.36088998E-05
  3.92264135E-05 -4.21087860E-05  3.96419216E-05 -6.99495121E-10 -2.66522749E-09
 -1.11645160E-05 -6.69035049E-05 -6.73609664E-06 -4.43645938E-06  3.18601567E-09
  1.10114919E-03  9.77717668E-04 -7.79490821E-04  2.92839416E-08 -3.36088945E-05
  3.92264119E-05 -4.21087877E-05 -3.96419273E-05  2.34660350E-10 -2.96369158E-09