8071                                                                    
Freq      RMP2-FC                                                     6-31G(d)            
Number of atoms                            I               16
Info1-9                                    I   N=           9
          28          26        1002           0           0         100
           6           2           1
Charge                                     I                0
Multiplicity                               I                1
Number of electrons                        I               50
Number of alpha electrons                  I               25
Number of beta electrons                   I               25
Number of basis functions                  I              110
Number of independent functions            I              110
Number of point charges in /Mol/           I                0
Number of translation vectors              I                0
Atomic numbers                             I   N=          16
           8           8           6           6           6           6
           1           1           1           1           1           1
           1           1           1           1
Nuclear charges                            R   N=          16
  8.00000000E+00  8.00000000E+00  6.00000000E+00  6.00000000E+00  6.00000000E+00
  6.00000000E+00  1.00000000E+00  1.00000000E+00  1.00000000E+00  1.00000000E+00
  1.00000000E+00  1.00000000E+00  1.00000000E+00  1.00000000E+00  1.00000000E+00
  1.00000000E+00
Current cartesian coordinates              R   N=          48
 -3.23220736E+00  1.00596213E+00 -1.50263404E-05  3.23220734E+00 -1.00596212E+00
 -2.55200386E-06 -1.21348874E+00 -7.56246665E-01 -2.62378285E-05  1.21348875E+00
  7.56246691E-01 -3.23540200E-05 -5.61015688E+00 -2.28163063E-01  2.91391468E-05
  5.61015689E+00  2.28163028E-01  3.42904137E-05 -1.28207277E+00 -1.97753065E+00
  1.68100981E+00 -1.28209561E+00 -1.97752909E+00 -1.68106253E+00  1.28207122E+00
  1.97754672E+00  1.68099211E+00  1.28209717E+00  1.97751309E+00 -1.68108022E+00
 -7.04778671E+00  1.24854875E+00  2.49644173E-05 -5.84532453E+00 -1.41599681E+00
  1.68632367E+00 -5.84536410E+00 -1.41604295E+00 -1.68622753E+00  5.84536559E+00
  1.41603009E+00 -1.68623121E+00  7.04778670E+00 -1.24854880E+00  4.25473540E-05
  5.84532309E+00  1.41600961E+00  1.68631999E+00
Force Field                                I                0
Int Atom Types                             I   N=          16
           0           0           0           0           0           0
           0           0           0           0           0           0
           0           0           0           0
MM charges                                 R   N=          16
  0.00000000E+00  0.00000000E+00  0.00000000E+00  0.00000000E+00  0.00000000E+00
  0.00000000E+00  0.00000000E+00  0.00000000E+00  0.00000000E+00  0.00000000E+00
  0.00000000E+00  0.00000000E+00  0.00000000E+00  0.00000000E+00  0.00000000E+00
  0.00000000E+00
Integer atomic weights                     I   N=          16
          16          16          12          12          12          12
           1           1           1           1           1           1
           1           1           1           1
Real atomic weights                        R   N=          16
  1.59949146E+01  1.59949146E+01  1.20000000E+01  1.20000000E+01  1.20000000E+01
  1.20000000E+01  1.00782504E+00  1.00782504E+00  1.00782504E+00  1.00782504E+00
  1.00782504E+00  1.00782504E+00  1.00782504E+00  1.00782504E+00  1.00782504E+00
  1.00782504E+00
Atom fragment info                         I   N=          16
           0           0           0           0           0           0
           0           0           0           0           0           0
           0           0           0           0
Atom residue num                           I   N=          16
           0           0           0           0           0           0
           0           0           0           0           0           0
           0           0           0           0
Nuclear spins                              I   N=          16
           0           0           0           0           0           0
           1           1           1           1           1           1
           1           1           1           1
Nuclear ZEff                               R   N=          16
 -5.60000000E+00 -5.60000000E+00 -3.60000000E+00 -3.60000000E+00 -3.60000000E+00
 -3.60000000E+00 -1.00000000E+00 -1.00000000E+00 -1.00000000E+00 -1.00000000E+00
 -1.00000000E+00 -1.00000000E+00 -1.00000000E+00 -1.00000000E+00 -1.00000000E+00
 -1.00000000E+00
Nuclear QMom                               R   N=          16
  0.00000000E+00  0.00000000E+00  0.00000000E+00  0.00000000E+00  0.00000000E+00
  0.00000000E+00  0.00000000E+00  0.00000000E+00  0.00000000E+00  0.00000000E+00
  0.00000000E+00  0.00000000E+00  0.00000000E+00  0.00000000E+00  0.00000000E+00
  0.00000000E+00
Nuclear GFac                               R   N=          16
  0.00000000E+00  0.00000000E+00  0.00000000E+00  0.00000000E+00  0.00000000E+00
  0.00000000E+00  2.79284600E+00  2.79284600E+00  2.79284600E+00  2.79284600E+00
  2.79284600E+00  2.79284600E+00  2.79284600E+00  2.79284600E+00  2.79284600E+00
  2.79284600E+00
MicOpt                                     I   N=          16
          -1          -1          -1          -1          -1          -1
          -1          -1          -1          -1          -1          -1
          -1          -1          -1          -1
Number of contracted shells                I               44
Number of primitive shells                 I              106
Pure/Cartesian d shells                    I                1
Pure/Cartesian f shells                    I                0
Highest angular momentum                   I                2
Largest degree of contraction              I                6
Shell types                                I   N=          44
           0          -1          -1           2           0          -1
          -1           2           0          -1          -1           2
           0          -1          -1           2           0          -1
          -1           2           0          -1          -1           2
           0           0           0           0           0           0
           0           0           0           0           0           0
           0           0           0           0           0           0
           0           0
Number of primitives per shell             I   N=          44
           6           3           1           1           6           3
           1           1           6           3           1           1
           6           3           1           1           6           3
           1           1           6           3           1           1
           3           1           3           1           3           1
           3           1           3           1           3           1
           3           1           3           1           3           1
           3           1
Shell to atom map                          I   N=          44
           1           1           1           1           2           2
           2           2           3           3           3           3
           4           4           4           4           5           5
           5           5           6           6           6           6
           7           7           8           8           9           9
          10          10          11          11          12          12
          13          13          14          14          15          15
          16          16
Primitive exponents                        R   N=         106
  5.48467166E+03  8.25234946E+02  1.88046958E+02  5.29645000E+01  1.68975704E+01
  5.79963534E+00  1.55396162E+01  3.59993359E+00  1.01376175E+00  2.70005823E-01
  8.00000000E-01  5.48467166E+03  8.25234946E+02  1.88046958E+02  5.29645000E+01
  1.68975704E+01  5.79963534E+00  1.55396162E+01  3.59993359E+00  1.01376175E+00
  2.70005823E-01  8.00000000E-01  3.04752488E+03  4.57369518E+02  1.03948685E+02
  2.92101553E+01  9.28666296E+00  3.16392696E+00  7.86827235E+00  1.88128854E+00
  5.44249258E-01  1.68714478E-01  8.00000000E-01  3.04752488E+03  4.57369518E+02
  1.03948685E+02  2.92101553E+01  9.28666296E+00  3.16392696E+00  7.86827235E+00
  1.88128854E+00  5.44249258E-01  1.68714478E-01  8.00000000E-01  3.04752488E+03
  4.57369518E+02  1.03948685E+02  2.92101553E+01  9.28666296E+00  3.16392696E+00
  7.86827235E+00  1.88128854E+00  5.44249258E-01  1.68714478E-01  8.00000000E-01
  3.04752488E+03  4.57369518E+02  1.03948685E+02  2.92101553E+01  9.28666296E+00
  3.16392696E+00  7.86827235E+00  1.88128854E+00  5.44249258E-01  1.68714478E-01
  8.00000000E-01  1.87311370E+01  2.82539436E+00  6.40121692E-01  1.61277759E-01
  1.87311370E+01  2.82539436E+00  6.40121692E-01  1.61277759E-01  1.87311370E+01
  2.82539436E+00  6.40121692E-01  1.61277759E-01  1.87311370E+01  2.82539436E+00
  6.40121692E-01  1.61277759E-01  1.87311370E+01  2.82539436E+00  6.40121692E-01
  1.61277759E-01  1.87311370E+01  2.82539436E+00  6.40121692E-01  1.61277759E-01
  1.87311370E+01  2.82539436E+00  6.40121692E-01  1.61277759E-01  1.87311370E+01
  2.82539436E+00  6.40121692E-01  1.61277759E-01  1.87311370E+01  2.82539436E+00
  6.40121692E-01  1.61277759E-01  1.87311370E+01  2.82539436E+00  6.40121692E-01
  1.61277759E-01
Contraction coefficients                   R   N=         106
  1.83107443E-03  1.39501722E-02  6.84450781E-02  2.32714336E-01  4.70192898E-01
  3.58520853E-01 -1.10777550E-01 -1.48026263E-01  1.13076702E+00  1.00000000E+00
  1.00000000E+00  1.83107443E-03  1.39501722E-02  6.84450781E-02  2.32714336E-01
  4.70192898E-01  3.58520853E-01 -1.10777550E-01 -1.48026263E-01  1.13076702E+00
  1.00000000E+00  1.00000000E+00  1.83473713E-03  1.40373228E-02  6.88426223E-02
  2.32184443E-01  4.67941348E-01  3.62311985E-01 -1.19332420E-01 -1.60854152E-01
  1.14345644E+00  1.00000000E+00  1.00000000E+00  1.83473713E-03  1.40373228E-02
  6.88426223E-02  2.32184443E-01  4.67941348E-01  3.62311985E-01 -1.19332420E-01
 -1.60854152E-01  1.14345644E+00  1.00000000E+00  1.00000000E+00  1.83473713E-03
  1.40373228E-02  6.88426223E-02  2.32184443E-01  4.67941348E-01  3.62311985E-01
 -1.19332420E-01 -1.60854152E-01  1.14345644E+00  1.00000000E+00  1.00000000E+00
  1.83473713E-03  1.40373228E-02  6.88426223E-02  2.32184443E-01  4.67941348E-01
  3.62311985E-01 -1.19332420E-01 -1.60854152E-01  1.14345644E+00  1.00000000E+00
  1.00000000E+00  3.34946043E-02  2.34726953E-01  8.13757326E-01  1.00000000E+00
  3.34946043E-02  2.34726953E-01  8.13757326E-01  1.00000000E+00  3.34946043E-02
  2.34726953E-01  8.13757326E-01  1.00000000E+00  3.34946043E-02  2.34726953E-01
  8.13757326E-01  1.00000000E+00  3.34946043E-02  2.34726953E-01  8.13757326E-01
  1.00000000E+00  3.34946043E-02  2.34726953E-01  8.13757326E-01  1.00000000E+00
  3.34946043E-02  2.34726953E-01  8.13757326E-01  1.00000000E+00  3.34946043E-02
  2.34726953E-01  8.13757326E-01  1.00000000E+00  3.34946043E-02  2.34726953E-01
  8.13757326E-01  1.00000000E+00  3.34946043E-02  2.34726953E-01  8.13757326E-01
  1.00000000E+00
P(S=P) Contraction coefficients            R   N=         106
  0.00000000E+00  0.00000000E+00  0.00000000E+00  0.00000000E+00  0.00000000E+00
  0.00000000E+00  7.08742682E-02  3.39752839E-01  7.27158577E-01  1.00000000E+00
  0.00000000E+00  0.00000000E+00  0.00000000E+00  0.00000000E+00  0.00000000E+00
  0.00000000E+00  0.00000000E+00  7.08742682E-02  3.39752839E-01  7.27158577E-01
  1.00000000E+00  0.00000000E+00  0.00000000E+00  0.00000000E+00  0.00000000E+00
  0.00000000E+00  0.00000000E+00  0.00000000E+00  6.89990666E-02  3.16423961E-01
  7.44308291E-01  1.00000000E+00  0.00000000E+00  0.00000000E+00  0.00000000E+00
  0.00000000E+00  0.00000000E+00  0.00000000E+00  0.00000000E+00  6.89990666E-02
  3.16423961E-01  7.44308291E-01  1.00000000E+00  0.00000000E+00  0.00000000E+00
  0.00000000E+00  0.00000000E+00  0.00000000E+00  0.00000000E+00  0.00000000E+00
  6.89990666E-02  3.16423961E-01  7.44308291E-01  1.00000000E+00  0.00000000E+00
  0.00000000E+00  0.00000000E+00  0.00000000E+00  0.00000000E+00  0.00000000E+00
  0.00000000E+00  6.89990666E-02  3.16423961E-01  7.44308291E-01  1.00000000E+00
  0.00000000E+00  0.00000000E+00  0.00000000E+00  0.00000000E+00  0.00000000E+00
  0.00000000E+00  0.00000000E+00  0.00000000E+00  0.00000000E+00  0.00000000E+00
  0.00000000E+00  0.00000000E+00  0.00000000E+00  0.00000000E+00  0.00000000E+00
  0.00000000E+00  0.00000000E+00  0.00000000E+00  0.00000000E+00  0.00000000E+00
  0.00000000E+00  0.00000000E+00  0.00000000E+00  0.00000000E+00  0.00000000E+00
  0.00000000E+00  0.00000000E+00  0.00000000E+00  0.00000000E+00  0.00000000E+00
  0.00000000E+00  0.00000000E+00  0.00000000E+00  0.00000000E+00  0.00000000E+00
  0.00000000E+00  0.00000000E+00  0.00000000E+00  0.00000000E+00  0.00000000E+00
  0.00000000E+00
Coordinates of each shell                  R   N=         132
 -3.23220736E+00  1.00596213E+00 -1.50263404E-05 -3.23220736E+00  1.00596213E+00
 -1.50263404E-05 -3.23220736E+00  1.00596213E+00 -1.50263404E-05 -3.23220736E+00
  1.00596213E+00 -1.50263404E-05  3.23220734E+00 -1.00596212E+00 -2.55200386E-06
  3.23220734E+00 -1.00596212E+00 -2.55200386E-06  3.23220734E+00 -1.00596212E+00
 -2.55200386E-06  3.23220734E+00 -1.00596212E+00 -2.55200386E-06 -1.21348874E+00
 -7.56246665E-01 -2.62378285E-05 -1.21348874E+00 -7.56246665E-01 -2.62378285E-05
 -1.21348874E+00 -7.56246665E-01 -2.62378285E-05 -1.21348874E+00 -7.56246665E-01
 -2.62378285E-05  1.21348875E+00  7.56246691E-01 -3.23540200E-05  1.21348875E+00
  7.56246691E-01 -3.23540200E-05  1.21348875E+00  7.56246691E-01 -3.23540200E-05
  1.21348875E+00  7.56246691E-01 -3.23540200E-05 -5.61015688E+00 -2.28163063E-01
  2.91391468E-05 -5.61015688E+00 -2.28163063E-01  2.91391468E-05 -5.61015688E+00
 -2.28163063E-01  2.91391468E-05 -5.61015688E+00 -2.28163063E-01  2.91391468E-05
  5.61015689E+00  2.28163028E-01  3.42904137E-05  5.61015689E+00  2.28163028E-01
  3.42904137E-05  5.61015689E+00  2.28163028E-01  3.42904137E-05  5.61015689E+00
  2.28163028E-01  3.42904137E-05 -1.28207277E+00 -1.97753065E+00  1.68100981E+00
 -1.28207277E+00 -1.97753065E+00  1.68100981E+00 -1.28209561E+00 -1.97752909E+00
 -1.68106253E+00 -1.28209561E+00 -1.97752909E+00 -1.68106253E+00  1.28207122E+00
  1.97754672E+00  1.68099211E+00  1.28207122E+00  1.97754672E+00  1.68099211E+00
  1.28209717E+00  1.97751309E+00 -1.68108022E+00  1.28209717E+00  1.97751309E+00
 -1.68108022E+00 -7.04778671E+00  1.24854875E+00  2.49644173E-05 -7.04778671E+00
  1.24854875E+00  2.49644173E-05 -5.84532453E+00 -1.41599681E+00  1.68632367E+00
 -5.84532453E+00 -1.41599681E+00  1.68632367E+00 -5.84536410E+00 -1.41604295E+00
 -1.68622753E+00 -5.84536410E+00 -1.41604295E+00 -1.68622753E+00  5.84536559E+00
  1.41603009E+00 -1.68623121E+00  5.84536559E+00  1.41603009E+00 -1.68623121E+00
  7.04778670E+00 -1.24854880E+00  4.25473540E-05  7.04778670E+00 -1.24854880E+00
  4.25473540E-05  5.84532309E+00  1.41600961E+00  1.68631999E+00  5.84532309E+00
  1.41600961E+00  1.68631999E+00
Constraint Structure                       R   N=          48
 -3.23220736E+00  1.00596213E+00 -1.50263404E-05  3.23220734E+00 -1.00596212E+00
 -2.55200386E-06 -1.21348874E+00 -7.56246665E-01 -2.62378285E-05  1.21348875E+00
  7.56246691E-01 -3.23540200E-05 -5.61015688E+00 -2.28163063E-01  2.91391468E-05
  5.61015689E+00  2.28163028E-01  3.42904137E-05 -1.28207277E+00 -1.97753065E+00
  1.68100981E+00 -1.28209561E+00 -1.97752909E+00 -1.68106253E+00  1.28207122E+00
  1.97754672E+00  1.68099211E+00  1.28209717E+00  1.97751309E+00 -1.68108022E+00
 -7.04778671E+00  1.24854875E+00  2.49644173E-05 -5.84532453E+00 -1.41599681E+00
  1.68632367E+00 -5.84536410E+00 -1.41604295E+00 -1.68622753E+00  5.84536559E+00
  1.41603009E+00 -1.68623121E+00  7.04778670E+00 -1.24854880E+00  4.25473540E-05
  5.84532309E+00  1.41600961E+00  1.68631999E+00
Num ILSW                                   I              100
ILSW                                       I   N=         100
           0           1           0           0           2           0
           0           0           0           0           0          -1
           0           0           0           0           0           0
           0           0           0           0           1           0
           1           0           0           0           0           0
           0           0      100000           0          -1           0
           0           0           0           0           0           0
           0           0           0           1           1           0
           0           0           1           0           0           0
           0           0           4          40           0           0
           0           0           0           0           0           0
           0           0           0           0           0           0
           0           0           0           0           0           0
           0           0           0           0           0           0
           0           0           0           0           0           0
           0           0           0           0           0           0
           0           0           0           0
Num RLSW                                   I               40
RLSW                                       R   N=          40
  1.00000000E+00  1.00000000E+00  1.00000000E+00  1.00000000E+00  1.00000000E+00
  0.00000000E+00  0.00000000E+00  1.00000000E+00  0.00000000E+00  0.00000000E+00
  0.00000000E+00  0.00000000E+00  1.00000000E+00  0.00000000E+00  0.00000000E+00
  0.00000000E+00  0.00000000E+00  1.00000000E+00  0.00000000E+00  0.00000000E+00
  0.00000000E+00  0.00000000E+00  1.00000000E+00  0.00000000E+00  0.00000000E+00
  0.00000000E+00  0.00000000E+00  1.00000000E+00  0.00000000E+00  0.00000000E+00
  0.00000000E+00  0.00000000E+00  0.00000000E+00  0.00000000E+00  0.00000000E+00
  0.00000000E+00  0.00000000E+00  0.00000000E+00  1.00000000E+00  1.00000000E+00
MxBond                                     I                4
NBond                                      I   N=          16
           2           2           4           4           4           4
           1           1           1           1           1           1
           1           1           1           1
IBond                                      I   N=          64
           3           5           0           0           4           6
           0           0           1           4           7           8
           2           3           9          10           1          11
          12          13           2          14          15          16
           3           0           0           0           3           0
           0           0           4           0           0           0
           4           0           0           0           5           0
           0           0           5           0           0           0
           5           0           0           0           6           0
           0           0           6           0           0           0
           6           0           0           0
RBond                                      R   N=          64
  1.00000000E+00  1.00000000E+00  0.00000000E+00  0.00000000E+00  1.00000000E+00
  1.00000000E+00  0.00000000E+00  0.00000000E+00  1.00000000E+00  1.00000000E+00
  1.00000000E+00  1.00000000E+00  1.00000000E+00  1.00000000E+00  1.00000000E+00
  1.00000000E+00  1.00000000E+00  1.00000000E+00  1.00000000E+00  1.00000000E+00
  1.00000000E+00  1.00000000E+00  1.00000000E+00  1.00000000E+00  1.00000000E+00
  0.00000000E+00  0.00000000E+00  0.00000000E+00  1.00000000E+00  0.00000000E+00
  0.00000000E+00  0.00000000E+00  1.00000000E+00  0.00000000E+00  0.00000000E+00
  0.00000000E+00  1.00000000E+00  0.00000000E+00  0.00000000E+00  0.00000000E+00
  1.00000000E+00  0.00000000E+00  0.00000000E+00  0.00000000E+00  1.00000000E+00
  0.00000000E+00  0.00000000E+00  0.00000000E+00  1.00000000E+00  0.00000000E+00
  0.00000000E+00  0.00000000E+00  1.00000000E+00  0.00000000E+00  0.00000000E+00
  0.00000000E+00  1.00000000E+00  0.00000000E+00  0.00000000E+00  0.00000000E+00
  1.00000000E+00  0.00000000E+00  0.00000000E+00  0.00000000E+00
Virial Ratio                               R      2.002286906456114E+00
SCF Energy                                 R     -3.069771434162389E+02
MP2 Energy                                 R     -3.078521369570601E+02
Total Energy                               R     -3.078521369570601E+02
Post-SCF wavefunction norm                 R      1.590608239905245E+00
RMS Force                                  R      1.775180398786415E-07
RMS Density                                R      2.152585177194857E-09
External E-field                           R   N=          35
  0.00000000E+00  0.00000000E+00  0.00000000E+00  0.00000000E+00  0.00000000E+00
  0.00000000E+00  0.00000000E+00  0.00000000E+00  0.00000000E+00  0.00000000E+00
  0.00000000E+00  0.00000000E+00  0.00000000E+00  0.00000000E+00  0.00000000E+00
  0.00000000E+00  0.00000000E+00  0.00000000E+00  0.00000000E+00  0.00000000E+00
  0.00000000E+00  0.00000000E+00  0.00000000E+00  0.00000000E+00  0.00000000E+00
  0.00000000E+00  0.00000000E+00  0.00000000E+00  0.00000000E+00  0.00000000E+00
  0.00000000E+00  0.00000000E+00  0.00000000E+00  0.00000000E+00  0.00000000E+00
IOpCl                                      I                0
IROHF                                      I                0
Alpha Orbital Energies                     R   N=         110
 -2.05617440E+01 -2.05617419E+01 -1.12720925E+01 -1.12720907E+01 -1.12714725E+01
 -1.12708223E+01 -1.37575058E+00 -1.36407315E+00 -1.02275917E+00 -9.32757367E-01
 -8.83836836E-01 -8.27922446E-01 -6.84531901E-01 -6.64067043E-01 -6.51447162E-01
 -6.40008280E-01 -6.08728962E-01 -5.92050156E-01 -5.73649021E-01 -5.13615259E-01
 -5.02042335E-01 -4.86303424E-01 -4.71476446E-01 -4.21719573E-01 -4.20649890E-01
  2.36156976E-01  2.37256780E-01  2.88230741E-01  2.90696362E-01  2.93999321E-01
  3.07448106E-01  3.22115097E-01  3.27573926E-01  3.38831841E-01  3.47099522E-01
  3.60927503E-01  3.72913018E-01  4.26065171E-01  4.39008405E-01  4.98967630E-01
  6.93210531E-01  7.49919714E-01  7.73008386E-01  7.76991343E-01  7.95407486E-01
  7.97256698E-01  8.19499158E-01  8.27093035E-01  8.65552585E-01  9.84523408E-01
  9.89077821E-01  1.00452705E+00  1.03489169E+00  1.09219875E+00  1.11404723E+00
  1.12840499E+00  1.14690876E+00  1.15841481E+00  1.15865484E+00  1.17358081E+00
  1.18393054E+00  1.20350358E+00  1.21257166E+00  1.23422243E+00  1.30489953E+00
  1.34592858E+00  1.37766373E+00  1.44821749E+00  1.50903053E+00  1.60648761E+00
  1.63997472E+00  1.67687995E+00  1.71027277E+00  1.73566133E+00  1.75880896E+00
  1.77839788E+00  1.81572575E+00  1.89754543E+00  2.08542962E+00  2.14100696E+00
  2.18493944E+00  2.21786885E+00  2.30124940E+00  2.35612255E+00  2.36557842E+00
  2.40787868E+00  2.42827838E+00  2.42934882E+00  2.47082342E+00  2.49155370E+00
  2.50170510E+00  2.54914370E+00  2.58880659E+00  2.65263889E+00  2.66921123E+00
  2.70907476E+00  2.84794970E+00  2.86754584E+00  2.97577823E+00  3.00069173E+00
  3.06888478E+00  3.10312053E+00  3.35966866E+00  3.36385847E+00  4.26467572E+00
  4.47239545E+00  4.64388201E+00  4.66278711E+00  4.68553465E+00  4.89274328E+00
Alpha MO coefficients                      R   N=       12100
  7.03204277E-01  1.50424807E-02 -1.22659212E-04 -9.01938291E-04  9.50455033E-09
  2.39589156E-03  3.44864525E-05  5.90763426E-04 -4.06739686E-09 -2.95575832E-03
 -2.85629067E-03 -2.66877755E-03  1.45111731E-05  4.68623425E-09  1.80302720E-09
  7.03479628E-01  1.50483463E-02  1.22709814E-04  9.02287998E-04  1.74454992E-09
  2.39697097E-03 -3.45464940E-05 -5.90956801E-04  1.11397171E-09 -2.95692599E-03
 -2.85742289E-03 -2.66983952E-03  1.45123327E-05 -5.31121746E-09  1.18239071E-10
 -1.26532358E-05  1.96672966E-04 -1.88444717E-04  1.66138258E-04  5.91205384E-10
  2.42143927E-04 -2.96930389E-04  7.35831977E-05  2.61494981E-09 -1.78141317E-05
  4.72351990E-06 -5.72702081E-05 -5.21692384E-05 -1.37706635E-09  3.54661310E-10
 -1.26622479E-05  1.96705013E-04  1.88524163E-04 -1.66208292E-04  2.31039602E-09
  2.42306280E-04  2.96791577E-04 -7.35606930E-05  4.03922395E-09 -1.77861653E-05
  4.71652609E-06 -5.72852832E-05 -5.21741467E-05  1.91992381E-09 -1.08638093E-09
 -4.11106617E-06  2.05690023E-04  2.70212782E-04  1.28854807E-04 -4.79067464E-09
  5.16388107E-06 -1.02854651E-04 -1.24120075E-04  9.40473480E-10  5.30835120E-05
 -2.08484482E-05 -1.22218829E-05  3.59448259E-05 -1.50596232E-09 -3.72421192E-10
 -4.11637311E-06  2.05754590E-04 -2.70311014E-04 -1.28909294E-04 -4.03261128E-09
  5.22851956E-06  1.02841139E-04  1.24198082E-04 -1.83292831E-10  5.31027425E-05
 -2.08633418E-05 -1.22326360E-05  3.59590470E-05  1.31667622E-09  4.79989667E-10
  7.90092761E-08 -8.70548175E-05  7.81344708E-08 -8.70496969E-05  5.56022592E-08
 -8.70690578E-05  5.47749842E-08 -8.70635086E-05  9.42000760E-07 -6.03031572E-05
 -2.17601813E-05 -6.73647804E-05 -2.17599762E-05 -6.73681597E-05 -2.17747282E-05
 -6.74028601E-05  9.44247720E-07 -6.03026073E-05 -2.17748950E-05 -6.73991619E-05
  7.03466971E-01  1.49854940E-02 -1.29236649E-04 -8.93435550E-04  9.99365732E-09
  2.75752882E-03  1.53329701E-04  4.94060128E-04 -6.98589411E-09 -2.98312971E-03
 -2.89256763E-03 -2.71306780E-03  2.96111447E-06  4.56593675E-09  2.09949488E-09
 -7.03191615E-01 -1.49796038E-02 -1.29188633E-04 -8.93082375E-04 -2.32363530E-09
 -2.75659063E-03  1.53316197E-04  4.93828807E-04  2.86841941E-09  2.98197231E-03
  2.89144918E-03  2.71202278E-03 -2.95543485E-06  5.06971342E-09  2.79813420E-10
 -2.30223161E-05  8.18887834E-05 -2.02970177E-04  1.78918264E-04  1.37832697E-09
  4.14744861E-04  3.54469782E-04 -5.74682777E-05  1.33341346E-09  7.14376966E-05
 -1.78605469E-05 -3.85156453E-05 -1.25544738E-05  7.69915933E-11  1.13348630E-10
  2.30173608E-05 -8.18117838E-05 -2.02896384E-04  1.78853209E-04 -3.24523295E-09
 -4.14650034E-04  3.54585998E-04 -5.74970813E-05 -6.57335425E-10 -7.14446609E-05
  1.78623965E-05  3.84932233E-05  1.25340468E-05 -1.70893353E-10  3.48920838E-10
 -1.35566594E-05  1.64952757E-04  2.50960549E-04  1.39210047E-04 -4.60146501E-09
  1.65104641E-04  3.44955839E-05 -1.99264247E-04  1.04956449E-09  4.91369731E-05
 -3.80410633E-05 -2.74680013E-05  3.63387835E-05 -1.70839844E-09 -3.80606808E-11
  1.35550485E-05 -1.64872223E-04  2.50854745E-04  1.39159586E-04  3.73731419E-09
 -1.65102602E-04  3.45358439E-05 -1.99215645E-04  8.00017581E-10 -4.91161849E-05
  3.80329003E-05  2.74632143E-05 -3.63247055E-05 -1.55124321E-09 -1.39415394E-10
 -5.97288247E-05 -3.58475747E-05 -5.97276310E-05 -3.58479341E-05  5.97288637E-05
  3.58136176E-05  5.97276433E-05  3.58137289E-05  5.73799553E-06  1.38299619E-06
 -3.76347242E-05 -8.82359060E-05 -3.76354342E-05 -8.82355352E-05  3.76269499E-05
  8.82092376E-05 -5.73762704E-06 -1.40660770E-06  3.76261655E-05  8.82094443E-05
 -7.23831289E-05  2.82890842E-04 -1.25199984E-04 -1.28758322E-04  1.64390486E-09
 -1.29998033E-04  4.54195379E-05  6.64613068E-04 -3.46756249E-10 -3.70217431E-04
 -1.07059528E-04  1.50667942E-04 -2.06660708E-04  1.09882279E-08  5.09373615E-09
 -7.24040950E-05  2.82936702E-04  1.25220731E-04  1.28780742E-04  6.51316884E-10
 -1.29881606E-04 -4.54265330E-05 -6.64700605E-04  5.62770846E-09 -3.70313133E-04
 -1.07087963E-04  1.50694372E-04 -2.06714524E-04 -1.00453910E-08 -2.81790323E-09
 -8.96010689E-03 -5.53486354E-04  7.35774562E-05  2.81649031E-05  8.13115951E-10
  1.69412739E-03 -1.31595534E-03  1.97500475E-04  2.55763808E-09  1.45477209E-04
 -1.36564699E-05 -4.58299188E-05 -7.25414030E-05 -4.02822994E-09  5.18450165E-10
 -8.96157060E-03 -5.53603676E-04 -7.35749213E-05 -2.81805028E-05  8.87207278E-10
  1.69436460E-03  1.31613567E-03 -1.97396869E-04  7.05301162E-09  1.45509018E-04
 -1.36706631E-05 -4.58364706E-05 -7.25474764E-05  5.06933962E-09 -8.81417300E-10
  7.04013037E-01  1.94935597E-02  6.62436076E-04  1.73109675E-04 -1.07814751E-08
 -8.72110276E-03 -1.98140440E-04  5.39997103E-04 -6.54680608E-09 -1.06011629E-03
 -1.14268601E-03 -1.20949697E-03  4.80419753E-05 -2.65271766E-09 -2.21747823E-09
  7.04179804E-01  1.94981693E-02 -6.62576263E-04 -1.73148067E-04 -1.01541978E-08
 -8.72317132E-03  1.98161237E-04 -5.40106436E-04 -2.24769155E-09 -1.06037627E-03
 -1.14296290E-03 -1.20978886E-03  4.80512333E-05  2.42429034E-09  1.74612471E-09
 -6.96186114E-05 -2.33691499E-04 -6.96202470E-05 -2.33697591E-04 -6.96447072E-05
 -2.33759380E-04 -6.96458835E-05 -2.33765388E-04  6.26427566E-07  1.38768791E-03
  1.03456624E-04  1.79898518E-03  1.03457914E-04  1.79897838E-03  1.03479786E-04
  1.79940833E-03  6.29552106E-07  1.38803629E-03  1.03478340E-04  1.79941579E-03
 -8.85242446E-05  1.93663649E-04 -8.75950268E-05 -9.46824609E-05  2.77385963E-09
  4.91603972E-04  2.93380812E-05  3.69638518E-04 -7.84368060E-09 -4.04068953E-04
 -1.20095409E-04  1.11617999E-04 -2.27247190E-04  9.71658392E-09  6.34023159E-09
  8.85070990E-05 -1.93596646E-04 -8.75653728E-05 -9.46519606E-05 -2.05603402E-09
 -4.91634716E-04  2.93273523E-05  3.69481107E-04  4.44498984E-09  4.03981266E-04
  1.20070041E-04 -1.11582313E-04  2.27198233E-04  8.57178365E-09  4.29293298E-09
 -6.17244167E-03 -4.95158858E-04 -1.06920431E-05  6.58720000E-05 -1.88500580E-09
  1.00140282E-03 -7.61776199E-04 -4.37486016E-04  2.79456825E-08  1.34311755E-04
 -5.99336976E-05 -2.76708930E-05 -2.56485496E-05 -2.16936581E-09 -4.39306824E-10
  6.17031901E-03  4.95027741E-04 -1.07094696E-05  6.58653275E-05  1.17457524E-09
 -1.00100152E-03 -7.61464497E-04 -4.37532772E-04 -2.44098225E-08 -1.34277294E-04
  5.99304600E-05  2.76600387E-05  2.56313702E-05 -2.75680937E-09 -7.92697460E-10