7852                                                                    
Freq      RMP2-FC                                                     6-31G(d)            
Number of atoms                            I               13
Info1-9                                    I   N=           9
          25          23        1002           0           0         100
           6           2           1
Charge                                     I                0
Multiplicity                               I                1
Number of electrons                        I               34
Number of alpha electrons                  I               17
Number of beta electrons                   I               17
Number of basis functions                  I               78
Number of independent functions            I               78
Number of point charges in /Mol/           I                0
Number of translation vectors              I                0
Atomic numbers                             I   N=          13
           7           6           6           6           1           1
           1           1           1           1           1           1
           1
Nuclear charges                            R   N=          13
  7.00000000E+00  6.00000000E+00  6.00000000E+00  6.00000000E+00  1.00000000E+00
  1.00000000E+00  1.00000000E+00  1.00000000E+00  1.00000000E+00  1.00000000E+00
  1.00000000E+00  1.00000000E+00  1.00000000E+00
Current cartesian coordinates              R   N=          39
  3.69769050E+00  4.81557954E-02 -1.95634836E-06 -1.00865804E+00  9.90109680E-01
  3.00581446E-07  1.11948328E+00 -9.64465848E-01 -6.05389299E-06 -3.62851770E+00
 -2.17435321E-01  2.37688588E-06 -7.95863451E-01  2.21332790E+00  1.66181682E+00
 -7.95867798E-01  2.21333488E+00 -1.66181192E+00  9.28617022E-01 -2.19135475E+00
 -1.65867689E+00  9.28615515E-01 -2.19137412E+00  1.65865074E+00 -3.89060103E+00
 -1.40825320E+00 -1.67044554E+00 -3.89061449E+00 -1.40821512E+00  1.67047538E+00
 -5.12098503E+00  1.21173521E+00 -2.00038318E-05  3.92951877E+00  1.18719340E+00
  1.53656420E+00  3.92950173E+00  1.18726415E+00 -1.53651883E+00
Force Field                                I                0
Int Atom Types                             I   N=          13
           0           0           0           0           0           0
           0           0           0           0           0           0
           0
MM charges                                 R   N=          13
  0.00000000E+00  0.00000000E+00  0.00000000E+00  0.00000000E+00  0.00000000E+00
  0.00000000E+00  0.00000000E+00  0.00000000E+00  0.00000000E+00  0.00000000E+00
  0.00000000E+00  0.00000000E+00  0.00000000E+00
Integer atomic weights                     I   N=          13
          14          12          12          12           1           1
           1           1           1           1           1           1
           1
Real atomic weights                        R   N=          13
  1.40030740E+01  1.20000000E+01  1.20000000E+01  1.20000000E+01  1.00782504E+00
  1.00782504E+00  1.00782504E+00  1.00782504E+00  1.00782504E+00  1.00782504E+00
  1.00782504E+00  1.00782504E+00  1.00782504E+00
Atom fragment info                         I   N=          13
           0           0           0           0           0           0
           0           0           0           0           0           0
           0
Atom residue num                           I   N=          13
           0           0           0           0           0           0
           0           0           0           0           0           0
           0
Nuclear spins                              I   N=          13
           2           0           0           0           1           1
           1           1           1           1           1           1
           1
Nuclear ZEff                               R   N=          13
 -4.55000000E+00 -3.60000000E+00 -3.60000000E+00 -3.60000000E+00 -1.00000000E+00
 -1.00000000E+00 -1.00000000E+00 -1.00000000E+00 -1.00000000E+00 -1.00000000E+00
 -1.00000000E+00 -1.00000000E+00 -1.00000000E+00
Nuclear QMom                               R   N=          13
  2.04400000E+00  0.00000000E+00  0.00000000E+00  0.00000000E+00  0.00000000E+00
  0.00000000E+00  0.00000000E+00  0.00000000E+00  0.00000000E+00  0.00000000E+00
  0.00000000E+00  0.00000000E+00  0.00000000E+00
Nuclear GFac                               R   N=          13
  4.03761000E-01  0.00000000E+00  0.00000000E+00  0.00000000E+00  2.79284600E+00
  2.79284600E+00  2.79284600E+00  2.79284600E+00  2.79284600E+00  2.79284600E+00
  2.79284600E+00  2.79284600E+00  2.79284600E+00
MicOpt                                     I   N=          13
          -1          -1          -1          -1          -1          -1
          -1          -1          -1          -1          -1          -1
          -1
Number of contracted shells                I               34
Number of primitive shells                 I               80
Pure/Cartesian d shells                    I                1
Pure/Cartesian f shells                    I                0
Highest angular momentum                   I                2
Largest degree of contraction              I                6
Shell types                                I   N=          34
           0          -1          -1           2           0          -1
          -1           2           0          -1          -1           2
           0          -1          -1           2           0           0
           0           0           0           0           0           0
           0           0           0           0           0           0
           0           0           0           0
Number of primitives per shell             I   N=          34
           6           3           1           1           6           3
           1           1           6           3           1           1
           6           3           1           1           3           1
           3           1           3           1           3           1
           3           1           3           1           3           1
           3           1           3           1
Shell to atom map                          I   N=          34
           1           1           1           1           2           2
           2           2           3           3           3           3
           4           4           4           4           5           5
           6           6           7           7           8           8
           9           9          10          10          11          11
          12          12          13          13
Primitive exponents                        R   N=          80
  4.17351146E+03  6.27457911E+02  1.42902093E+02  4.02343293E+01  1.28202129E+01
  4.39043701E+00  1.16263619E+01  2.71627981E+00  7.72218397E-01  2.12031498E-01
  8.00000000E-01  3.04752488E+03  4.57369518E+02  1.03948685E+02  2.92101553E+01
  9.28666296E+00  3.16392696E+00  7.86827235E+00  1.88128854E+00  5.44249258E-01
  1.68714478E-01  8.00000000E-01  3.04752488E+03  4.57369518E+02  1.03948685E+02
  2.92101553E+01  9.28666296E+00  3.16392696E+00  7.86827235E+00  1.88128854E+00
  5.44249258E-01  1.68714478E-01  8.00000000E-01  3.04752488E+03  4.57369518E+02
  1.03948685E+02  2.92101553E+01  9.28666296E+00  3.16392696E+00  7.86827235E+00
  1.88128854E+00  5.44249258E-01  1.68714478E-01  8.00000000E-01  1.87311370E+01
  2.82539436E+00  6.40121692E-01  1.61277759E-01  1.87311370E+01  2.82539436E+00
  6.40121692E-01  1.61277759E-01  1.87311370E+01  2.82539436E+00  6.40121692E-01
  1.61277759E-01  1.87311370E+01  2.82539436E+00  6.40121692E-01  1.61277759E-01
  1.87311370E+01  2.82539436E+00  6.40121692E-01  1.61277759E-01  1.87311370E+01
  2.82539436E+00  6.40121692E-01  1.61277759E-01  1.87311370E+01  2.82539436E+00
  6.40121692E-01  1.61277759E-01  1.87311370E+01  2.82539436E+00  6.40121692E-01
  1.61277759E-01  1.87311370E+01  2.82539436E+00  6.40121692E-01  1.61277759E-01
Contraction coefficients                   R   N=          80
  1.83477216E-03  1.39946270E-02  6.85865518E-02  2.32240873E-01  4.69069948E-01
  3.60455199E-01 -1.14961182E-01 -1.69117479E-01  1.14585195E+00  1.00000000E+00
  1.00000000E+00  1.83473713E-03  1.40373228E-02  6.88426223E-02  2.32184443E-01
  4.67941348E-01  3.62311985E-01 -1.19332420E-01 -1.60854152E-01  1.14345644E+00
  1.00000000E+00  1.00000000E+00  1.83473713E-03  1.40373228E-02  6.88426223E-02
  2.32184443E-01  4.67941348E-01  3.62311985E-01 -1.19332420E-01 -1.60854152E-01
  1.14345644E+00  1.00000000E+00  1.00000000E+00  1.83473713E-03  1.40373228E-02
  6.88426223E-02  2.32184443E-01  4.67941348E-01  3.62311985E-01 -1.19332420E-01
 -1.60854152E-01  1.14345644E+00  1.00000000E+00  1.00000000E+00  3.34946043E-02
  2.34726953E-01  8.13757326E-01  1.00000000E+00  3.34946043E-02  2.34726953E-01
  8.13757326E-01  1.00000000E+00  3.34946043E-02  2.34726953E-01  8.13757326E-01
  1.00000000E+00  3.34946043E-02  2.34726953E-01  8.13757326E-01  1.00000000E+00
  3.34946043E-02  2.34726953E-01  8.13757326E-01  1.00000000E+00  3.34946043E-02
  2.34726953E-01  8.13757326E-01  1.00000000E+00  3.34946043E-02  2.34726953E-01
  8.13757326E-01  1.00000000E+00  3.34946043E-02  2.34726953E-01  8.13757326E-01
  1.00000000E+00  3.34946043E-02  2.34726953E-01  8.13757326E-01  1.00000000E+00
P(S=P) Contraction coefficients            R   N=          80
  0.00000000E+00  0.00000000E+00  0.00000000E+00  0.00000000E+00  0.00000000E+00
  0.00000000E+00  6.75797439E-02  3.23907296E-01  7.40895140E-01  1.00000000E+00
  0.00000000E+00  0.00000000E+00  0.00000000E+00  0.00000000E+00  0.00000000E+00
  0.00000000E+00  0.00000000E+00  6.89990666E-02  3.16423961E-01  7.44308291E-01
  1.00000000E+00  0.00000000E+00  0.00000000E+00  0.00000000E+00  0.00000000E+00
  0.00000000E+00  0.00000000E+00  0.00000000E+00  6.89990666E-02  3.16423961E-01
  7.44308291E-01  1.00000000E+00  0.00000000E+00  0.00000000E+00  0.00000000E+00
  0.00000000E+00  0.00000000E+00  0.00000000E+00  0.00000000E+00  6.89990666E-02
  3.16423961E-01  7.44308291E-01  1.00000000E+00  0.00000000E+00  0.00000000E+00
  0.00000000E+00  0.00000000E+00  0.00000000E+00  0.00000000E+00  0.00000000E+00
  0.00000000E+00  0.00000000E+00  0.00000000E+00  0.00000000E+00  0.00000000E+00
  0.00000000E+00  0.00000000E+00  0.00000000E+00  0.00000000E+00  0.00000000E+00
  0.00000000E+00  0.00000000E+00  0.00000000E+00  0.00000000E+00  0.00000000E+00
  0.00000000E+00  0.00000000E+00  0.00000000E+00  0.00000000E+00  0.00000000E+00
  0.00000000E+00  0.00000000E+00  0.00000000E+00  0.00000000E+00  0.00000000E+00
  0.00000000E+00  0.00000000E+00  0.00000000E+00  0.00000000E+00  0.00000000E+00
Coordinates of each shell                  R   N=         102
  3.69769050E+00  4.81557954E-02 -1.95634836E-06  3.69769050E+00  4.81557954E-02
 -1.95634836E-06  3.69769050E+00  4.81557954E-02 -1.95634836E-06  3.69769050E+00
  4.81557954E-02 -1.95634836E-06 -1.00865804E+00  9.90109680E-01  3.00581446E-07
 -1.00865804E+00  9.90109680E-01  3.00581446E-07 -1.00865804E+00  9.90109680E-01
  3.00581446E-07 -1.00865804E+00  9.90109680E-01  3.00581446E-07  1.11948328E+00
 -9.64465848E-01 -6.05389299E-06  1.11948328E+00 -9.64465848E-01 -6.05389299E-06
  1.11948328E+00 -9.64465848E-01 -6.05389299E-06  1.11948328E+00 -9.64465848E-01
 -6.05389299E-06 -3.62851770E+00 -2.17435321E-01  2.37688588E-06 -3.62851770E+00
 -2.17435321E-01  2.37688588E-06 -3.62851770E+00 -2.17435321E-01  2.37688588E-06
 -3.62851770E+00 -2.17435321E-01  2.37688588E-06 -7.95863451E-01  2.21332790E+00
  1.66181682E+00 -7.95863451E-01  2.21332790E+00  1.66181682E+00 -7.95867798E-01
  2.21333488E+00 -1.66181192E+00 -7.95867798E-01  2.21333488E+00 -1.66181192E+00
  9.28617022E-01 -2.19135475E+00 -1.65867689E+00  9.28617022E-01 -2.19135475E+00
 -1.65867689E+00  9.28615515E-01 -2.19137412E+00  1.65865074E+00  9.28615515E-01
 -2.19137412E+00  1.65865074E+00 -3.89060103E+00 -1.40825320E+00 -1.67044554E+00
 -3.89060103E+00 -1.40825320E+00 -1.67044554E+00 -3.89061449E+00 -1.40821512E+00
  1.67047538E+00 -3.89061449E+00 -1.40821512E+00  1.67047538E+00 -5.12098503E+00
  1.21173521E+00 -2.00038318E-05 -5.12098503E+00  1.21173521E+00 -2.00038318E-05
  3.92951877E+00  1.18719340E+00  1.53656420E+00  3.92951877E+00  1.18719340E+00
  1.53656420E+00  3.92950173E+00  1.18726415E+00 -1.53651883E+00  3.92950173E+00
  1.18726415E+00 -1.53651883E+00
Constraint Structure                       R   N=          39
  3.69769050E+00  4.81557954E-02 -1.95634836E-06 -1.00865804E+00  9.90109680E-01
  3.00581446E-07  1.11948328E+00 -9.64465848E-01 -6.05389299E-06 -3.62851770E+00
 -2.17435321E-01  2.37688588E-06 -7.95863451E-01  2.21332790E+00  1.66181682E+00
 -7.95867798E-01  2.21333488E+00 -1.66181192E+00  9.28617022E-01 -2.19135475E+00
 -1.65867689E+00  9.28615515E-01 -2.19137412E+00  1.65865074E+00 -3.89060103E+00
 -1.40825320E+00 -1.67044554E+00 -3.89061449E+00 -1.40821512E+00  1.67047538E+00
 -5.12098503E+00  1.21173521E+00 -2.00038318E-05  3.92951877E+00  1.18719340E+00
  1.53656420E+00  3.92950173E+00  1.18726415E+00 -1.53651883E+00
Num ILSW                                   I              100
ILSW                                       I   N=         100
           0           1           0           0           2           0
           0           0           0           0           0          -1
           0           0           0           0           0           0
           0           0           0           0           1           0
           1           0           0           0           0           0
           0           0      100000           0          -1           0
           0           0           0           0           0           0
           0           0           0           1           1           0
           0           0           1           0           0           0
           0           0           4          40           0           0
           0           0           0           0           0           0
           0           0           0           0           0           0
           0           0           0           0           0           0
           0           0           0           0           0           0
           0           0           0           0           0           0
           0           0           0           0           0           0
           0           0           0           0
Num RLSW                                   I               40
RLSW                                       R   N=          40
  1.00000000E+00  1.00000000E+00  1.00000000E+00  1.00000000E+00  1.00000000E+00
  0.00000000E+00  0.00000000E+00  1.00000000E+00  0.00000000E+00  0.00000000E+00
  0.00000000E+00  0.00000000E+00  1.00000000E+00  0.00000000E+00  0.00000000E+00
  0.00000000E+00  0.00000000E+00  1.00000000E+00  0.00000000E+00  0.00000000E+00
  0.00000000E+00  0.00000000E+00  1.00000000E+00  0.00000000E+00  0.00000000E+00
  0.00000000E+00  0.00000000E+00  1.00000000E+00  0.00000000E+00  0.00000000E+00
  0.00000000E+00  0.00000000E+00  0.00000000E+00  0.00000000E+00  0.00000000E+00
  0.00000000E+00  0.00000000E+00  0.00000000E+00  1.00000000E+00  1.00000000E+00
MxBond                                     I                4
NBond                                      I   N=          13
           3           4           4           4           1           1
           1           1           1           1           1           1
           1
IBond                                      I   N=          52
           3          12          13           0           3           4
           5           6           1           2           7           8
           2           9          10          11           2           0
           0           0           2           0           0           0
           3           0           0           0           3           0
           0           0           4           0           0           0
           4           0           0           0           4           0
           0           0           1           0           0           0
           1           0           0           0
RBond                                      R   N=          52
  1.00000000E+00  1.00000000E+00  1.00000000E+00  0.00000000E+00  1.00000000E+00
  1.00000000E+00  1.00000000E+00  1.00000000E+00  1.00000000E+00  1.00000000E+00
  1.00000000E+00  1.00000000E+00  1.00000000E+00  1.00000000E+00  1.00000000E+00
  1.00000000E+00  1.00000000E+00  0.00000000E+00  0.00000000E+00  0.00000000E+00
  1.00000000E+00  0.00000000E+00  0.00000000E+00  0.00000000E+00  1.00000000E+00
  0.00000000E+00  0.00000000E+00  0.00000000E+00  1.00000000E+00  0.00000000E+00
  0.00000000E+00  0.00000000E+00  1.00000000E+00  0.00000000E+00  0.00000000E+00
  0.00000000E+00  1.00000000E+00  0.00000000E+00  0.00000000E+00  0.00000000E+00
  1.00000000E+00  0.00000000E+00  0.00000000E+00  0.00000000E+00  1.00000000E+00
  0.00000000E+00  0.00000000E+00  0.00000000E+00  1.00000000E+00  0.00000000E+00
  0.00000000E+00  0.00000000E+00
Virial Ratio                               R      2.001651142149433E+00
SCF Energy                                 R     -1.732814352430387E+02
MP2 Energy                                 R     -1.738412219604739E+02
Total Energy                               R     -1.738412219604739E+02
Post-SCF wavefunction norm                 R      1.536888898166962E+00
RMS Force                                  R      3.547234520751087E-07
RMS Density                                R      6.666158648714358E-10
External E-field                           R   N=          35
  0.00000000E+00  0.00000000E+00  0.00000000E+00  0.00000000E+00  0.00000000E+00
  0.00000000E+00  0.00000000E+00  0.00000000E+00  0.00000000E+00  0.00000000E+00
  0.00000000E+00  0.00000000E+00  0.00000000E+00  0.00000000E+00  0.00000000E+00
  0.00000000E+00  0.00000000E+00  0.00000000E+00  0.00000000E+00  0.00000000E+00
  0.00000000E+00  0.00000000E+00  0.00000000E+00  0.00000000E+00  0.00000000E+00
  0.00000000E+00  0.00000000E+00  0.00000000E+00  0.00000000E+00  0.00000000E+00
  0.00000000E+00  0.00000000E+00  0.00000000E+00  0.00000000E+00  0.00000000E+00
IOpCl                                      I                0
IROHF                                      I                0
Alpha Orbital Energies                     R   N=          78
 -1.55395955E+01 -1.12438385E+01 -1.12205372E+01 -1.12166711E+01 -1.17302581E+00
 -1.03716408E+00 -8.96602630E-01 -8.04161883E-01 -6.72211222E-01 -6.05080336E-01
 -6.02685291E-01 -5.59112426E-01 -5.21116359E-01 -5.15972470E-01 -4.86485526E-01
 -4.70054449E-01 -3.82076991E-01  2.21754148E-01  2.44122429E-01  2.71451900E-01
  2.90325454E-01  3.24973484E-01  3.27404570E-01  3.32276879E-01  3.46918855E-01
  3.51054294E-01  4.09593838E-01  4.39714480E-01  4.52443330E-01  7.23473651E-01
  7.50859532E-01  7.56239705E-01  7.73538091E-01  8.06076997E-01  9.22176178E-01
  9.36507356E-01  9.48292616E-01  9.60548421E-01  1.00931083E+00  1.07729834E+00
  1.14007375E+00  1.14777520E+00  1.16371928E+00  1.18990765E+00  1.19778127E+00
  1.21337377E+00  1.22502390E+00  1.22792041E+00  1.23826886E+00  1.26645763E+00
  1.30118293E+00  1.63701890E+00  1.67148667E+00  1.70565275E+00  1.76923195E+00
  1.84806268E+00  1.90189936E+00  2.13131077E+00  2.21386014E+00  2.24225601E+00
  2.26972325E+00  2.29053576E+00  2.37283706E+00  2.40393853E+00  2.44731805E+00
  2.58796356E+00  2.59828978E+00  2.66242952E+00  2.73782835E+00  2.76057996E+00
  2.83319098E+00  2.91246224E+00  3.07034434E+00  3.12160713E+00  4.20820410E+00
  4.59648236E+00  4.73796980E+00  4.90905777E+00
Alpha MO coefficients                      R   N=        6084
  9.95048802E-01  2.48481669E-02 -1.03323601E-03  1.12429257E-03  3.18246910E-08
 -2.62695901E-03  1.06641966E-03 -7.25736950E-04 -2.36563006E-08 -3.33445090E-03
 -3.21750038E-03 -3.35804766E-03 -1.34392703E-04 -3.15133721E-09  4.72222096E-09
 -9.99614009E-06  3.19375584E-06 -1.20268905E-04 -8.14502418E-06  3.90517915E-10
 -4.00479312E-04  3.40176776E-04  4.10410522E-04 -4.46860164E-09 -8.43043675E-05
 -3.80995203E-05 -3.38877935E-05 -8.84144944E-06  3.42265995E-11  4.09828019E-10
 -1.90192138E-05  1.81106609E-04  2.39573977E-04  8.85692226E-05 -2.47122999E-12
  1.61338119E-03  3.39229004E-04  4.11469538E-04  9.55330554E-09 -1.70819122E-04
 -8.61975425E-05 -1.05262369E-04 -3.72839607E-05  3.02190825E-11  2.73500895E-10
 -1.72521930E-05 -8.45603202E-05  1.02232574E-05  6.90253961E-06  2.33517988E-10
  6.17020575E-04  3.14498097E-04  7.07631807E-05 -1.57705563E-10  1.54862441E-05
 -2.98643759E-05 -2.50473108E-05  2.03319444E-05  4.64912027E-11  2.29434565E-10
 -1.70288470E-05 -1.67545494E-04 -1.70276813E-05 -1.67554000E-04 -7.18418674E-05
 -1.16733161E-04 -7.18422957E-05 -1.16739945E-04 -3.07506144E-05 -4.01788080E-07
 -3.07501587E-05 -4.01972065E-07 -1.62204552E-05  1.29797645E-05  3.12067727E-04
  5.90924297E-04  3.12067820E-04  5.90923077E-04 -2.14508268E-04  5.48923756E-05
 -1.21356650E-05  3.57314745E-05  1.95699123E-09  2.91282402E-03 -1.10529486E-03
 -3.98247658E-04 -1.36401314E-08 -5.48144294E-04 -2.11640435E-04 -7.25044080E-05
 -2.49219255E-04 -7.29750665E-10 -1.71266411E-09  1.26700171E-02  3.85303442E-04
  6.09468237E-05 -2.36040071E-05 -1.32931202E-11  3.75045749E-03  1.79069948E-03
 -1.21427823E-03 -9.51559380E-09 -3.21193984E-04 -3.30989480E-04 -1.27821705E-04
  1.56227724E-04  8.12394236E-10 -6.16755332E-10  9.95793488E-01  2.80454879E-02
  2.92050304E-04  1.74853956E-04  2.23851159E-09 -1.62090403E-02  3.41801963E-04
 -6.70245756E-04  9.43361332E-09 -1.55569368E-03 -1.62855484E-03 -1.51848740E-03
  4.02516801E-05  9.83309263E-10 -1.17764664E-09 -1.44447307E-04 -2.24086711E-04
 -9.01572722E-05  4.34296302E-05 -1.81846132E-09  7.78242554E-04  2.70415516E-04
 -2.01152468E-04  1.17608538E-08 -3.38354518E-05 -2.61522975E-05 -1.05977576E-04
 -1.98334431E-05 -4.42887406E-10  4.54257161E-10 -1.65561658E-04  8.43714297E-05
 -1.65562474E-04  8.43685663E-05  2.27976701E-04  2.74134258E-03  2.27973472E-04
  2.74133302E-03 -3.24999188E-05 -2.89462389E-04 -3.24989712E-05 -2.89475114E-04
 -3.31551708E-05  2.59990628E-04 -6.74470744E-05  2.17412746E-04 -6.74487546E-05
  2.17396645E-04 -3.19229213E-05 -1.50202825E-04  6.96805910E-05 -2.58620801E-05
 -1.78453641E-09  4.25420428E-04  7.91234076E-05  5.68535793E-05  9.40204234E-09
 -7.90247313E-05 -3.80012784E-05 -1.40110622E-04 -1.15330288E-05  3.64957261E-10
  5.19955479E-10  9.92764497E-01  2.84450472E-02 -1.00044276E-04 -2.25746013E-05
 -1.42050884E-10 -1.70686887E-02 -4.40043628E-05  8.93295376E-04  2.16732661E-09
 -1.65505991E-03 -1.65298923E-03 -1.58237233E-03 -1.53236852E-06 -2.66760649E-10
 -1.01806412E-10 -1.29381937E-02 -3.56386380E-04 -9.07494753E-05  1.40860018E-05
 -1.81184843E-10  4.45459628E-03 -1.54866593E-03  1.34813680E-03  4.08471793E-09
 -2.74589116E-04 -3.02195426E-04 -9.85739411E-05  1.80758583E-04 -9.81888177E-11
 -9.06119135E-10  7.70842105E-02  2.25930989E-03  7.99984290E-05 -1.66614060E-05
  1.08013064E-09  3.02138756E-03  1.64300567E-03  8.04147803E-04 -8.83065825E-09
 -5.66345768E-04 -3.55159960E-04 -2.34009133E-04 -1.95583172E-04  3.00815618E-10
  2.41790181E-10  2.12262388E-04  2.69282942E-03  2.12262538E-04  2.69282843E-03
 -1.61356154E-04 -1.88554427E-05 -1.61355869E-04 -1.88566908E-05 -1.44428506E-04
  2.26473703E-04 -1.44428984E-04  2.26483987E-04 -1.36577039E-04  4.91586755E-05
 -3.63364594E-05 -1.82701557E-04 -3.63365773E-05 -1.82688190E-04 -3.73823468E-05
 -1.34547503E-04  1.98758658E-05  1.07121913E-05  3.86388924E-10  9.69867825E-04
 -4.76795889E-04 -9.82939002E-05 -5.26230234E-10 -2.76116829E-05 -9.24755571E-05
 -8.21373229E-05  1.42347431E-05  7.77042938E-11 -4.26290698E-10 -7.73764584E-02
 -2.10874351E-03 -1.15399578E-05  1.62941882E-05  5.05808298E-10  4.76187153E-03
 -1.63801838E-03 -6.58539069E-04  1.16882646E-09 -2.83750118E-04 -8.86514186E-05
  3.27269403E-05 -1.44329168E-04  4.06223972E-10 -1.83191646E-10  1.07133357E-03
 -1.59059514E-04  1.04782377E-04  1.63346918E-05  6.93663352E-10 -1.37759410E-04
 -7.24203863E-04 -5.27588932E-04 -6.72894578E-09 -3.18697367E-05 -3.36006279E-05
 -6.87936349E-05 -4.38717173E-05 -9.21100048E-10 -1.33990792E-10  9.92766902E-01
  2.83359655E-02  8.62063784E-05 -3.29808658E-05  7.95699906E-10 -1.53653997E-02
 -9.20823832E-04 -8.24619547E-05 -3.16204079E-09 -1.80048304E-03 -1.78132995E-03
 -1.79512630E-03 -1.76248911E-05  5.90753355E-10 -4.19182821E-10 -1.53185324E-04
 -1.61482081E-04 -1.53185773E-04 -1.61483023E-04 -4.49436808E-05 -2.54465100E-04
 -4.49461102E-05 -2.54450584E-04  1.71154034E-04  2.62013393E-03  1.71153546E-04
  2.62013602E-03  1.19240063E-04  2.37416500E-03 -4.90293457E-05  6.16392547E-05
 -4.90304266E-05  6.16414721E-05 -1.72904013E-01  3.57696239E-01 -7.01730582E-02
  4.15723304E-02  1.48217027E-06  3.68830564E-01 -3.42737472E-02  2.76728525E-02
  8.74605082E-07  5.39305918E-03  4.50882979E-03  1.16632074E-02  6.53215283E-03
  1.62892622E-07 -2.25321196E-07 -4.41173117E-02  8.31118271E-02  2.93115608E-02
 -2.06006692E-02 -3.71544989E-08  5.28184604E-02  1.49505232E-03 -4.78625422E-03
 -6.84407548E-08  4.64024000E-03  3.08495498E-03  4.29426739E-04 -4.08151873E-03
 -1.67680644E-08  5.83004356E-09 -1.02242267E-01  1.90261534E-01  7.10081870E-02
  4.36114209E-02  2.76767202E-07  1.15144081E-01 -5.10421339E-04  4.80074930E-03
  1.06806440E-07  1.61462533E-02  1.51346803E-03 -1.89853583E-03  9.45124985E-03
  7.58118430E-08  5.99030740E-10 -1.56065836E-02  2.97205454E-02  1.45133321E-02
  3.51543585E-03 -2.09149890E-08  1.71003535E-02 -1.03610140E-03  8.36657991E-04
  4.49311032E-08  2.51044400E-03  4.28339028E-04  1.42046046E-04  1.16353658E-03
 -5.47380863E-10  8.01333044E-10  2.24864553E-02  5.97415707E-03  2.24863982E-02
  5.97420511E-03  4.57492745E-02  6.61104695E-03  4.57493069E-02  6.61110209E-03
  7.99266606E-03  8.96901719E-04  7.99262847E-03  8.96853430E-04  6.28815227E-03
 -5.26836128E-04  1.09782085E-01  3.29053486E-03  1.09781991E-01  3.29054976E-03
  6.87064473E-02 -1.42135845E-01 -1.41291101E-02 -3.44075173E-02 -9.20371466E-07
 -1.71432479E-01 -4.12784927E-04 -2.02880865E-02 -4.94908128E-07  5.19799131E-03
 -3.43813439E-03 -6.88330627E-03 -1.59147201E-03 -1.00736657E-07  8.97477480E-08
 -1.39538949E-01  2.58441921E-01 -3.80071147E-02 -3.36453559E-02  1.05323008E-09
  2.24839054E-01 -7.01372374E-03 -2.67281604E-03  5.42997856E-08  8.46556104E-03
  4.94517175E-03  3.35025846E-03  3.51488342E-03 -8.85779452E-09 -4.77921923E-09
 -4.92981660E-02  9.36035114E-02 -9.89086745E-02  1.79900899E-02 -6.08255607E-08
  8.34657848E-02 -1.84465831E-02  4.40022548E-03 -2.17594050E-08 -1.66008346E-03
  4.53201955E-03  2.29379219E-03 -1.23264692E-02 -6.36527144E-08 -2.03904412E-09
 -1.26081911E-01  2.33588761E-01  5.48889553E-02  2.06391444E-02 -3.43455112E-08
  2.03011446E-01  7.57169635E-03  2.36834321E-03 -3.17776295E-08  1.08262248E-02
  4.49642328E-03  3.35198562E-03  3.45326819E-03 -6.18133653E-09  3.47211148E-09
  7.81270978E-02  1.33987573E-02  7.81271054E-02  1.33987860E-02  3.12373730E-02
  5.60753578E-03  3.12373315E-02  5.60750643E-03  7.26035606E-02  1.46151031E-02
  7.26035310E-02  1.46151432E-02  7.02536103E-02  1.32812313E-02 -5.40205498E-02
 -5.77874783E-03 -5.40203552E-02 -5.77868362E-03 -6.23280300E-02  1.29336964E-01
  8.60981797E-02  8.79166606E-02  1.54440817E-06  1.80350323E-01  3.28317752E-02
  4.58349292E-02  8.56828523E-07 -1.49248157E-02  6.98273074E-03  1.05773028E-02
 -1.00626218E-03  1.51785973E-07 -8.33110547E-08  4.10665846E-02 -7.74599081E-02
 -1.36914702E-01  2.13037724E-02  3.24919564E-07 -7.74218698E-02 -2.97594339E-02
  9.79586748E-04  1.67587399E-07  5.39756553E-03 -5.84554666E-03 -2.73311425E-03
  1.40862825E-02  2.02876547E-08 -1.96846732E-08  1.21624035E-01 -2.31522201E-01
  6.09089325E-02  1.85163285E-02  4.21044926E-07 -2.45232539E-01  2.70850409E-02
  4.14023624E-03 -2.03917840E-08  5.12128388E-03 -5.65678665E-03 -9.04209726E-03
  6.73714673E-03  3.84150634E-08  4.96994575E-08 -1.28221041E-01  2.36609442E-01
 -5.42077557E-02 -7.77953723E-03  1.35579224E-07  2.63853658E-01 -1.36139322E-02
 -5.48609921E-03  4.42173549E-08 -8.84744130E-04  7.66979919E-03  8.38562023E-03
 -4.83850695E-03  2.77546587E-08 -2.10929591E-08 -2.93292391E-02 -7.29117901E-03
 -2.93293276E-02 -7.29116441E-03 -9.32266858E-02 -2.65518304E-02 -9.32265347E-02
 -2.65518175E-02  9.55315288E-02  2.84679561E-02  9.55317749E-02  2.84680872E-02
  1.06240272E-01  3.70301327E-02  7.49531007E-02  1.79008228E-02  7.49530420E-02
  1.79008132E-02 -1.76538834E-02  3.62513551E-02  7.39955554E-02  1.14617166E-01
  5.48205656E-07  5.55917274E-02  3.31890445E-02  5.84501573E-02  3.30303569E-07
 -1.14347326E-02  6.48230644E-03  6.82675059E-03 -5.61638847E-03  9.18729662E-08
 -1.06456761E-07 -1.15061435E-01  2.14377304E-01  1.67531486E-02  1.30779542E-01
  2.55562250E-07  2.78747638E-01  1.58918637E-02  4.33849082E-02  1.90921374E-07
 -8.79943052E-03  1.86883828E-03  1.59813583E-02  3.39568531E-03  4.61123870E-08
 -4.16473491E-08  9.05620076E-02 -1.74065238E-01 -5.21674051E-02  1.40538602E-01
  4.55876258E-07 -2.10364182E-01  5.48621018E-03  4.08477376E-02 -4.50691803E-08
  4.60519999E-03  2.40465916E-03 -1.38909329E-02 -8.67899516E-03 -3.35158790E-08
  1.25352656E-07  6.69495751E-02 -1.25674381E-01  9.16045180E-02  7.75102812E-02
  5.81167488E-08 -1.54637707E-01  2.97326241E-02  2.56573414E-02 -1.36644668E-08
  6.63097392E-03 -4.20519295E-03 -1.02949168E-02  9.12390471E-03  3.91407061E-09
 -7.46168302E-08  1.28400310E-01  5.62338142E-02  1.28400319E-01  5.62339468E-02
 -1.09076396E-01 -4.76554477E-02 -1.09076736E-01 -4.76555961E-02 -8.10423844E-02
 -3.66200994E-02 -8.10418606E-02 -3.66197832E-02 -5.86295240E-02 -2.40317392E-02
  5.47941087E-02  2.06957689E-02  5.47956093E-02  2.06963694E-02  2.38765673E-07