
    -----------------------------------------------------------------------
          Psi4: An Open-Source Ab Initio Electronic Structure Package
                               Psi4 1.4a3.dev225 

                         Git: Rev {master} 7105e37 


    D. G. A. Smith, L. A. Burns, A. C. Simmonett, R. M. Parrish,
    M. C. Schieber, R. Galvelis, P. Kraus, H. Kruse, R. Di Remigio,
    A. Alenaizan, A. M. James, S. Lehtola, J. P. Misiewicz, M. Scheurer,
    R. A. Shaw, J. B. Schriber, Y. Xie, Z. L. Glick, D. A. Sirianni,
    J. S. O'Brien, J. M. Waldrop, A. Kumar, E. G. Hohenstein,
    B. P. Pritchard, B. R. Brooks, H. F. Schaefer III, A. Yu. Sokolov,
    K. Patkowski, A. E. DePrince III, U. Bozkaya, R. A. King,
    F. A. Evangelista, J. M. Turney, T. D. Crawford, C. D. Sherrill,
    J. Chem. Phys. 152(18) 184108 (2020). https://doi.org/10.1063/5.0006002

                            Additional Code Authors
    E. T. Seidl, C. L. Janssen, E. F. Valeev, M. L. Leininger,
    J. F. Gonthier, R. M. Richard, H. R. McAlexander, M. Saitow, X. Wang,
    P. Verma, and M. H. Lechner

             Previous Authors, Complete List of Code Contributors,
                       and Citations for Specific Modules
    https://github.com/psi4/psi4/blob/master/codemeta.json
    https://github.com/psi4/psi4/graphs/contributors
    http://psicode.org/psi4manual/master/introduction.html#citing-psifour

    -----------------------------------------------------------------------


    Psi4 started on: Thursday, 01 April 2021 08:35AM

    Process ID: 180512
    Host:       c465-113.stampede2.tacc.utexas.edu
    PSIDATADIR: /home1/07844/xy3866/miniconda3/envs/p4env/share/psi4
    Memory:     500.0 MiB
    Threads:    8
    
  ==> Input File <==

--------------------------------------------------------------------------
#psi4
#
memory 32 gb

molecule  {
1 1
  N       -1.4684160    -0.7256290     0.0168660
  C        0.7789870     0.0252000    -0.3750600
  C       -0.0143940    -1.1774380     0.1210740
  C       -0.0289190     1.1951300     0.1928770
  C       -1.4778980     0.8076670    -0.0707360
  C        2.2387250    -0.0120120     0.0592990
  H        0.7264100     0.0548870    -1.4716460
  H        0.1145000    -2.0977020    -0.4513780
  H        0.1860930    -1.3741010     1.1771840
  H        0.2151160     2.1494100    -0.2804030
  H        0.1669020     1.2990827     1.3169119
  H       -2.0155250    -1.0560110     0.8205780
  H       -1.9143950    -1.1326260    -0.8134590
  H       -2.2036780     1.1930490     0.6461700
  H       -1.7986400     1.0658470    -1.0809590
  H        2.7502970    -0.8896260    -0.3442510
  H        2.7625990     0.8753680    -0.3028200
  H        2.3187760    -0.0349210     1.1503390
units angstrom
no_reorient  #important for SAPT in psi4, default
symmetry c1  #important for SAPT in psi4, default
}

set PROPERTIES_ORIGIN ["COM"]
properties('MP2/aug-cc-pvtz', properties = ['dipole'])
--------------------------------------------------------------------------

  Memory set to  29.802 GiB by Python driver.
    SCF Algorithm Type (re)set to DF.

*** tstart() called on c465-113.stampede2.tacc.utexas.edu
*** at Thu Apr  1 08:35:27 2021

   => Loading Basis Set <=

    Name: AUG-CC-PVTZ
    Role: ORBITAL
    Keyword: BASIS
    atoms 1    entry N          line   285 file /home1/07844/xy3866/miniconda3/envs/p4env/share/psi4/basis/aug-cc-pvtz.gbs 
    atoms 2-6  entry C          line   239 file /home1/07844/xy3866/miniconda3/envs/p4env/share/psi4/basis/aug-cc-pvtz.gbs 
    atoms 7-18 entry H          line    40 file /home1/07844/xy3866/miniconda3/envs/p4env/share/psi4/basis/aug-cc-pvtz.gbs 


         ---------------------------------------------------------
                                   SCF
               by Justin Turney, Rob Parrish, Andy Simmonett
                          and Daniel G. A. Smith
                              RHF Reference
                        8 Threads,  30517 MiB Core
         ---------------------------------------------------------

  ==> Geometry <==

    Molecular point group: c1
    Full point group: C1

    Geometry (in Angstrom), charge = 1, multiplicity = 1:

       Center              X                  Y                   Z               Mass       
    ------------   -----------------  -----------------  -----------------  -----------------
         N           -1.453483626083    -0.725101642950     0.019946749416    14.003074004430
         C            0.793919373917     0.025727357050    -0.371979250584    12.000000000000
         C            0.000538373917    -1.176910642950     0.124154749416    12.000000000000
         C           -0.013986626083     1.195657357050     0.195957749416    12.000000000000
         C           -1.462965626083     0.808194357050    -0.067655250584    12.000000000000
         C            2.253657373917    -0.011484642950     0.062379749416    12.000000000000
         H            0.741342373917     0.055414357050    -1.468565250584     1.007825032230
         H            0.129432373917    -2.097174642950    -0.448297250584     1.007825032230
         H            0.201025373917    -1.373573642950     1.180264749416     1.007825032230
         H            0.230048373917     2.149937357050    -0.277322250584     1.007825032230
         H            0.181834373917     1.299610057050     1.319992649416     1.007825032230
         H           -2.000592626083    -1.055483642950     0.823658749416     1.007825032230
         H           -1.899462626083    -1.132098642950    -0.810378250584     1.007825032230
         H           -2.188745626083     1.193576357050     0.649250749416     1.007825032230
         H           -1.783707626083     1.066374357050    -1.077878250584     1.007825032230
         H            2.765229373917    -0.889098642950    -0.341170250584     1.007825032230
         H            2.777531373917     0.875895357050    -0.299739250584     1.007825032230
         H            2.333708373917    -0.034393642950     1.153419749416     1.007825032230

  Running in c1 symmetry.

  Rotational constants: A =      0.20872  B =      0.09707  C =      0.07348 [cm^-1]
  Rotational constants: A =   6257.28706  B =   2909.99920  C =   2202.98309 [MHz]
  Nuclear repulsion =  265.655531021302750

  Charge       = 1
  Multiplicity = 1
  Electrons    = 48
  Nalpha       = 24
  Nbeta        = 24

  ==> Algorithm <==

  SCF Algorithm Type is DF.
  DIIS enabled.
  MOM disabled.
  Fractional occupation disabled.
  Guess Type is SAD.
  Energy threshold   = 1.00e-10
  Density threshold  = 1.00e-10
  Integral threshold = 1.00e-12

  ==> Primary Basis <==

  Basis Set: AUG-CC-PVTZ
    Blend: AUG-CC-PVTZ
    Number of shells: 192
    Number of basis functions: 552
    Number of Cartesian functions: 630
    Spherical Harmonics?: true
    Max angular momentum: 3

   => Loading Basis Set <=

    Name: (AUG-CC-PVTZ AUX)
    Role: JKFIT
    Keyword: DF_BASIS_SCF
    atoms 1    entry N          line   224 file /home1/07844/xy3866/miniconda3/envs/p4env/share/psi4/basis/aug-cc-pvtz-jkfit.gbs 
    atoms 2-6  entry C          line   162 file /home1/07844/xy3866/miniconda3/envs/p4env/share/psi4/basis/aug-cc-pvtz-jkfit.gbs 
    atoms 7-18 entry H          line    70 file /home1/07844/xy3866/miniconda3/envs/p4env/share/psi4/basis/aug-cc-pvtz-jkfit.gbs 

  ==> Integral Setup <==

  DFHelper Memory: AOs need 2.677 GiB; user supplied 22.352 GiB. Using in-core AOs.

  ==> MemDFJK: Density-Fitted J/K Matrices <==

    J tasked:                   Yes
    K tasked:                   Yes
    wK tasked:                   No
    OpenMP threads:               8
    Memory [MiB]:             22888
    Algorithm:                 Core
    Schwarz Cutoff:           1E-12
    Mask sparsity (%):       3.0863
    Fitting Condition:        1E-10

   => Auxiliary Basis Set <=

  Basis Set: (AUG-CC-PVTZ AUX)
    Blend: AUG-CC-PVTZ-JKFIT
    Number of shells: 348
    Number of basis functions: 1176
    Number of Cartesian functions: 1446
    Spherical Harmonics?: true
    Max angular momentum: 4

  Minimum eigenvalue in the overlap matrix is 2.5221445967E-06.
  Reciprocal condition number of the overlap matrix is 1.1362696346E-07.
    Using symmetric orthogonalization.

  ==> Pre-Iterations <==

  SCF Guess: Superposition of Atomic Densities via on-the-fly atomic UHF (no occupation information).

   -------------------------
    Irrep   Nso     Nmo    
   -------------------------
     A        552     552 
   -------------------------
    Total     552     552
   -------------------------

  ==> Iterations <==

                           Total Energy        Delta E     RMS |[F,P]|

   @DF-RHF iter SAD:  -250.90840148755620   -2.50908e+02   0.00000e+00 
   @DF-RHF iter   1:  -250.42241169950333    4.85990e-01   1.07682e-03 DIIS
   @DF-RHF iter   2:  -250.61434829358691   -1.91937e-01   4.80164e-04 DIIS
   @DF-RHF iter   3:  -250.65115658377914   -3.68083e-02   1.16472e-04 DIIS
   @DF-RHF iter   4:  -250.65458608361152   -3.42950e-03   2.48715e-05 DIIS
   @DF-RHF iter   5:  -250.65473346957484   -1.47386e-04   7.14823e-06 DIIS
   @DF-RHF iter   6:  -250.65474702797457   -1.35584e-05   1.37880e-06 DIIS
   @DF-RHF iter   7:  -250.65474761846869   -5.90494e-07   3.91692e-07 DIIS
   @DF-RHF iter   8:  -250.65474765858716   -4.01185e-08   1.26889e-07 DIIS
   @DF-RHF iter   9:  -250.65474766255340   -3.96625e-09   3.67596e-08 DIIS
   @DF-RHF iter  10:  -250.65474766290268   -3.49274e-10   9.12118e-09 DIIS
   @DF-RHF iter  11:  -250.65474766292624   -2.35616e-11   2.30918e-09 DIIS
   @DF-RHF iter  12:  -250.65474766292721   -9.66338e-13   6.03922e-10 DIIS
   @DF-RHF iter  13:  -250.65474766292800   -7.95808e-13   1.70782e-10 DIIS
   @DF-RHF iter  14:  -250.65474766292812   -1.13687e-13   3.77168e-11 DIIS
  Energy and wave function converged.


  ==> Post-Iterations <==

    Orbital Energies [Eh]
    ---------------------

    Doubly Occupied:                                                      

       1A    -15.865710     2A    -11.464234     3A    -11.460065  
       4A    -11.403570     5A    -11.402295     6A    -11.359580  
       7A     -1.492772     8A     -1.264205     9A     -1.193576  
      10A     -1.098916    11A     -1.021449    12A     -0.973815  
      13A     -0.934392    14A     -0.892519    15A     -0.825968  
      16A     -0.790005    17A     -0.753860    18A     -0.739721  
      19A     -0.711901    20A     -0.703503    21A     -0.675052  
      22A     -0.654483    23A     -0.637376    24A     -0.629254  

    Virtual:                                                              

      25A     -0.101685    26A     -0.079924    27A     -0.068602  
      28A     -0.066792    29A     -0.046002    30A     -0.044286  
      31A     -0.043940    32A     -0.042186    33A     -0.040754  
      34A     -0.016841    35A     -0.013440    36A     -0.011857  
      37A     -0.009840    38A     -0.004239    39A     -0.000027  
      40A      0.003921    41A      0.007399    42A      0.010894  
      43A      0.013827    44A      0.018839    45A      0.030467  
      46A      0.034813    47A      0.039927    48A      0.043488  
      49A      0.048992    50A      0.050404    51A      0.053916  
      52A      0.065287    53A      0.066816    54A      0.076067  
      55A      0.081631    56A      0.084884    57A      0.088334  
      58A      0.092417    59A      0.102617    60A      0.105630  
      61A      0.108564    62A      0.114532    63A      0.127147  
      64A      0.132790    65A      0.142605    66A      0.147309  
      67A      0.150841    68A      0.158382    69A      0.159378  
      70A      0.175794    71A      0.184265    72A      0.192378  
      73A      0.197500    74A      0.204747    75A      0.210017  
      76A      0.214392    77A      0.216063    78A      0.222360  
      79A      0.224010    80A      0.233453    81A      0.233998  
      82A      0.238692    83A      0.242964    84A      0.250003  
      85A      0.252381    86A      0.261373    87A      0.264342  
      88A      0.269232    89A      0.277024    90A      0.281177  
      91A      0.288128    92A      0.291928    93A      0.295173  
      94A      0.295534    95A      0.303578    96A      0.308245  
      97A      0.311431    98A      0.319888    99A      0.323553  
     100A      0.330242   101A      0.333343   102A      0.340610  
     103A      0.347582   104A      0.349416   105A      0.353775  
     106A      0.359250   107A      0.364149   108A      0.368042  
     109A      0.375085   110A      0.383383   111A      0.386545  
     112A      0.394316   113A      0.396868   114A      0.397568  
     115A      0.399857   116A      0.409233   117A      0.418152  
     118A      0.426073   119A      0.432208   120A      0.434348  
     121A      0.446161   122A      0.453860   123A      0.458479  
     124A      0.465750   125A      0.470728   126A      0.479885  
     127A      0.486003   128A      0.488595   129A      0.503265  
     130A      0.506702   131A      0.511344   132A      0.516698  
     133A      0.520376   134A      0.524760   135A      0.534057  
     136A      0.541661   137A      0.550041   138A      0.554599  
     139A      0.572245   140A      0.580403   141A      0.591642  
     142A      0.601714   143A      0.612894   144A      0.643411  
     145A      0.651531   146A      0.665988   147A      0.682407  
     148A      0.690336   149A      0.701802   150A      0.703381  
     151A      0.708837   152A      0.714667   153A      0.718551  
     154A      0.726109   155A      0.729004   156A      0.731756  
     157A      0.738887   158A      0.742321   159A      0.746513  
     160A      0.764153   161A      0.777047   162A      0.786211  
     163A      0.790193   164A      0.792988   165A      0.799262  
     166A      0.799648   167A      0.809986   168A      0.814924  
     169A      0.824019   170A      0.832328   171A      0.838349  
     172A      0.840288   173A      0.847281   174A      0.853376  
     175A      0.860447   176A      0.869381   177A      0.877029  
     178A      0.885647   179A      0.893495   180A      0.896086  
     181A      0.907316   182A      0.917649   183A      0.925308  
     184A      0.929806   185A      0.935580   186A      0.943189  
     187A      0.951046   188A      0.959793   189A      0.971274  
     190A      0.973318   191A      0.980397   192A      0.993446  
     193A      1.007530   194A      1.017782   195A      1.021435  
     196A      1.028115   197A      1.035130   198A      1.047158  
     199A      1.050097   200A      1.053918   201A      1.061527  
     202A      1.066840   203A      1.074382   204A      1.079019  
     205A      1.094204   206A      1.095367   207A      1.103252  
     208A      1.113414   209A      1.128748   210A      1.130716  
     211A      1.139633   212A      1.159435   213A      1.167955  
     214A      1.172027   215A      1.187040   216A      1.196451  
     217A      1.202539   218A      1.218155   219A      1.223259  
     220A      1.233996   221A      1.243408   222A      1.253948  
     223A      1.256070   224A      1.264371   225A      1.272431  
     226A      1.289013   227A      1.290511   228A      1.301173  
     229A      1.302263   230A      1.320935   231A      1.338962  
     232A      1.343058   233A      1.345310   234A      1.352261  
     235A      1.365083   236A      1.375259   237A      1.382999  
     238A      1.396672   239A      1.408472   240A      1.420841  
     241A      1.428522   242A      1.446337   243A      1.449704  
     244A      1.464860   245A      1.477628   246A      1.478623  
     247A      1.487363   248A      1.503552   249A      1.511199  
     250A      1.515795   251A      1.528049   252A      1.538404  
     253A      1.540398   254A      1.555369   255A      1.557165  
     256A      1.573103   257A      1.579424   258A      1.587984  
     259A      1.598829   260A      1.601355   261A      1.609505  
     262A      1.613941   263A      1.619870   264A      1.632219  
     265A      1.641528   266A      1.642989   267A      1.664586  
     268A      1.664858   269A      1.683462   270A      1.688933  
     271A      1.703341   272A      1.719722   273A      1.722564  
     274A      1.734063   275A      1.751989   276A      1.763654  
     277A      1.767444   278A      1.777281   279A      1.780603  
     280A      1.789022   281A      1.793889   282A      1.803066  
     283A      1.816827   284A      1.822371   285A      1.835143  
     286A      1.839846   287A      1.847358   288A      1.871038  
     289A      1.873751   290A      1.882955   291A      1.892721  
     292A      1.901178   293A      1.915298   294A      1.939339  
     295A      1.951256   296A      1.958716   297A      1.969829  
     298A      1.981223   299A      2.000568   300A      2.007181  
     301A      2.028704   302A      2.034918   303A      2.044610  
     304A      2.073829   305A      2.080248   306A      2.088055  
     307A      2.094174   308A      2.103783   309A      2.113039  
     310A      2.132397   311A      2.141652   312A      2.146334  
     313A      2.154227   314A      2.160649   315A      2.184103  
     316A      2.206039   317A      2.211104   318A      2.227009  
     319A      2.230722   320A      2.269825   321A      2.281120  
     322A      2.302857   323A      2.308944   324A      2.318139  
     325A      2.354771   326A      2.356961   327A      2.379401  
     328A      2.390667   329A      2.414823   330A      2.429531  
     331A      2.442600   332A      2.453088   333A      2.480239  
     334A      2.487486   335A      2.511521   336A      2.547455  
     337A      2.557145   338A      2.585710   339A      2.607978  
     340A      2.625784   341A      2.670526   342A      2.699031  
     343A      2.735927   344A      2.842320   345A      2.936380  
     346A      2.960221   347A      3.002284   348A      3.099383  
     349A      3.172770   350A      3.205152   351A      3.222439  
     352A      3.240513   353A      3.278757   354A      3.306424  
     355A      3.331319   356A      3.346123   357A      3.349509  
     358A      3.358760   359A      3.368540   360A      3.399327  
     361A      3.434578   362A      3.445263   363A      3.472951  
     364A      3.490620   365A      3.492250   366A      3.504749  
     367A      3.519290   368A      3.543061   369A      3.553534  
     370A      3.556204   371A      3.589526   372A      3.597775  
     373A      3.603241   374A      3.613631   375A      3.621098  
     376A      3.638551   377A      3.654921   378A      3.672636  
     379A      3.681586   380A      3.695945   381A      3.701218  
     382A      3.713926   383A      3.725719   384A      3.743292  
     385A      3.756686   386A      3.765672   387A      3.782661  
     388A      3.792331   389A      3.805284   390A      3.810238  
     391A      3.820680   392A      3.828804   393A      3.835852  
     394A      3.861486   395A      3.871370   396A      3.896634  
     397A      3.906284   398A      3.912366   399A      3.930087  
     400A      3.945734   401A      3.955916   402A      3.979214  
     403A      3.986569   404A      4.008405   405A      4.021062  
     406A      4.031596   407A      4.048821   408A      4.058485  
     409A      4.075420   410A      4.086442   411A      4.097888  
     412A      4.105239   413A      4.117622   414A      4.123568  
     415A      4.144245   416A      4.159805   417A      4.166341  
     418A      4.173900   419A      4.184258   420A      4.189320  
     421A      4.221029   422A      4.230437   423A      4.244474  
     424A      4.258029   425A      4.287649   426A      4.291175  
     427A      4.307141   428A      4.313901   429A      4.343584  
     430A      4.369758   431A      4.392370   432A      4.400252  
     433A      4.415829   434A      4.445873   435A      4.447235  
     436A      4.462618   437A      4.485693   438A      4.497520  
     439A      4.509280   440A      4.517954   441A      4.526914  
     442A      4.538996   443A      4.550031   444A      4.562796  
     445A      4.569704   446A      4.602592   447A      4.622980  
     448A      4.652505   449A      4.667996   450A      4.709053  
     451A      4.719611   452A      4.734413   453A      4.745496  
     454A      4.747645   455A      4.754235   456A      4.763687  
     457A      4.781074   458A      4.792228   459A      4.823295  
     460A      4.843496   461A      4.847096   462A      4.848807  
     463A      4.869654   464A      4.887642   465A      4.919651  
     466A      4.942608   467A      4.950484   468A      4.962144  
     469A      4.967925   470A      4.997677   471A      5.011369  
     472A      5.027652   473A      5.037998   474A      5.061845  
     475A      5.073919   476A      5.086936   477A      5.088717  
     478A      5.116494   479A      5.127815   480A      5.145805  
     481A      5.175195   482A      5.179219   483A      5.203742  
     484A      5.206877   485A      5.222522   486A      5.235539  
     487A      5.247635   488A      5.268091   489A      5.277097  
     490A      5.291524   491A      5.303398   492A      5.314848  
     493A      5.354231   494A      5.363651   495A      5.383378  
     496A      5.392721   497A      5.409313   498A      5.431159  
     499A      5.456004   500A      5.472176   501A      5.520021  
     502A      5.532562   503A      5.556551   504A      5.563265  
     505A      5.610254   506A      5.617365   507A      5.636699  
     508A      5.683301   509A      5.702187   510A      5.716668  
     511A      5.727649   512A      5.772013   513A      5.783055  
     514A      5.805597   515A      5.827102   516A      5.850017  
     517A      5.867697   518A      5.897382   519A      5.941722  
     520A      5.985803   521A      6.030523   522A      6.048745  
     523A      6.072779   524A      6.093524   525A      6.129744  
     526A      6.135558   527A      6.177473   528A      6.207764  
     529A      6.267620   530A      6.287650   531A      6.324159  
     532A      6.371508   533A      6.380226   534A      6.478631  
     535A      6.544729   536A      6.631396   537A      6.672094  
     538A      6.699407   539A      6.730037   540A      6.748938  
     541A      6.762322   542A      6.842257   543A      6.873181  
     544A      6.991096   545A      7.320283   546A      7.714597  
     547A     17.733122   548A     17.998635   549A     18.525685  
     550A     19.044192   551A     19.592875   552A     21.415445  

    Final Occupation by Irrep:
              A 
    DOCC [    24 ]

  @DF-RHF Final Energy:  -250.65474766292812

   => Energetics <=

    Nuclear Repulsion Energy =            265.6555310213027497
    One-Electron Energy =                -854.7241104550427053
    Two-Electron Energy =                 338.4138317708118393
    Total Energy =                       -250.6547476629281164

Computation Completed

*** tstop() called on c465-113.stampede2.tacc.utexas.edu at Thu Apr  1 08:36:02 2021
Module time:
	user time   =     189.67 seconds =       3.16 minutes
	system time =       6.20 seconds =       0.10 minutes
	total time  =         35 seconds =       0.58 minutes
Total time:
	user time   =     189.67 seconds =       3.16 minutes
	system time =       6.20 seconds =       0.10 minutes
	total time  =         35 seconds =       0.58 minutes
   => Loading Basis Set <=

    Name: (AUG-CC-PVTZ AUX)
    Role: RIFIT
    Keyword: DF_BASIS_MP2
    atoms 1    entry N          line   206 file /home1/07844/xy3866/miniconda3/envs/p4env/share/psi4/basis/aug-cc-pvtz-ri.gbs 
    atoms 2-6  entry C          line   148 file /home1/07844/xy3866/miniconda3/envs/p4env/share/psi4/basis/aug-cc-pvtz-ri.gbs 
    atoms 7-18 entry H          line    30 file /home1/07844/xy3866/miniconda3/envs/p4env/share/psi4/basis/aug-cc-pvtz-ri.gbs 


*** tstart() called on c465-113.stampede2.tacc.utexas.edu
*** at Thu Apr  1 08:36:03 2021


  //>>>>>>>>>>>>>>>>>>>>>>>>>>>>>>>>>>>//
  //               DFMP2               //
  //<<<<<<<<<<<<<<<<<<<<<<<<<<<<<<<<<<<//

	 --------------------------------------------------------
	                          DF-MP2                         
	      2nd-Order Density-Fitted Moller-Plesset Theory     
	              RMP2 Wavefunction,   8 Threads             
	                                                         
	        Rob Parrish, Justin Turney, Andy Simmonett,      
	           Ed Hohenstein, and C. David Sherrill          
	 --------------------------------------------------------

   => Auxiliary Basis Set <=

  Basis Set: (AUG-CC-PVTZ AUX)
    Blend: AUG-CC-PVTZ-RI
    Number of shells: 336
    Number of basis functions: 1188
    Number of Cartesian functions: 1476
    Spherical Harmonics?: true
    Max angular momentum: 4

	 --------------------------------------------------------
	                 NBF =   552, NAUX =  1188
	 --------------------------------------------------------
	   CLASS    FOCC     OCC    AOCC    AVIR     VIR    FVIR
	   PAIRS       0      24      24     528     528       0
	 --------------------------------------------------------

  DFHelper Memory: AOs need 2.712 GiB; user supplied 22.352 GiB. Using in-core AOs.


         ------------------------------------------------------------
                                     CPHF                           
                                  Rob Parrish                       
         ------------------------------------------------------------

  ==> Geometry <==

    Molecular point group: c1
    Full point group: C1

    Geometry (in Angstrom), charge = 1, multiplicity = 1:

       Center              X                  Y                   Z               Mass       
    ------------   -----------------  -----------------  -----------------  -----------------
         N           -1.453483626083    -0.725101642950     0.019946749416    14.003074004430
         C            0.793919373917     0.025727357050    -0.371979250584    12.000000000000
         C            0.000538373917    -1.176910642950     0.124154749416    12.000000000000
         C           -0.013986626083     1.195657357050     0.195957749416    12.000000000000
         C           -1.462965626083     0.808194357050    -0.067655250584    12.000000000000
         C            2.253657373917    -0.011484642950     0.062379749416    12.000000000000
         H            0.741342373917     0.055414357050    -1.468565250584     1.007825032230
         H            0.129432373917    -2.097174642950    -0.448297250584     1.007825032230
         H            0.201025373917    -1.373573642950     1.180264749416     1.007825032230
         H            0.230048373917     2.149937357050    -0.277322250584     1.007825032230
         H            0.181834373917     1.299610057050     1.319992649416     1.007825032230
         H           -2.000592626083    -1.055483642950     0.823658749416     1.007825032230
         H           -1.899462626083    -1.132098642950    -0.810378250584     1.007825032230
         H           -2.188745626083     1.193576357050     0.649250749416     1.007825032230
         H           -1.783707626083     1.066374357050    -1.077878250584     1.007825032230
         H            2.765229373917    -0.889098642950    -0.341170250584     1.007825032230
         H            2.777531373917     0.875895357050    -0.299739250584     1.007825032230
         H            2.333708373917    -0.034393642950     1.153419749416     1.007825032230

  Nuclear repulsion =  265.655531021302750
  Reference energy  = -250.654747662928116

  ==> Basis Set <==

  Basis Set: AUG-CC-PVTZ
    Blend: AUG-CC-PVTZ
    Number of shells: 192
    Number of basis functions: 552
    Number of Cartesian functions: 630
    Spherical Harmonics?: true
    Max angular momentum: 3

  ==> CGRSolver (by Rob Parrish) <==

   Number of roots    =         1
   Preconditioning    =    JACOBI
   Convergence cutoff =     1E-06
   Maximum iterations =       100

  ==> CPHFRHamiltonian (by Rob Parrish) <== 

  ==> MemDFJK: Density-Fitted J/K Matrices <==

    J tasked:                   Yes
    K tasked:                   Yes
    wK tasked:                   No
    OpenMP threads:               8
    Memory [MiB]:             22888
    Algorithm:                 Core
    Schwarz Cutoff:           1E-12
    Mask sparsity (%):       1.7899
    Fitting Condition:        1E-10

   => Auxiliary Basis Set <=

  Basis Set: (AUG-CC-PVTZ AUX)
    Blend: AUG-CC-PVTZ-JKFIT
    Number of shells: 348
    Number of basis functions: 1176
    Number of Cartesian functions: 1446
    Spherical Harmonics?: true
    Max angular momentum: 4

  ==> CPHF Iterations <==

  => Iterations <=

             Iter  Converged  Remaining    Residual
  CGR           1          0          1   8.419E-02
  CGR           2          0          1   1.584E-02
  CGR           3          0          1   4.886E-03
  CGR           4          0          1   1.240E-03
  CGR           5          0          1   3.727E-04
  CGR           6          0          1   1.076E-04
  CGR           7          0          1   2.863E-05
  CGR           8          0          1   5.372E-06
  CGR           9          0          1   1.437E-06
  CGR          10          1          0   2.939E-07

    CGRSolver converged.

	-----------------------------------------------------------
	 ==================> DF-MP2 Energies <==================== 
	-----------------------------------------------------------
	 Reference Energy          =    -250.6547476629281164 [Eh]
	 Singles Energy            =      -0.0000000000000000 [Eh]
	 Same-Spin Energy          =      -0.2611426461377293 [Eh]
	 Opposite-Spin Energy      =      -0.9377834525228189 [Eh]
	 Correlation Energy        =      -1.1989260986605483 [Eh]
	 Total Energy              =    -251.8536737615886523 [Eh]
	-----------------------------------------------------------
	 ================> DF-SCS-MP2 Energies <================== 
	-----------------------------------------------------------
	 SCS Same-Spin Scale       =       0.3333333333333333 [-]
	 SCS Opposite-Spin Scale   =       1.2000000000000000 [-]
	 SCS Same-Spin Energy      =      -0.0870475487125764 [Eh]
	 SCS Opposite-Spin Energy  =      -1.1253401430273826 [Eh]
	 SCS Correlation Energy    =      -1.2123876917399590 [Eh]
	 SCS Total Energy          =    -251.8671353546680791 [Eh]
	-----------------------------------------------------------



Properties will be evaluated at  -0.000000,  -0.000000,   0.000000 [a0]

Properties computed using the MP2 density matrix

  Nuclear Dipole Moment: [e a0]
     X:     1.3988      Y:     0.0574      Z:     0.3780

  Electronic Dipole Moment: [e a0]
     X:    -3.0604      Y:    -0.7927      Z:    -0.3906

  Dipole Moment: [e a0]
     X:    -1.6615      Y:    -0.7353      Z:    -0.0126     Total:     1.8170

  Dipole Moment: [D]
     X:    -4.2232      Y:    -1.8689      Z:    -0.0320     Total:     4.6183


*** tstop() called on c465-113.stampede2.tacc.utexas.edu at Thu Apr  1 08:37:55 2021
Module time:
	user time   =     684.47 seconds =      11.41 minutes
	system time =      11.17 seconds =       0.19 minutes
	total time  =        112 seconds =       1.87 minutes
Total time:
	user time   =     875.01 seconds =      14.58 minutes
	system time =      17.39 seconds =       0.29 minutes
	total time  =        148 seconds =       2.47 minutes

    Psi4 stopped on: Thursday, 01 April 2021 08:37AM
    Psi4 wall time for execution: 0:02:28.24

*** Psi4 exiting successfully. Buy a developer a beer!
