68241                                                                   
Freq      RMP2-FC                                                     6-31G(d)            
Number of atoms                            I               18
Info1-9                                    I   N=           9
          30          28        1002           0           0         100
           6           2           1
Charge                                     I                0
Multiplicity                               I                1
Number of electrons                        I               72
Number of alpha electrons                  I               36
Number of beta electrons                   I               36
Number of basis functions                  I              166
Number of independent functions            I              166
Number of point charges in /Mol/           I                0
Number of translation vectors              I                0
Atomic numbers                             I   N=          18
           8           8           6           6           6           6
           6           6           6           6           1           1
           1           1           1           1           1           1
Nuclear charges                            R   N=          18
  8.00000000E+00  8.00000000E+00  6.00000000E+00  6.00000000E+00  6.00000000E+00
  6.00000000E+00  6.00000000E+00  6.00000000E+00  6.00000000E+00  6.00000000E+00
  1.00000000E+00  1.00000000E+00  1.00000000E+00  1.00000000E+00  1.00000000E+00
  1.00000000E+00  1.00000000E+00  1.00000000E+00
Current cartesian coordinates              R   N=          54
 -4.36496072E+00  8.00044288E-08  1.00208970E-04  5.72659053E+00 -1.05852356E-07
 -1.06474948E-04 -6.06022451E-01  2.43244248E+00  2.61521977E-07 -6.06022535E-01
 -2.43244248E+00  2.53718909E-06 -2.02260514E+00 -5.42101086E-20  3.92235361E-05
  1.94942856E+00  2.39086445E+00 -3.22362337E-05  1.94942847E+00 -2.39086447E+00
 -2.94004947E-05  3.38444006E+00 -3.46993389E-08 -6.08403996E-05 -2.15682901E+00
  4.79747483E+00  2.84814990E-05 -2.15682916E+00 -4.79747477E+00  3.57000218E-05
  3.06987652E+00  4.11559091E+00 -5.59907197E-05  3.06987644E+00 -4.11559093E+00
 -5.13844299E-05 -3.38890319E+00  4.85268901E+00  1.65852117E+00 -3.38904227E+00
  4.85263882E+00 -1.65836176E+00 -9.43416367E-01  6.46767502E+00 -4.55940136E-05
 -9.43416581E-01 -6.46767501E+00 -5.35117451E-05 -3.38905658E+00 -4.85263307E+00
 -1.65834404E+00 -3.38888918E+00 -4.85269457E+00  1.65853888E+00
Force Field                                I                0
Int Atom Types                             I   N=          18
           0           0           0           0           0           0
           0           0           0           0           0           0
           0           0           0           0           0           0
MM charges                                 R   N=          18
  0.00000000E+00  0.00000000E+00  0.00000000E+00  0.00000000E+00  0.00000000E+00
  0.00000000E+00  0.00000000E+00  0.00000000E+00  0.00000000E+00  0.00000000E+00
  0.00000000E+00  0.00000000E+00  0.00000000E+00  0.00000000E+00  0.00000000E+00
  0.00000000E+00  0.00000000E+00  0.00000000E+00
Integer atomic weights                     I   N=          18
          16          16          12          12          12          12
          12          12          12          12           1           1
           1           1           1           1           1           1
Real atomic weights                        R   N=          18
  1.59949146E+01  1.59949146E+01  1.20000000E+01  1.20000000E+01  1.20000000E+01
  1.20000000E+01  1.20000000E+01  1.20000000E+01  1.20000000E+01  1.20000000E+01
  1.00782504E+00  1.00782504E+00  1.00782504E+00  1.00782504E+00  1.00782504E+00
  1.00782504E+00  1.00782504E+00  1.00782504E+00
Atom fragment info                         I   N=          18
           0           0           0           0           0           0
           0           0           0           0           0           0
           0           0           0           0           0           0
Atom residue num                           I   N=          18
           0           0           0           0           0           0
           0           0           0           0           0           0
           0           0           0           0           0           0
Nuclear spins                              I   N=          18
           0           0           0           0           0           0
           0           0           0           0           1           1
           1           1           1           1           1           1
Nuclear ZEff                               R   N=          18
 -5.60000000E+00 -5.60000000E+00 -3.60000000E+00 -3.60000000E+00 -3.60000000E+00
 -3.60000000E+00 -3.60000000E+00 -3.60000000E+00 -3.60000000E+00 -3.60000000E+00
 -1.00000000E+00 -1.00000000E+00 -1.00000000E+00 -1.00000000E+00 -1.00000000E+00
 -1.00000000E+00 -1.00000000E+00 -1.00000000E+00
Nuclear QMom                               R   N=          18
  0.00000000E+00  0.00000000E+00  0.00000000E+00  0.00000000E+00  0.00000000E+00
  0.00000000E+00  0.00000000E+00  0.00000000E+00  0.00000000E+00  0.00000000E+00
  0.00000000E+00  0.00000000E+00  0.00000000E+00  0.00000000E+00  0.00000000E+00
  0.00000000E+00  0.00000000E+00  0.00000000E+00
Nuclear GFac                               R   N=          18
  0.00000000E+00  0.00000000E+00  0.00000000E+00  0.00000000E+00  0.00000000E+00
  0.00000000E+00  0.00000000E+00  0.00000000E+00  0.00000000E+00  0.00000000E+00
  2.79284600E+00  2.79284600E+00  2.79284600E+00  2.79284600E+00  2.79284600E+00
  2.79284600E+00  2.79284600E+00  2.79284600E+00
MicOpt                                     I   N=          18
          -1          -1          -1          -1          -1          -1
          -1          -1          -1          -1          -1          -1
          -1          -1          -1          -1          -1          -1
Number of contracted shells                I               56
Number of primitive shells                 I              142
Pure/Cartesian d shells                    I                1
Pure/Cartesian f shells                    I                0
Highest angular momentum                   I                2
Largest degree of contraction              I                6
Shell types                                I   N=          56
           0          -1          -1           2           0          -1
          -1           2           0          -1          -1           2
           0          -1          -1           2           0          -1
          -1           2           0          -1          -1           2
           0          -1          -1           2           0          -1
          -1           2           0          -1          -1           2
           0          -1          -1           2           0           0
           0           0           0           0           0           0
           0           0           0           0           0           0
           0           0
Number of primitives per shell             I   N=          56
           6           3           1           1           6           3
           1           1           6           3           1           1
           6           3           1           1           6           3
           1           1           6           3           1           1
           6           3           1           1           6           3
           1           1           6           3           1           1
           6           3           1           1           3           1
           3           1           3           1           3           1
           3           1           3           1           3           1
           3           1
Shell to atom map                          I   N=          56
           1           1           1           1           2           2
           2           2           3           3           3           3
           4           4           4           4           5           5
           5           5           6           6           6           6
           7           7           7           7           8           8
           8           8           9           9           9           9
          10          10          10          10          11          11
          12          12          13          13          14          14
          15          15          16          16          17          17
          18          18
Primitive exponents                        R   N=         142
  5.48467166E+03  8.25234946E+02  1.88046958E+02  5.29645000E+01  1.68975704E+01
  5.79963534E+00  1.55396162E+01  3.59993359E+00  1.01376175E+00  2.70005823E-01
  8.00000000E-01  5.48467166E+03  8.25234946E+02  1.88046958E+02  5.29645000E+01
  1.68975704E+01  5.79963534E+00  1.55396162E+01  3.59993359E+00  1.01376175E+00
  2.70005823E-01  8.00000000E-01  3.04752488E+03  4.57369518E+02  1.03948685E+02
  2.92101553E+01  9.28666296E+00  3.16392696E+00  7.86827235E+00  1.88128854E+00
  5.44249258E-01  1.68714478E-01  8.00000000E-01  3.04752488E+03  4.57369518E+02
  1.03948685E+02  2.92101553E+01  9.28666296E+00  3.16392696E+00  7.86827235E+00
  1.88128854E+00  5.44249258E-01  1.68714478E-01  8.00000000E-01  3.04752488E+03
  4.57369518E+02  1.03948685E+02  2.92101553E+01  9.28666296E+00  3.16392696E+00
  7.86827235E+00  1.88128854E+00  5.44249258E-01  1.68714478E-01  8.00000000E-01
  3.04752488E+03  4.57369518E+02  1.03948685E+02  2.92101553E+01  9.28666296E+00
  3.16392696E+00  7.86827235E+00  1.88128854E+00  5.44249258E-01  1.68714478E-01
  8.00000000E-01  3.04752488E+03  4.57369518E+02  1.03948685E+02  2.92101553E+01
  9.28666296E+00  3.16392696E+00  7.86827235E+00  1.88128854E+00  5.44249258E-01
  1.68714478E-01  8.00000000E-01  3.04752488E+03  4.57369518E+02  1.03948685E+02
  2.92101553E+01  9.28666296E+00  3.16392696E+00  7.86827235E+00  1.88128854E+00
  5.44249258E-01  1.68714478E-01  8.00000000E-01  3.04752488E+03  4.57369518E+02
  1.03948685E+02  2.92101553E+01  9.28666296E+00  3.16392696E+00  7.86827235E+00
  1.88128854E+00  5.44249258E-01  1.68714478E-01  8.00000000E-01  3.04752488E+03
  4.57369518E+02  1.03948685E+02  2.92101553E+01  9.28666296E+00  3.16392696E+00
  7.86827235E+00  1.88128854E+00  5.44249258E-01  1.68714478E-01  8.00000000E-01
  1.87311370E+01  2.82539436E+00  6.40121692E-01  1.61277759E-01  1.87311370E+01
  2.82539436E+00  6.40121692E-01  1.61277759E-01  1.87311370E+01  2.82539436E+00
  6.40121692E-01  1.61277759E-01  1.87311370E+01  2.82539436E+00  6.40121692E-01
  1.61277759E-01  1.87311370E+01  2.82539436E+00  6.40121692E-01  1.61277759E-01
  1.87311370E+01  2.82539436E+00  6.40121692E-01  1.61277759E-01  1.87311370E+01
  2.82539436E+00  6.40121692E-01  1.61277759E-01  1.87311370E+01  2.82539436E+00
  6.40121692E-01  1.61277759E-01
Contraction coefficients                   R   N=         142
  1.83107443E-03  1.39501722E-02  6.84450781E-02  2.32714336E-01  4.70192898E-01
  3.58520853E-01 -1.10777550E-01 -1.48026263E-01  1.13076702E+00  1.00000000E+00
  1.00000000E+00  1.83107443E-03  1.39501722E-02  6.84450781E-02  2.32714336E-01
  4.70192898E-01  3.58520853E-01 -1.10777550E-01 -1.48026263E-01  1.13076702E+00
  1.00000000E+00  1.00000000E+00  1.83473713E-03  1.40373228E-02  6.88426223E-02
  2.32184443E-01  4.67941348E-01  3.62311985E-01 -1.19332420E-01 -1.60854152E-01
  1.14345644E+00  1.00000000E+00  1.00000000E+00  1.83473713E-03  1.40373228E-02
  6.88426223E-02  2.32184443E-01  4.67941348E-01  3.62311985E-01 -1.19332420E-01
 -1.60854152E-01  1.14345644E+00  1.00000000E+00  1.00000000E+00  1.83473713E-03
  1.40373228E-02  6.88426223E-02  2.32184443E-01  4.67941348E-01  3.62311985E-01
 -1.19332420E-01 -1.60854152E-01  1.14345644E+00  1.00000000E+00  1.00000000E+00
  1.83473713E-03  1.40373228E-02  6.88426223E-02  2.32184443E-01  4.67941348E-01
  3.62311985E-01 -1.19332420E-01 -1.60854152E-01  1.14345644E+00  1.00000000E+00
  1.00000000E+00  1.83473713E-03  1.40373228E-02  6.88426223E-02  2.32184443E-01
  4.67941348E-01  3.62311985E-01 -1.19332420E-01 -1.60854152E-01  1.14345644E+00
  1.00000000E+00  1.00000000E+00  1.83473713E-03  1.40373228E-02  6.88426223E-02
  2.32184443E-01  4.67941348E-01  3.62311985E-01 -1.19332420E-01 -1.60854152E-01
  1.14345644E+00  1.00000000E+00  1.00000000E+00  1.83473713E-03  1.40373228E-02
  6.88426223E-02  2.32184443E-01  4.67941348E-01  3.62311985E-01 -1.19332420E-01
 -1.60854152E-01  1.14345644E+00  1.00000000E+00  1.00000000E+00  1.83473713E-03
  1.40373228E-02  6.88426223E-02  2.32184443E-01  4.67941348E-01  3.62311985E-01
 -1.19332420E-01 -1.60854152E-01  1.14345644E+00  1.00000000E+00  1.00000000E+00
  3.34946043E-02  2.34726953E-01  8.13757326E-01  1.00000000E+00  3.34946043E-02
  2.34726953E-01  8.13757326E-01  1.00000000E+00  3.34946043E-02  2.34726953E-01
  8.13757326E-01  1.00000000E+00  3.34946043E-02  2.34726953E-01  8.13757326E-01
  1.00000000E+00  3.34946043E-02  2.34726953E-01  8.13757326E-01  1.00000000E+00
  3.34946043E-02  2.34726953E-01  8.13757326E-01  1.00000000E+00  3.34946043E-02
  2.34726953E-01  8.13757326E-01  1.00000000E+00  3.34946043E-02  2.34726953E-01
  8.13757326E-01  1.00000000E+00
P(S=P) Contraction coefficients            R   N=         142
  0.00000000E+00  0.00000000E+00  0.00000000E+00  0.00000000E+00  0.00000000E+00
  0.00000000E+00  7.08742682E-02  3.39752839E-01  7.27158577E-01  1.00000000E+00
  0.00000000E+00  0.00000000E+00  0.00000000E+00  0.00000000E+00  0.00000000E+00
  0.00000000E+00  0.00000000E+00  7.08742682E-02  3.39752839E-01  7.27158577E-01
  1.00000000E+00  0.00000000E+00  0.00000000E+00  0.00000000E+00  0.00000000E+00
  0.00000000E+00  0.00000000E+00  0.00000000E+00  6.89990666E-02  3.16423961E-01
  7.44308291E-01  1.00000000E+00  0.00000000E+00  0.00000000E+00  0.00000000E+00
  0.00000000E+00  0.00000000E+00  0.00000000E+00  0.00000000E+00  6.89990666E-02
  3.16423961E-01  7.44308291E-01  1.00000000E+00  0.00000000E+00  0.00000000E+00
  0.00000000E+00  0.00000000E+00  0.00000000E+00  0.00000000E+00  0.00000000E+00
  6.89990666E-02  3.16423961E-01  7.44308291E-01  1.00000000E+00  0.00000000E+00
  0.00000000E+00  0.00000000E+00  0.00000000E+00  0.00000000E+00  0.00000000E+00
  0.00000000E+00  6.89990666E-02  3.16423961E-01  7.44308291E-01  1.00000000E+00
  0.00000000E+00  0.00000000E+00  0.00000000E+00  0.00000000E+00  0.00000000E+00
  0.00000000E+00  0.00000000E+00  6.89990666E-02  3.16423961E-01  7.44308291E-01
  1.00000000E+00  0.00000000E+00  0.00000000E+00  0.00000000E+00  0.00000000E+00
  0.00000000E+00  0.00000000E+00  0.00000000E+00  6.89990666E-02  3.16423961E-01
  7.44308291E-01  1.00000000E+00  0.00000000E+00  0.00000000E+00  0.00000000E+00
  0.00000000E+00  0.00000000E+00  0.00000000E+00  0.00000000E+00  6.89990666E-02
  3.16423961E-01  7.44308291E-01  1.00000000E+00  0.00000000E+00  0.00000000E+00
  0.00000000E+00  0.00000000E+00  0.00000000E+00  0.00000000E+00  0.00000000E+00
  6.89990666E-02  3.16423961E-01  7.44308291E-01  1.00000000E+00  0.00000000E+00
  0.00000000E+00  0.00000000E+00  0.00000000E+00  0.00000000E+00  0.00000000E+00
  0.00000000E+00  0.00000000E+00  0.00000000E+00  0.00000000E+00  0.00000000E+00
  0.00000000E+00  0.00000000E+00  0.00000000E+00  0.00000000E+00  0.00000000E+00
  0.00000000E+00  0.00000000E+00  0.00000000E+00  0.00000000E+00  0.00000000E+00
  0.00000000E+00  0.00000000E+00  0.00000000E+00  0.00000000E+00  0.00000000E+00
  0.00000000E+00  0.00000000E+00  0.00000000E+00  0.00000000E+00  0.00000000E+00
  0.00000000E+00  0.00000000E+00
Coordinates of each shell                  R   N=         168
 -4.36496072E+00  8.00044288E-08  1.00208970E-04 -4.36496072E+00  8.00044288E-08
  1.00208970E-04 -4.36496072E+00  8.00044288E-08  1.00208970E-04 -4.36496072E+00
  8.00044288E-08  1.00208970E-04  5.72659053E+00 -1.05852356E-07 -1.06474948E-04
  5.72659053E+00 -1.05852356E-07 -1.06474948E-04  5.72659053E+00 -1.05852356E-07
 -1.06474948E-04  5.72659053E+00 -1.05852356E-07 -1.06474948E-04 -6.06022451E-01
  2.43244248E+00  2.61521977E-07 -6.06022451E-01  2.43244248E+00  2.61521977E-07
 -6.06022451E-01  2.43244248E+00  2.61521977E-07 -6.06022451E-01  2.43244248E+00
  2.61521977E-07 -6.06022535E-01 -2.43244248E+00  2.53718909E-06 -6.06022535E-01
 -2.43244248E+00  2.53718909E-06 -6.06022535E-01 -2.43244248E+00  2.53718909E-06
 -6.06022535E-01 -2.43244248E+00  2.53718909E-06 -2.02260514E+00 -2.71050543E-20
  3.92235361E-05 -2.02260514E+00 -2.71050543E-20  3.92235361E-05 -2.02260514E+00
 -2.71050543E-20  3.92235361E-05 -2.02260514E+00 -2.71050543E-20  3.92235361E-05
  1.94942856E+00  2.39086445E+00 -3.22362337E-05  1.94942856E+00  2.39086445E+00
 -3.22362337E-05  1.94942856E+00  2.39086445E+00 -3.22362337E-05  1.94942856E+00
  2.39086445E+00 -3.22362337E-05  1.94942847E+00 -2.39086447E+00 -2.94004947E-05
  1.94942847E+00 -2.39086447E+00 -2.94004947E-05  1.94942847E+00 -2.39086447E+00
 -2.94004947E-05  1.94942847E+00 -2.39086447E+00 -2.94004947E-05  3.38444006E+00
 -3.46993389E-08 -6.08403996E-05  3.38444006E+00 -3.46993389E-08 -6.08403996E-05
  3.38444006E+00 -3.46993389E-08 -6.08403996E-05  3.38444006E+00 -3.46993389E-08
 -6.08403996E-05 -2.15682901E+00  4.79747483E+00  2.84814990E-05 -2.15682901E+00
  4.79747483E+00  2.84814990E-05 -2.15682901E+00  4.79747483E+00  2.84814990E-05
 -2.15682901E+00  4.79747483E+00  2.84814990E-05 -2.15682916E+00 -4.79747477E+00
  3.57000218E-05 -2.15682916E+00 -4.79747477E+00  3.57000218E-05 -2.15682916E+00
 -4.79747477E+00  3.57000218E-05 -2.15682916E+00 -4.79747477E+00  3.57000218E-05
  3.06987652E+00  4.11559091E+00 -5.59907197E-05  3.06987652E+00  4.11559091E+00
 -5.59907197E-05  3.06987644E+00 -4.11559093E+00 -5.13844299E-05  3.06987644E+00
 -4.11559093E+00 -5.13844299E-05 -3.38890319E+00  4.85268901E+00  1.65852117E+00
 -3.38890319E+00  4.85268901E+00  1.65852117E+00 -3.38904227E+00  4.85263882E+00
 -1.65836176E+00 -3.38904227E+00  4.85263882E+00 -1.65836176E+00 -9.43416367E-01
  6.46767502E+00 -4.55940136E-05 -9.43416367E-01  6.46767502E+00 -4.55940136E-05
 -9.43416581E-01 -6.46767501E+00 -5.35117451E-05 -9.43416581E-01 -6.46767501E+00
 -5.35117451E-05 -3.38905658E+00 -4.85263307E+00 -1.65834404E+00 -3.38905658E+00
 -4.85263307E+00 -1.65834404E+00 -3.38888918E+00 -4.85269457E+00  1.65853888E+00
 -3.38888918E+00 -4.85269457E+00  1.65853888E+00
Constraint Structure                       R   N=          54
 -4.36496072E+00  8.00044288E-08  1.00208970E-04  5.72659053E+00 -1.05852356E-07
 -1.06474948E-04 -6.06022451E-01  2.43244248E+00  2.61521977E-07 -6.06022535E-01
 -2.43244248E+00  2.53718909E-06 -2.02260514E+00 -2.71050543E-20  3.92235361E-05
  1.94942856E+00  2.39086445E+00 -3.22362337E-05  1.94942847E+00 -2.39086447E+00
 -2.94004947E-05  3.38444006E+00 -3.46993389E-08 -6.08403996E-05 -2.15682901E+00
  4.79747483E+00  2.84814990E-05 -2.15682916E+00 -4.79747477E+00  3.57000218E-05
  3.06987652E+00  4.11559091E+00 -5.59907197E-05  3.06987644E+00 -4.11559093E+00
 -5.13844299E-05 -3.38890319E+00  4.85268901E+00  1.65852117E+00 -3.38904227E+00
  4.85263882E+00 -1.65836176E+00 -9.43416367E-01  6.46767502E+00 -4.55940136E-05
 -9.43416581E-01 -6.46767501E+00 -5.35117451E-05 -3.38905658E+00 -4.85263307E+00
 -1.65834404E+00 -3.38888918E+00 -4.85269457E+00  1.65853888E+00
Num ILSW                                   I              100
ILSW                                       I   N=         100
           0           1           0           1           2           0
           0           0           0           0           0          -1
           0           0           0           0           0           0
           0           0           0           0           1           0
           1           0           0           0           0           0
           0           0      100000           0          -1           0
           0           0           0           0           0           0
           0           0           0           1           1           0
           0           0           1           0           0           0
           0           0           4          40           0           0
           0           0           0           0           0           0
           0           0           0           0           0           0
           0           0           0           0           0           0
           0           0           0           0           0           0
           0           0           0           0           0           0
           0           0           0           0           0           0
           0           0           0           0
Num RLSW                                   I               40
RLSW                                       R   N=          40
  1.00000000E+00  1.00000000E+00  1.00000000E+00  1.00000000E+00  1.00000000E+00
  0.00000000E+00  0.00000000E+00  1.00000000E+00  0.00000000E+00  0.00000000E+00
  0.00000000E+00  0.00000000E+00  1.00000000E+00  0.00000000E+00  0.00000000E+00
  0.00000000E+00  0.00000000E+00  1.00000000E+00  0.00000000E+00  0.00000000E+00
  0.00000000E+00  0.00000000E+00  1.00000000E+00  0.00000000E+00  0.00000000E+00
  0.00000000E+00  0.00000000E+00  1.00000000E+00  0.00000000E+00  0.00000000E+00
  0.00000000E+00  0.00000000E+00  0.00000000E+00  0.00000000E+00  0.00000000E+00
  0.00000000E+00  0.00000000E+00  0.00000000E+00  1.00000000E+00  1.00000000E+00
MxBond                                     I                4
NBond                                      I   N=          18
           1           1           3           3           3           3
           3           3           4           4           1           1
           1           1           1           1           1           1
IBond                                      I   N=          72
           5           0           0           0           8           0
           0           0           5           6           9           0
           5           7          10           0           1           3
           4           0           3           8          11           0
           4           8          12           0           2           6
           7           0           3          13          14          15
           4          16          17          18           6           0
           0           0           7           0           0           0
           9           0           0           0           9           0
           0           0           9           0           0           0
          10           0           0           0          10           0
           0           0          10           0           0           0
RBond                                      R   N=          72
  2.00000000E+00  0.00000000E+00  0.00000000E+00  0.00000000E+00  2.00000000E+00
  0.00000000E+00  0.00000000E+00  0.00000000E+00  1.00000000E+00  2.00000000E+00
  1.00000000E+00  0.00000000E+00  1.00000000E+00  2.00000000E+00  1.00000000E+00
  0.00000000E+00  2.00000000E+00  1.00000000E+00  1.00000000E+00  0.00000000E+00
  2.00000000E+00  1.00000000E+00  1.00000000E+00  0.00000000E+00  2.00000000E+00
  1.00000000E+00  1.00000000E+00  0.00000000E+00  2.00000000E+00  1.00000000E+00
  1.00000000E+00  0.00000000E+00  1.00000000E+00  1.00000000E+00  1.00000000E+00
  1.00000000E+00  1.00000000E+00  1.00000000E+00  1.00000000E+00  1.00000000E+00
  1.00000000E+00  0.00000000E+00  0.00000000E+00  0.00000000E+00  1.00000000E+00
  0.00000000E+00  0.00000000E+00  0.00000000E+00  1.00000000E+00  0.00000000E+00
  0.00000000E+00  0.00000000E+00  1.00000000E+00  0.00000000E+00  0.00000000E+00
  0.00000000E+00  1.00000000E+00  0.00000000E+00  0.00000000E+00  0.00000000E+00
  1.00000000E+00  0.00000000E+00  0.00000000E+00  0.00000000E+00  1.00000000E+00
  0.00000000E+00  0.00000000E+00  0.00000000E+00  1.00000000E+00  0.00000000E+00
  0.00000000E+00  0.00000000E+00
Virial Ratio                               R      2.002550965039164E+00
SCF Energy                                 R     -4.573102666739285E+02
MP2 Energy                                 R     -4.586769343460754E+02
Total Energy                               R     -4.586769343460754E+02
Post-SCF wavefunction norm                 R      1.713003903766747E+00
RMS Force                                  R      2.060122766480153E-07
RMS Density                                R      8.853634983681653E-10
External E-field                           R   N=          35
  0.00000000E+00  0.00000000E+00  0.00000000E+00  0.00000000E+00  0.00000000E+00
  0.00000000E+00  0.00000000E+00  0.00000000E+00  0.00000000E+00  0.00000000E+00
  0.00000000E+00  0.00000000E+00  0.00000000E+00  0.00000000E+00  0.00000000E+00
  0.00000000E+00  0.00000000E+00  0.00000000E+00  0.00000000E+00  0.00000000E+00
  0.00000000E+00  0.00000000E+00  0.00000000E+00  0.00000000E+00  0.00000000E+00
  0.00000000E+00  0.00000000E+00  0.00000000E+00  0.00000000E+00  0.00000000E+00
  0.00000000E+00  0.00000000E+00  0.00000000E+00  0.00000000E+00  0.00000000E+00
IOpCl                                      I                0
IROHF                                      I                0
Alpha Orbital Energies                     R   N=         166
 -2.05849460E+01 -2.05727289E+01 -1.13601523E+01 -1.13524375E+01 -1.12860429E+01
 -1.12860206E+01 -1.12698029E+01 -1.12697819E+01 -1.12423454E+01 -1.12423442E+01
 -1.39931350E+00 -1.38577078E+00 -1.15842865E+00 -1.09987982E+00 -1.00480806E+00
 -9.62578450E-01 -9.27148281E-01 -8.20360945E-01 -8.04265231E-01 -7.17836789E-01
 -6.92742048E-01 -6.50301026E-01 -6.15094788E-01 -6.09386320E-01 -6.04938988E-01
 -5.90830525E-01 -5.87124686E-01 -5.70939588E-01 -5.50695355E-01 -5.48326726E-01
 -5.46234477E-01 -5.29166920E-01 -4.52453956E-01 -4.30473440E-01 -3.91345468E-01
 -3.81811473E-01  1.21991597E-02  1.42108987E-01  1.87970930E-01  2.37441657E-01
  2.54680190E-01  2.58397376E-01  2.79641668E-01  3.00141372E-01  3.05905228E-01
  3.16808603E-01  3.31084643E-01  3.65140857E-01  3.79424558E-01  3.92592873E-01
  4.17777001E-01  4.47266129E-01  4.65703576E-01  4.89424540E-01  5.51980838E-01
  5.77406095E-01  6.62494608E-01  6.64540460E-01  6.78312642E-01  6.99618577E-01
  7.25835431E-01  7.34301142E-01  7.61625179E-01  7.63386358E-01  7.77911436E-01
  8.22030323E-01  8.48504285E-01  8.63937711E-01  8.76326065E-01  8.91238308E-01
  9.01327197E-01  9.25915251E-01  9.36093286E-01  9.37095819E-01  9.93761654E-01
  1.00581631E+00  1.01138463E+00  1.02680624E+00  1.03934848E+00  1.09111448E+00
  1.09825726E+00  1.13125382E+00  1.13232055E+00  1.14337504E+00  1.15507075E+00
  1.15813883E+00  1.18609872E+00  1.20802352E+00  1.21851859E+00  1.22583492E+00
  1.28257175E+00  1.30124528E+00  1.30249606E+00  1.33170925E+00  1.34442333E+00
  1.39295719E+00  1.40734467E+00  1.45739793E+00  1.46116334E+00  1.50826943E+00
  1.51344378E+00  1.54653674E+00  1.60222407E+00  1.62381786E+00  1.65042625E+00
  1.65940592E+00  1.68959485E+00  1.69925735E+00  1.81411216E+00  1.89005906E+00
  1.94692118E+00  1.94811122E+00  2.02858392E+00  2.05126767E+00  2.08815731E+00
  2.08881331E+00  2.09291005E+00  2.11567729E+00  2.14603468E+00  2.15772008E+00
  2.17800451E+00  2.18858636E+00  2.20732473E+00  2.22364341E+00  2.28520694E+00
  2.29269131E+00  2.32224365E+00  2.34965404E+00  2.37069189E+00  2.37493013E+00
  2.45468923E+00  2.46820018E+00  2.51474150E+00  2.53990287E+00  2.63635423E+00
  2.63740000E+00  2.64029360E+00  2.65531537E+00  2.67165695E+00  2.68148060E+00
  2.69490189E+00  2.79751804E+00  2.87212696E+00  2.89412867E+00  2.91400173E+00
  2.94961700E+00  3.01641917E+00  3.01931962E+00  3.10314266E+00  3.20447636E+00
  3.21844043E+00  3.31625425E+00  3.33020333E+00  3.38264966E+00  3.57787257E+00
  3.68153309E+00  4.33147223E+00  4.35006810E+00  4.52237414E+00  4.52641439E+00
  4.63938177E+00  4.66137893E+00  4.81469375E+00  4.87963332E+00  4.93486214E+00
  5.20296417E+00
Alpha MO coefficients                      R   N=       27556
  9.94699481E-01  2.08462402E-02  1.46939015E-03 -5.21343923E-11 -3.78395348E-08
  4.76845093E-03 -4.86786955E-06  5.12692414E-12 -2.15597002E-10 -3.67372295E-03
 -3.88561100E-03 -4.19609795E-03 -6.10968475E-12 -1.59224245E-08 -1.14148633E-10
  1.83012462E-05  2.19955959E-05  1.57108310E-06 -8.06629373E-14 -1.07733988E-10
 -1.75305223E-04  3.34616801E-05 -7.13118456E-13 -5.07607849E-10  1.07808319E-05
  1.61726652E-05  1.12055632E-05  2.22189314E-13  6.00650488E-12 -6.40015921E-12
 -1.03687864E-07  2.16163116E-05  3.51651301E-05  1.47424289E-05 -9.83145517E-10
 -4.36025915E-04 -4.06042000E-04  3.13307826E-04  7.82887142E-09 -7.20881250E-05
  2.42844987E-05 -1.82944122E-05 -4.26464534E-05  1.08603861E-09  1.15870986E-09
 -1.03687000E-07  2.16163088E-05  3.51651266E-05 -1.47424236E-05 -1.00462572E-09
 -4.36025972E-04 -4.06041976E-04 -3.13307812E-04  8.71666556E-09 -7.20881232E-05
  2.42845144E-05 -1.82944104E-05  4.26464544E-05  1.00111813E-09 -1.30478526E-09
 -1.08358675E-05  4.54228921E-04 -1.20318429E-05  9.09879288E-13  5.79596173E-10
 -1.14130960E-04  9.51902547E-04 -4.70959959E-11 -2.49716238E-08 -7.09724042E-04
 -5.99433112E-05 -5.87327677E-05  3.06853078E-11  1.94176574E-08  1.49234698E-11
 -1.32803644E-06 -4.30910611E-06 -2.04275989E-05  3.93538582E-06  2.83475308E-10
  5.00321230E-04 -2.17429634E-04 -1.53985132E-04  1.07299114E-09  2.30818492E-05
 -5.41920764E-06 -1.90657266E-06 -2.04862491E-05  1.01944781E-10  5.42452246E-10
 -1.32803620E-06 -4.30910152E-06 -2.04275982E-05 -3.93538697E-06  2.66704083E-10
  5.00321208E-04 -2.17429626E-04  1.53985117E-04  6.86529284E-10  2.30818482E-05
 -5.41921033E-06 -1.90657268E-06  2.04862521E-05  1.28403052E-10 -5.52957986E-10
  6.76090192E-06  3.41000914E-05 -5.50367044E-06 -1.64200270E-13  1.11998814E-10