11147676                                                                
Freq      RMP2-FC                                                     6-31G(d)            
Number of atoms                            I               19
Info1-9                                    I   N=           9
          31          29        1002           0           0         100
           6           2           1
Charge                                     I                0
Multiplicity                               I                1
Number of electrons                        I               56
Number of alpha electrons                  I               28
Number of beta electrons                   I               28
Number of basis functions                  I              129
Number of independent functions            I              129
Number of point charges in /Mol/           I                0
Number of translation vectors              I                0
Atomic numbers                             I   N=          19
           8           6           6           6           6           6
           6           1           1           1           1           1
           1           1           1           1           1           1
           1
Nuclear charges                            R   N=          19
  8.00000000E+00  6.00000000E+00  6.00000000E+00  6.00000000E+00  6.00000000E+00
  6.00000000E+00  6.00000000E+00  1.00000000E+00  1.00000000E+00  1.00000000E+00
  1.00000000E+00  1.00000000E+00  1.00000000E+00  1.00000000E+00  1.00000000E+00
  1.00000000E+00  1.00000000E+00  1.00000000E+00  1.00000000E+00
Current cartesian coordinates              R   N=          57
 -4.59846675E+00 -1.99121385E+00 -1.94997659E-01 -2.94780382E+00  1.16697628E-02
  5.97736153E-01 -4.25740530E-01 -5.44793647E-01 -5.49277281E-01  4.29323949E+00
 -1.11579720E+00 -3.72870951E-01  1.73557730E+00 -6.77004843E-01  7.63445136E-01
 -3.96574802E+00  2.56677951E+00 -2.67166647E-01  6.06076069E+00  1.13996951E+00
  3.18133128E-02 -2.76415384E+00  9.72422105E-03  2.67178764E+00 -4.21777008E-01
 -8.19207675E-01 -2.59255424E+00  4.08853940E+00 -1.49738249E+00 -2.39829340E+00
  5.14439696E+00 -2.80843814E+00  4.71557439E-01  1.67588250E+00 -4.14826375E-01
  2.80989321E+00 -2.69986132E+00  4.09428813E+00  3.11897385E-01 -4.14016314E+00
  2.58286454E+00 -2.32601697E+00 -5.83430676E+00  2.93147218E+00  5.50449102E-01
  6.30097092E+00  1.53706131E+00  2.04693539E+00  5.28681790E+00  2.83453897E+00
 -8.62338713E-01  7.93018328E+00  7.77159755E-01 -7.73073531E-01 -6.28050560E+00
 -1.58248221E+00  4.27659627E-01
Force Field                                I                0
Int Atom Types                             I   N=          19
           0           0           0           0           0           0
           0           0           0           0           0           0
           0           0           0           0           0           0
           0
MM charges                                 R   N=          19
  0.00000000E+00  0.00000000E+00  0.00000000E+00  0.00000000E+00  0.00000000E+00
  0.00000000E+00  0.00000000E+00  0.00000000E+00  0.00000000E+00  0.00000000E+00
  0.00000000E+00  0.00000000E+00  0.00000000E+00  0.00000000E+00  0.00000000E+00
  0.00000000E+00  0.00000000E+00  0.00000000E+00  0.00000000E+00
Integer atomic weights                     I   N=          19
          16          12          12          12          12          12
          12           1           1           1           1           1
           1           1           1           1           1           1
           1
Real atomic weights                        R   N=          19
  1.59949146E+01  1.20000000E+01  1.20000000E+01  1.20000000E+01  1.20000000E+01
  1.20000000E+01  1.20000000E+01  1.00782504E+00  1.00782504E+00  1.00782504E+00
  1.00782504E+00  1.00782504E+00  1.00782504E+00  1.00782504E+00  1.00782504E+00
  1.00782504E+00  1.00782504E+00  1.00782504E+00  1.00782504E+00
Atom fragment info                         I   N=          19
           0           0           0           0           0           0
           0           0           0           0           0           0
           0           0           0           0           0           0
           0
Atom residue num                           I   N=          19
           0           0           0           0           0           0
           0           0           0           0           0           0
           0           0           0           0           0           0
           0
Nuclear spins                              I   N=          19
           0           0           0           0           0           0
           0           1           1           1           1           1
           1           1           1           1           1           1
           1
Nuclear ZEff                               R   N=          19
 -5.60000000E+00 -3.60000000E+00 -3.60000000E+00 -3.60000000E+00 -3.60000000E+00
 -3.60000000E+00 -3.60000000E+00 -1.00000000E+00 -1.00000000E+00 -1.00000000E+00
 -1.00000000E+00 -1.00000000E+00 -1.00000000E+00 -1.00000000E+00 -1.00000000E+00
 -1.00000000E+00 -1.00000000E+00 -1.00000000E+00 -1.00000000E+00
Nuclear QMom                               R   N=          19
  0.00000000E+00  0.00000000E+00  0.00000000E+00  0.00000000E+00  0.00000000E+00
  0.00000000E+00  0.00000000E+00  0.00000000E+00  0.00000000E+00  0.00000000E+00
  0.00000000E+00  0.00000000E+00  0.00000000E+00  0.00000000E+00  0.00000000E+00
  0.00000000E+00  0.00000000E+00  0.00000000E+00  0.00000000E+00
Nuclear GFac                               R   N=          19
  0.00000000E+00  0.00000000E+00  0.00000000E+00  0.00000000E+00  0.00000000E+00
  0.00000000E+00  0.00000000E+00  2.79284600E+00  2.79284600E+00  2.79284600E+00
  2.79284600E+00  2.79284600E+00  2.79284600E+00  2.79284600E+00  2.79284600E+00
  2.79284600E+00  2.79284600E+00  2.79284600E+00  2.79284600E+00
MicOpt                                     I   N=          19
          -1          -1          -1          -1          -1          -1
          -1          -1          -1          -1          -1          -1
          -1          -1          -1          -1          -1          -1
          -1
Number of contracted shells                I               52
Number of primitive shells                 I              125
Pure/Cartesian d shells                    I                1
Pure/Cartesian f shells                    I                0
Highest angular momentum                   I                2
Largest degree of contraction              I                6
Shell types                                I   N=          52
           0          -1          -1           2           0          -1
          -1           2           0          -1          -1           2
           0          -1          -1           2           0          -1
          -1           2           0          -1          -1           2
           0          -1          -1           2           0           0
           0           0           0           0           0           0
           0           0           0           0           0           0
           0           0           0           0           0           0
           0           0           0           0
Number of primitives per shell             I   N=          52
           6           3           1           1           6           3
           1           1           6           3           1           1
           6           3           1           1           6           3
           1           1           6           3           1           1
           6           3           1           1           3           1
           3           1           3           1           3           1
           3           1           3           1           3           1
           3           1           3           1           3           1
           3           1           3           1
Shell to atom map                          I   N=          52
           1           1           1           1           2           2
           2           2           3           3           3           3
           4           4           4           4           5           5
           5           5           6           6           6           6
           7           7           7           7           8           8
           9           9          10          10          11          11
          12          12          13          13          14          14
          15          15          16          16          17          17
          18          18          19          19
Primitive exponents                        R   N=         125
  5.48467166E+03  8.25234946E+02  1.88046958E+02  5.29645000E+01  1.68975704E+01
  5.79963534E+00  1.55396162E+01  3.59993359E+00  1.01376175E+00  2.70005823E-01
  8.00000000E-01  3.04752488E+03  4.57369518E+02  1.03948685E+02  2.92101553E+01
  9.28666296E+00  3.16392696E+00  7.86827235E+00  1.88128854E+00  5.44249258E-01
  1.68714478E-01  8.00000000E-01  3.04752488E+03  4.57369518E+02  1.03948685E+02
  2.92101553E+01  9.28666296E+00  3.16392696E+00  7.86827235E+00  1.88128854E+00
  5.44249258E-01  1.68714478E-01  8.00000000E-01  3.04752488E+03  4.57369518E+02
  1.03948685E+02  2.92101553E+01  9.28666296E+00  3.16392696E+00  7.86827235E+00
  1.88128854E+00  5.44249258E-01  1.68714478E-01  8.00000000E-01  3.04752488E+03
  4.57369518E+02  1.03948685E+02  2.92101553E+01  9.28666296E+00  3.16392696E+00
  7.86827235E+00  1.88128854E+00  5.44249258E-01  1.68714478E-01  8.00000000E-01
  3.04752488E+03  4.57369518E+02  1.03948685E+02  2.92101553E+01  9.28666296E+00
  3.16392696E+00  7.86827235E+00  1.88128854E+00  5.44249258E-01  1.68714478E-01
  8.00000000E-01  3.04752488E+03  4.57369518E+02  1.03948685E+02  2.92101553E+01
  9.28666296E+00  3.16392696E+00  7.86827235E+00  1.88128854E+00  5.44249258E-01
  1.68714478E-01  8.00000000E-01  1.87311370E+01  2.82539436E+00  6.40121692E-01
  1.61277759E-01  1.87311370E+01  2.82539436E+00  6.40121692E-01  1.61277759E-01
  1.87311370E+01  2.82539436E+00  6.40121692E-01  1.61277759E-01  1.87311370E+01
  2.82539436E+00  6.40121692E-01  1.61277759E-01  1.87311370E+01  2.82539436E+00
  6.40121692E-01  1.61277759E-01  1.87311370E+01  2.82539436E+00  6.40121692E-01
  1.61277759E-01  1.87311370E+01  2.82539436E+00  6.40121692E-01  1.61277759E-01
  1.87311370E+01  2.82539436E+00  6.40121692E-01  1.61277759E-01  1.87311370E+01
  2.82539436E+00  6.40121692E-01  1.61277759E-01  1.87311370E+01  2.82539436E+00
  6.40121692E-01  1.61277759E-01  1.87311370E+01  2.82539436E+00  6.40121692E-01
  1.61277759E-01  1.87311370E+01  2.82539436E+00  6.40121692E-01  1.61277759E-01
Contraction coefficients                   R   N=         125
  1.83107443E-03  1.39501722E-02  6.84450781E-02  2.32714336E-01  4.70192898E-01
  3.58520853E-01 -1.10777550E-01 -1.48026263E-01  1.13076702E+00  1.00000000E+00
  1.00000000E+00  1.83473713E-03  1.40373228E-02  6.88426223E-02  2.32184443E-01
  4.67941348E-01  3.62311985E-01 -1.19332420E-01 -1.60854152E-01  1.14345644E+00
  1.00000000E+00  1.00000000E+00  1.83473713E-03  1.40373228E-02  6.88426223E-02
  2.32184443E-01  4.67941348E-01  3.62311985E-01 -1.19332420E-01 -1.60854152E-01
  1.14345644E+00  1.00000000E+00  1.00000000E+00  1.83473713E-03  1.40373228E-02
  6.88426223E-02  2.32184443E-01  4.67941348E-01  3.62311985E-01 -1.19332420E-01
 -1.60854152E-01  1.14345644E+00  1.00000000E+00  1.00000000E+00  1.83473713E-03
  1.40373228E-02  6.88426223E-02  2.32184443E-01  4.67941348E-01  3.62311985E-01
 -1.19332420E-01 -1.60854152E-01  1.14345644E+00  1.00000000E+00  1.00000000E+00
  1.83473713E-03  1.40373228E-02  6.88426223E-02  2.32184443E-01  4.67941348E-01
  3.62311985E-01 -1.19332420E-01 -1.60854152E-01  1.14345644E+00  1.00000000E+00
  1.00000000E+00  1.83473713E-03  1.40373228E-02  6.88426223E-02  2.32184443E-01
  4.67941348E-01  3.62311985E-01 -1.19332420E-01 -1.60854152E-01  1.14345644E+00
  1.00000000E+00  1.00000000E+00  3.34946043E-02  2.34726953E-01  8.13757326E-01
  1.00000000E+00  3.34946043E-02  2.34726953E-01  8.13757326E-01  1.00000000E+00
  3.34946043E-02  2.34726953E-01  8.13757326E-01  1.00000000E+00  3.34946043E-02
  2.34726953E-01  8.13757326E-01  1.00000000E+00  3.34946043E-02  2.34726953E-01
  8.13757326E-01  1.00000000E+00  3.34946043E-02  2.34726953E-01  8.13757326E-01
  1.00000000E+00  3.34946043E-02  2.34726953E-01  8.13757326E-01  1.00000000E+00
  3.34946043E-02  2.34726953E-01  8.13757326E-01  1.00000000E+00  3.34946043E-02
  2.34726953E-01  8.13757326E-01  1.00000000E+00  3.34946043E-02  2.34726953E-01
  8.13757326E-01  1.00000000E+00  3.34946043E-02  2.34726953E-01  8.13757326E-01
  1.00000000E+00  3.34946043E-02  2.34726953E-01  8.13757326E-01  1.00000000E+00
P(S=P) Contraction coefficients            R   N=         125
  0.00000000E+00  0.00000000E+00  0.00000000E+00  0.00000000E+00  0.00000000E+00
  0.00000000E+00  7.08742682E-02  3.39752839E-01  7.27158577E-01  1.00000000E+00
  0.00000000E+00  0.00000000E+00  0.00000000E+00  0.00000000E+00  0.00000000E+00
  0.00000000E+00  0.00000000E+00  6.89990666E-02  3.16423961E-01  7.44308291E-01
  1.00000000E+00  0.00000000E+00  0.00000000E+00  0.00000000E+00  0.00000000E+00
  0.00000000E+00  0.00000000E+00  0.00000000E+00  6.89990666E-02  3.16423961E-01
  7.44308291E-01  1.00000000E+00  0.00000000E+00  0.00000000E+00  0.00000000E+00
  0.00000000E+00  0.00000000E+00  0.00000000E+00  0.00000000E+00  6.89990666E-02
  3.16423961E-01  7.44308291E-01  1.00000000E+00  0.00000000E+00  0.00000000E+00
  0.00000000E+00  0.00000000E+00  0.00000000E+00  0.00000000E+00  0.00000000E+00
  6.89990666E-02  3.16423961E-01  7.44308291E-01  1.00000000E+00  0.00000000E+00
  0.00000000E+00  0.00000000E+00  0.00000000E+00  0.00000000E+00  0.00000000E+00
  0.00000000E+00  6.89990666E-02  3.16423961E-01  7.44308291E-01  1.00000000E+00
  0.00000000E+00  0.00000000E+00  0.00000000E+00  0.00000000E+00  0.00000000E+00
  0.00000000E+00  0.00000000E+00  6.89990666E-02  3.16423961E-01  7.44308291E-01
  1.00000000E+00  0.00000000E+00  0.00000000E+00  0.00000000E+00  0.00000000E+00
  0.00000000E+00  0.00000000E+00  0.00000000E+00  0.00000000E+00  0.00000000E+00
  0.00000000E+00  0.00000000E+00  0.00000000E+00  0.00000000E+00  0.00000000E+00
  0.00000000E+00  0.00000000E+00  0.00000000E+00  0.00000000E+00  0.00000000E+00
  0.00000000E+00  0.00000000E+00  0.00000000E+00  0.00000000E+00  0.00000000E+00
  0.00000000E+00  0.00000000E+00  0.00000000E+00  0.00000000E+00  0.00000000E+00
  0.00000000E+00  0.00000000E+00  0.00000000E+00  0.00000000E+00  0.00000000E+00
  0.00000000E+00  0.00000000E+00  0.00000000E+00  0.00000000E+00  0.00000000E+00
  0.00000000E+00  0.00000000E+00  0.00000000E+00  0.00000000E+00  0.00000000E+00
  0.00000000E+00  0.00000000E+00  0.00000000E+00  0.00000000E+00  0.00000000E+00
Coordinates of each shell                  R   N=         156
 -4.59846675E+00 -1.99121385E+00 -1.94997659E-01 -4.59846675E+00 -1.99121385E+00
 -1.94997659E-01 -4.59846675E+00 -1.99121385E+00 -1.94997659E-01 -4.59846675E+00
 -1.99121385E+00 -1.94997659E-01 -2.94780382E+00  1.16697628E-02  5.97736153E-01
 -2.94780382E+00  1.16697628E-02  5.97736153E-01 -2.94780382E+00  1.16697628E-02
  5.97736153E-01 -2.94780382E+00  1.16697628E-02  5.97736153E-01 -4.25740530E-01
 -5.44793647E-01 -5.49277281E-01 -4.25740530E-01 -5.44793647E-01 -5.49277281E-01
 -4.25740530E-01 -5.44793647E-01 -5.49277281E-01 -4.25740530E-01 -5.44793647E-01
 -5.49277281E-01  4.29323949E+00 -1.11579720E+00 -3.72870951E-01  4.29323949E+00
 -1.11579720E+00 -3.72870951E-01  4.29323949E+00 -1.11579720E+00 -3.72870951E-01
  4.29323949E+00 -1.11579720E+00 -3.72870951E-01  1.73557730E+00 -6.77004843E-01
  7.63445136E-01  1.73557730E+00 -6.77004843E-01  7.63445136E-01  1.73557730E+00
 -6.77004843E-01  7.63445136E-01  1.73557730E+00 -6.77004843E-01  7.63445136E-01
 -3.96574802E+00  2.56677951E+00 -2.67166647E-01 -3.96574802E+00  2.56677951E+00
 -2.67166647E-01 -3.96574802E+00  2.56677951E+00 -2.67166647E-01 -3.96574802E+00
  2.56677951E+00 -2.67166647E-01  6.06076069E+00  1.13996951E+00  3.18133128E-02
  6.06076069E+00  1.13996951E+00  3.18133128E-02  6.06076069E+00  1.13996951E+00
  3.18133128E-02  6.06076069E+00  1.13996951E+00  3.18133128E-02 -2.76415384E+00
  9.72422105E-03  2.67178764E+00 -2.76415384E+00  9.72422105E-03  2.67178764E+00
 -4.21777008E-01 -8.19207675E-01 -2.59255424E+00 -4.21777008E-01 -8.19207675E-01
 -2.59255424E+00  4.08853940E+00 -1.49738249E+00 -2.39829340E+00  4.08853940E+00
 -1.49738249E+00 -2.39829340E+00  5.14439696E+00 -2.80843814E+00  4.71557439E-01
  5.14439696E+00 -2.80843814E+00  4.71557439E-01  1.67588250E+00 -4.14826375E-01
  2.80989321E+00  1.67588250E+00 -4.14826375E-01  2.80989321E+00 -2.69986132E+00
  4.09428813E+00  3.11897385E-01 -2.69986132E+00  4.09428813E+00  3.11897385E-01
 -4.14016314E+00  2.58286454E+00 -2.32601697E+00 -4.14016314E+00  2.58286454E+00
 -2.32601697E+00 -5.83430676E+00  2.93147218E+00  5.50449102E-01 -5.83430676E+00
  2.93147218E+00  5.50449102E-01  6.30097092E+00  1.53706131E+00  2.04693539E+00
  6.30097092E+00  1.53706131E+00  2.04693539E+00  5.28681790E+00  2.83453897E+00
 -8.62338713E-01  5.28681790E+00  2.83453897E+00 -8.62338713E-01  7.93018328E+00
  7.77159755E-01 -7.73073531E-01  7.93018328E+00  7.77159755E-01 -7.73073531E-01
 -6.28050560E+00 -1.58248221E+00  4.27659627E-01 -6.28050560E+00 -1.58248221E+00
  4.27659627E-01
Constraint Structure                       R   N=          57
 -4.59846675E+00 -1.99121385E+00 -1.94997659E-01 -2.94780382E+00  1.16697628E-02
  5.97736153E-01 -4.25740530E-01 -5.44793647E-01 -5.49277281E-01  4.29323949E+00
 -1.11579720E+00 -3.72870951E-01  1.73557730E+00 -6.77004843E-01  7.63445136E-01
 -3.96574802E+00  2.56677951E+00 -2.67166647E-01  6.06076069E+00  1.13996951E+00
  3.18133128E-02 -2.76415384E+00  9.72422105E-03  2.67178764E+00 -4.21777008E-01
 -8.19207675E-01 -2.59255424E+00  4.08853940E+00 -1.49738249E+00 -2.39829340E+00
  5.14439696E+00 -2.80843814E+00  4.71557439E-01  1.67588250E+00 -4.14826375E-01
  2.80989321E+00 -2.69986132E+00  4.09428813E+00  3.11897385E-01 -4.14016314E+00
  2.58286454E+00 -2.32601697E+00 -5.83430676E+00  2.93147218E+00  5.50449102E-01
  6.30097092E+00  1.53706131E+00  2.04693539E+00  5.28681790E+00  2.83453897E+00
 -8.62338713E-01  7.93018328E+00  7.77159755E-01 -7.73073531E-01 -6.28050560E+00
 -1.58248221E+00  4.27659627E-01
Num ILSW                                   I              100
ILSW                                       I   N=         100
           0           1           0           0           2           0
           0           0           0           0           0          -1
           0           0           0           0           0           0
           0           0           0           0           1           0
           1           0           0           0           0           0
           0           0      100000           0          -1           0
           0           0           0           0           0           0
           0           0           0           1           1           0
           0           0           1           0           0           0
           0           0           4          40           0           0
           0           0           0           0           0           0
           0           0           0           0           0           0
           0           0           0           0           0           0
           0           0           0           0           0           0
           0           0           0           0           0           0
           0           0           0           0           0           0
           0           0           0           0
Num RLSW                                   I               40
RLSW                                       R   N=          40
  1.00000000E+00  1.00000000E+00  1.00000000E+00  1.00000000E+00  1.00000000E+00
  0.00000000E+00  0.00000000E+00  1.00000000E+00  0.00000000E+00  0.00000000E+00
  0.00000000E+00  0.00000000E+00  1.00000000E+00  0.00000000E+00  0.00000000E+00
  0.00000000E+00  0.00000000E+00  1.00000000E+00  0.00000000E+00  0.00000000E+00
  0.00000000E+00  0.00000000E+00  1.00000000E+00  0.00000000E+00  0.00000000E+00
  0.00000000E+00  0.00000000E+00  1.00000000E+00  0.00000000E+00  0.00000000E+00
  0.00000000E+00  0.00000000E+00  0.00000000E+00  0.00000000E+00  0.00000000E+00
  0.00000000E+00  0.00000000E+00  0.00000000E+00  1.00000000E+00  1.00000000E+00
MxBond                                     I                4
NBond                                      I   N=          19
           2           4           3           4           3           4
           4           1           1           1           1           1
           1           1           1           1           1           1
           1
IBond                                      I   N=          76
           2          19           0           0           1           3
           6           8           2           5           9           0
           5           7          10          11           3           4
          12           0           2          13          14          15
           4          16          17          18           2           0
           0           0           3           0           0           0
           4           0           0           0           4           0
           0           0           5           0           0           0
           6           0           0           0           6           0
           0           0           6           0           0           0
           7           0           0           0           7           0
           0           0           7           0           0           0
           1           0           0           0
RBond                                      R   N=          76
  1.00000000E+00  1.00000000E+00  0.00000000E+00  0.00000000E+00  1.00000000E+00
  1.00000000E+00  1.00000000E+00  1.00000000E+00  1.00000000E+00  2.00000000E+00
  1.00000000E+00  0.00000000E+00  1.00000000E+00  1.00000000E+00  1.00000000E+00
  1.00000000E+00  2.00000000E+00  1.00000000E+00  1.00000000E+00  0.00000000E+00
  1.00000000E+00  1.00000000E+00  1.00000000E+00  1.00000000E+00  1.00000000E+00
  1.00000000E+00  1.00000000E+00  1.00000000E+00  1.00000000E+00  0.00000000E+00
  0.00000000E+00  0.00000000E+00  1.00000000E+00  0.00000000E+00  0.00000000E+00
  0.00000000E+00  1.00000000E+00  0.00000000E+00  0.00000000E+00  0.00000000E+00
  1.00000000E+00  0.00000000E+00  0.00000000E+00  0.00000000E+00  1.00000000E+00
  0.00000000E+00  0.00000000E+00  0.00000000E+00  1.00000000E+00  0.00000000E+00
  0.00000000E+00  0.00000000E+00  1.00000000E+00  0.00000000E+00  0.00000000E+00
  0.00000000E+00  1.00000000E+00  0.00000000E+00  0.00000000E+00  0.00000000E+00
  1.00000000E+00  0.00000000E+00  0.00000000E+00  0.00000000E+00  1.00000000E+00
  0.00000000E+00  0.00000000E+00  0.00000000E+00  1.00000000E+00  0.00000000E+00
  0.00000000E+00  0.00000000E+00  1.00000000E+00  0.00000000E+00  0.00000000E+00
  0.00000000E+00
Virial Ratio                               R      2.001783285047911E+00
SCF Energy                                 R     -3.090265243484329E+02
MP2 Energy                                 R     -3.099846024782391E+02
Total Energy                               R     -3.099846024782391E+02
Post-SCF wavefunction norm                 R      1.621728950745295E+00
RMS Force                                  R      4.266705043486612E-07
RMS Density                                R      1.894711619594560E-09
External E-field                           R   N=          35
  0.00000000E+00  0.00000000E+00  0.00000000E+00  0.00000000E+00  0.00000000E+00
  0.00000000E+00  0.00000000E+00  0.00000000E+00  0.00000000E+00  0.00000000E+00
  0.00000000E+00  0.00000000E+00  0.00000000E+00  0.00000000E+00  0.00000000E+00
  0.00000000E+00  0.00000000E+00  0.00000000E+00  0.00000000E+00  0.00000000E+00
  0.00000000E+00  0.00000000E+00  0.00000000E+00  0.00000000E+00  0.00000000E+00
  0.00000000E+00  0.00000000E+00  0.00000000E+00  0.00000000E+00  0.00000000E+00
  0.00000000E+00  0.00000000E+00  0.00000000E+00  0.00000000E+00  0.00000000E+00
IOpCl                                      I                0
IROHF                                      I                0
Alpha Orbital Energies                     R   N=         129
 -2.05553606E+01 -1.12815692E+01 -1.12274701E+01 -1.12242231E+01 -1.12205713E+01
 -1.12194434E+01 -1.12156054E+01 -1.34763382E+00 -1.08669398E+00 -1.03143762E+00
 -9.69206173E-01 -8.73787072E-01 -8.07931023E-01 -7.52251608E-01 -6.77236213E-01
 -6.30087662E-01 -6.20764250E-01 -5.96143031E-01 -5.87050110E-01 -5.40808496E-01
 -5.38298678E-01 -5.28342316E-01 -5.14071822E-01 -4.98192625E-01 -4.80593965E-01
 -4.59669408E-01 -4.37499647E-01 -3.44988387E-01  1.78856933E-01  2.22978528E-01
  2.50978772E-01  2.56877646E-01  2.88152122E-01  2.96893203E-01  3.07504025E-01
  3.19230216E-01  3.21194515E-01  3.34218483E-01  3.34818996E-01  3.47315025E-01
  3.50488884E-01  3.99774918E-01  4.16478424E-01  4.25489025E-01  4.62482089E-01
  5.04339060E-01  6.02850552E-01  7.10710991E-01  7.22553034E-01  7.27246892E-01
  7.49453844E-01  7.74738112E-01  7.84179907E-01  8.08457317E-01  8.32760244E-01
  8.43608517E-01  9.04750435E-01  9.16369666E-01  9.40281533E-01  9.81517113E-01
  1.01035942E+00  1.04068687E+00  1.06808032E+00  1.08565177E+00  1.10610166E+00
  1.12710299E+00  1.13486729E+00  1.14291956E+00  1.16282275E+00  1.16875538E+00
  1.17472092E+00  1.20135163E+00  1.21807691E+00  1.22412753E+00  1.23062914E+00
  1.24781435E+00  1.26227689E+00  1.28166297E+00  1.32262187E+00  1.33016548E+00
  1.37733301E+00  1.50680665E+00  1.51795809E+00  1.58360645E+00  1.65889938E+00
  1.69350383E+00  1.73170710E+00  1.78667982E+00  1.86501542E+00  1.89002048E+00
  1.91997257E+00  2.00506093E+00  2.03462391E+00  2.06999702E+00  2.11639909E+00
  2.16197348E+00  2.17433172E+00  2.24457607E+00  2.26930191E+00  2.29462668E+00
  2.31316718E+00  2.35935765E+00  2.38600325E+00  2.41898382E+00  2.48815860E+00
  2.52543108E+00  2.55823261E+00  2.57273843E+00  2.60185232E+00  2.63332029E+00
  2.67864759E+00  2.71038278E+00  2.78806161E+00  2.83560144E+00  2.88121266E+00
  2.88896160E+00  2.94523942E+00  2.97867674E+00  3.10818890E+00  3.20759770E+00
  3.24610604E+00  3.35670746E+00  4.16454575E+00  4.56538726E+00  4.63391876E+00
  4.67321241E+00  4.83532034E+00  4.89125901E+00  4.95490061E+00
Alpha MO coefficients                      R   N=       16641
  9.94670761E-01  2.11791630E-02 -4.17006243E-04  1.01204202E-03  6.82592681E-04
  3.62669441E-03  1.93581346E-04 -5.94504300E-04 -3.60090045E-04 -4.13248319E-03
 -4.03936443E-03 -3.88681017E-03 -1.03172970E-04  2.54796413E-05 -1.18932478E-04
 -3.66180337E-05  1.20963326E-04 -1.80469554E-04 -2.75897953E-04 -1.02906477E-04
  7.19147558E-04 -2.25372552E-04  1.39659177E-04 -1.37901112E-04  7.91223922E-06
  2.06320000E-05 -6.47331682E-05  6.69212316E-05  2.93425651E-05  3.25830799E-05
  8.69420824E-06  7.72101285E-05 -1.55985460E-05 -2.16716193E-05 -1.30391430E-05
 -5.08875385E-05  4.57040395E-04  9.65512336E-05  1.34743781E-04 -4.82333103E-05
  7.01615248E-06  8.97204353E-07 -2.34367476E-05  1.55726471E-05  2.16819991E-06
  1.19406442E-06  1.21131385E-06 -1.14478169E-05  3.49799554E-06  3.01935664E-06
  5.48314007E-05 -2.58594915E-05 -8.60491408E-06 -9.94960849E-06  6.02445373E-06
  4.53811944E-06  9.94118224E-07 -3.04454448E-06 -1.64612131E-06  8.50509216E-07
  2.49794974E-06  1.10102079E-05  1.59949185E-05  1.06703018E-05 -6.85747640E-06
 -3.48511843E-04  1.58457339E-05 -5.77756370E-05  1.57252713E-04  3.56555545E-06
  4.51805368E-06  5.93354942E-06  6.71281174E-06  3.74413171E-06  2.93350313E-06
  1.70793813E-07  4.96240500E-05  3.60422366E-06  5.75152329E-05  2.07795163E-06
 -3.08744373E-04 -1.64077416E-05  1.44544106E-04 -9.54190051E-05 -7.98064184E-06
 -7.18620660E-05 -1.83560528E-05 -1.01734558E-05  1.99126090E-06  4.81735492E-06
 -2.89271518E-06 -1.07670080E-05  5.99135427E-06 -1.01518853E-07 -1.73394471E-06
  5.37214403E-05 -3.81963002E-05  2.00256629E-06  1.27290832E-05 -3.17316314E-06
 -5.66597374E-06 -5.92511118E-06  8.57628801E-07  8.79439313E-07 -1.03314995E-06
 -3.77976017E-05 -4.97031923E-05  5.39720492E-05  2.40887457E-05  8.75751716E-07
 -2.15217969E-05 -4.80679370E-08 -9.84309160E-06 -8.64155510E-06 -1.70233347E-05
  1.85706410E-05  1.52453433E-06  1.27037008E-05 -5.38006123E-05  4.44868245E-06
  4.25965577E-05 -4.12468545E-06 -1.33311530E-05 -4.05991961E-06 -1.34703587E-05
  2.89927813E-07  1.73135717E-05  4.28074903E-04 -2.11113667E-04 -2.06741075E-04
 -1.81454602E-04  6.13483164E-05  8.45396768E-05  4.92316950E-05  3.52082012E-03
  4.01369258E-04  5.78163115E-04 -2.44373940E-05 -4.98669340E-04 -5.39526104E-04
 -2.04262657E-04 -3.66432963E-04 -1.75160531E-04 -2.43609717E-04  9.96046741E-01
  2.79889018E-02 -3.76986553E-04 -4.00332838E-04 -4.30534622E-04 -1.95970481E-02
 -7.32432302E-04 -5.69794414E-04  2.28538452E-03 -1.23461621E-03 -1.22673660E-03
 -1.16542243E-03  4.54505203E-05  1.98387382E-05  2.41547111E-05  5.56549366E-03
  2.13478553E-04 -4.20321825E-05  5.92061513E-05 -1.75742466E-06  4.16283633E-03
 -3.70019513E-03  5.86753436E-04  5.52706973E-04 -3.21034314E-04 -1.37812792E-04
 -1.20684018E-04  1.03378991E-05  1.17378790E-04  9.05904965E-06 -3.01402248E-05
 -1.34607380E-04  4.21581141E-05 -5.63034704E-06 -9.93783568E-06  6.57451548E-04
 -3.79848617E-04  1.07229922E-04  2.26432413E-04 -9.90106554E-06 -6.80322908E-05
 -3.51105825E-05 -1.00988160E-05 -1.32847901E-05  9.26321274E-06 -8.01124993E-05
 -1.78171355E-04  6.81822457E-05 -3.35076201E-05 -3.12590518E-05  1.13723144E-03