4650                                                                    
Freq      RMP2-FC                                                     6-31G(d)            
Number of atoms                            I               12
Info1-9                                    I   N=           9
          24          22        1002           0           0         100
           6           2           1
Charge                                     I                0
Multiplicity                               I                1
Number of electrons                        I               56
Number of alpha electrons                  I               28
Number of beta electrons                   I               28
Number of basis functions                  I              128
Number of independent functions            I              128
Number of point charges in /Mol/           I                0
Number of translation vectors              I                0
Atomic numbers                             I   N=          12
           8           8           6           6           6           6
           6           6           1           1           1           1
Nuclear charges                            R   N=          12
  8.00000000E+00  8.00000000E+00  6.00000000E+00  6.00000000E+00  6.00000000E+00
  6.00000000E+00  6.00000000E+00  6.00000000E+00  1.00000000E+00  1.00000000E+00
  1.00000000E+00  1.00000000E+00
Current cartesian coordinates              R   N=          36
 -5.06172359E+00  8.63982188E-07 -2.77383132E-05  5.06172360E+00 -9.24520944E-07
 -9.74582147E-05 -2.72303205E+00 -6.64979789E-07  2.10640301E-05  2.72303232E+00
  6.48643677E-07 -3.21951729E-05  1.27479842E+00 -2.39359275E+00  5.83079328E-06
 -1.27479943E+00 -2.39359454E+00  8.31403327E-05  1.27479937E+00  2.39359445E+00
 -1.13791445E-05 -1.27479850E+00  2.39359292E+00  6.59497518E-05  2.37996179E+00
 -4.12513493E+00  1.15542159E-05  2.37995955E+00  4.12513848E+00 -1.80639812E-05
 -2.37996001E+00 -4.12513826E+00  1.21670378E-04 -2.37996221E+00  4.12513479E+00
  9.19480681E-05
Force Field                                I                0
Int Atom Types                             I   N=          12
           0           0           0           0           0           0
           0           0           0           0           0           0
MM charges                                 R   N=          12
  0.00000000E+00  0.00000000E+00  0.00000000E+00  0.00000000E+00  0.00000000E+00
  0.00000000E+00  0.00000000E+00  0.00000000E+00  0.00000000E+00  0.00000000E+00
  0.00000000E+00  0.00000000E+00
Integer atomic weights                     I   N=          12
          16          16          12          12          12          12
          12          12           1           1           1           1
Real atomic weights                        R   N=          12
  1.59949146E+01  1.59949146E+01  1.20000000E+01  1.20000000E+01  1.20000000E+01
  1.20000000E+01  1.20000000E+01  1.20000000E+01  1.00782504E+00  1.00782504E+00
  1.00782504E+00  1.00782504E+00
Atom fragment info                         I   N=          12
           0           0           0           0           0           0
           0           0           0           0           0           0
Atom residue num                           I   N=          12
           0           0           0           0           0           0
           0           0           0           0           0           0
Nuclear spins                              I   N=          12
           0           0           0           0           0           0
           0           0           1           1           1           1
Nuclear ZEff                               R   N=          12
 -5.60000000E+00 -5.60000000E+00 -3.60000000E+00 -3.60000000E+00 -3.60000000E+00
 -3.60000000E+00 -3.60000000E+00 -3.60000000E+00 -1.00000000E+00 -1.00000000E+00
 -1.00000000E+00 -1.00000000E+00
Nuclear QMom                               R   N=          12
  0.00000000E+00  0.00000000E+00  0.00000000E+00  0.00000000E+00  0.00000000E+00
  0.00000000E+00  0.00000000E+00  0.00000000E+00  0.00000000E+00  0.00000000E+00
  0.00000000E+00  0.00000000E+00
Nuclear GFac                               R   N=          12
  0.00000000E+00  0.00000000E+00  0.00000000E+00  0.00000000E+00  0.00000000E+00
  0.00000000E+00  0.00000000E+00  0.00000000E+00  2.79284600E+00  2.79284600E+00
  2.79284600E+00  2.79284600E+00
MicOpt                                     I   N=          12
          -1          -1          -1          -1          -1          -1
          -1          -1          -1          -1          -1          -1
Number of contracted shells                I               40
Number of primitive shells                 I              104
Pure/Cartesian d shells                    I                1
Pure/Cartesian f shells                    I                0
Highest angular momentum                   I                2
Largest degree of contraction              I                6
Shell types                                I   N=          40
           0          -1          -1           2           0          -1
          -1           2           0          -1          -1           2
           0          -1          -1           2           0          -1
          -1           2           0          -1          -1           2
           0          -1          -1           2           0          -1
          -1           2           0           0           0           0
           0           0           0           0
Number of primitives per shell             I   N=          40
           6           3           1           1           6           3
           1           1           6           3           1           1
           6           3           1           1           6           3
           1           1           6           3           1           1
           6           3           1           1           6           3
           1           1           3           1           3           1
           3           1           3           1
Shell to atom map                          I   N=          40
           1           1           1           1           2           2
           2           2           3           3           3           3
           4           4           4           4           5           5
           5           5           6           6           6           6
           7           7           7           7           8           8
           8           8           9           9          10          10
          11          11          12          12
Primitive exponents                        R   N=         104
  5.48467166E+03  8.25234946E+02  1.88046958E+02  5.29645000E+01  1.68975704E+01
  5.79963534E+00  1.55396162E+01  3.59993359E+00  1.01376175E+00  2.70005823E-01
  8.00000000E-01  5.48467166E+03  8.25234946E+02  1.88046958E+02  5.29645000E+01
  1.68975704E+01  5.79963534E+00  1.55396162E+01  3.59993359E+00  1.01376175E+00
  2.70005823E-01  8.00000000E-01  3.04752488E+03  4.57369518E+02  1.03948685E+02
  2.92101553E+01  9.28666296E+00  3.16392696E+00  7.86827235E+00  1.88128854E+00
  5.44249258E-01  1.68714478E-01  8.00000000E-01  3.04752488E+03  4.57369518E+02
  1.03948685E+02  2.92101553E+01  9.28666296E+00  3.16392696E+00  7.86827235E+00
  1.88128854E+00  5.44249258E-01  1.68714478E-01  8.00000000E-01  3.04752488E+03
  4.57369518E+02  1.03948685E+02  2.92101553E+01  9.28666296E+00  3.16392696E+00
  7.86827235E+00  1.88128854E+00  5.44249258E-01  1.68714478E-01  8.00000000E-01
  3.04752488E+03  4.57369518E+02  1.03948685E+02  2.92101553E+01  9.28666296E+00
  3.16392696E+00  7.86827235E+00  1.88128854E+00  5.44249258E-01  1.68714478E-01
  8.00000000E-01  3.04752488E+03  4.57369518E+02  1.03948685E+02  2.92101553E+01
  9.28666296E+00  3.16392696E+00  7.86827235E+00  1.88128854E+00  5.44249258E-01
  1.68714478E-01  8.00000000E-01  3.04752488E+03  4.57369518E+02  1.03948685E+02
  2.92101553E+01  9.28666296E+00  3.16392696E+00  7.86827235E+00  1.88128854E+00
  5.44249258E-01  1.68714478E-01  8.00000000E-01  1.87311370E+01  2.82539436E+00
  6.40121692E-01  1.61277759E-01  1.87311370E+01  2.82539436E+00  6.40121692E-01
  1.61277759E-01  1.87311370E+01  2.82539436E+00  6.40121692E-01  1.61277759E-01
  1.87311370E+01  2.82539436E+00  6.40121692E-01  1.61277759E-01
Contraction coefficients                   R   N=         104
  1.83107443E-03  1.39501722E-02  6.84450781E-02  2.32714336E-01  4.70192898E-01
  3.58520853E-01 -1.10777550E-01 -1.48026263E-01  1.13076702E+00  1.00000000E+00
  1.00000000E+00  1.83107443E-03  1.39501722E-02  6.84450781E-02  2.32714336E-01
  4.70192898E-01  3.58520853E-01 -1.10777550E-01 -1.48026263E-01  1.13076702E+00
  1.00000000E+00  1.00000000E+00  1.83473713E-03  1.40373228E-02  6.88426223E-02
  2.32184443E-01  4.67941348E-01  3.62311985E-01 -1.19332420E-01 -1.60854152E-01
  1.14345644E+00  1.00000000E+00  1.00000000E+00  1.83473713E-03  1.40373228E-02
  6.88426223E-02  2.32184443E-01  4.67941348E-01  3.62311985E-01 -1.19332420E-01
 -1.60854152E-01  1.14345644E+00  1.00000000E+00  1.00000000E+00  1.83473713E-03
  1.40373228E-02  6.88426223E-02  2.32184443E-01  4.67941348E-01  3.62311985E-01
 -1.19332420E-01 -1.60854152E-01  1.14345644E+00  1.00000000E+00  1.00000000E+00
  1.83473713E-03  1.40373228E-02  6.88426223E-02  2.32184443E-01  4.67941348E-01
  3.62311985E-01 -1.19332420E-01 -1.60854152E-01  1.14345644E+00  1.00000000E+00
  1.00000000E+00  1.83473713E-03  1.40373228E-02  6.88426223E-02  2.32184443E-01
  4.67941348E-01  3.62311985E-01 -1.19332420E-01 -1.60854152E-01  1.14345644E+00
  1.00000000E+00  1.00000000E+00  1.83473713E-03  1.40373228E-02  6.88426223E-02
  2.32184443E-01  4.67941348E-01  3.62311985E-01 -1.19332420E-01 -1.60854152E-01
  1.14345644E+00  1.00000000E+00  1.00000000E+00  3.34946043E-02  2.34726953E-01
  8.13757326E-01  1.00000000E+00  3.34946043E-02  2.34726953E-01  8.13757326E-01
  1.00000000E+00  3.34946043E-02  2.34726953E-01  8.13757326E-01  1.00000000E+00
  3.34946043E-02  2.34726953E-01  8.13757326E-01  1.00000000E+00
P(S=P) Contraction coefficients            R   N=         104
  0.00000000E+00  0.00000000E+00  0.00000000E+00  0.00000000E+00  0.00000000E+00
  0.00000000E+00  7.08742682E-02  3.39752839E-01  7.27158577E-01  1.00000000E+00
  0.00000000E+00  0.00000000E+00  0.00000000E+00  0.00000000E+00  0.00000000E+00
  0.00000000E+00  0.00000000E+00  7.08742682E-02  3.39752839E-01  7.27158577E-01
  1.00000000E+00  0.00000000E+00  0.00000000E+00  0.00000000E+00  0.00000000E+00
  0.00000000E+00  0.00000000E+00  0.00000000E+00  6.89990666E-02  3.16423961E-01
  7.44308291E-01  1.00000000E+00  0.00000000E+00  0.00000000E+00  0.00000000E+00
  0.00000000E+00  0.00000000E+00  0.00000000E+00  0.00000000E+00  6.89990666E-02
  3.16423961E-01  7.44308291E-01  1.00000000E+00  0.00000000E+00  0.00000000E+00
  0.00000000E+00  0.00000000E+00  0.00000000E+00  0.00000000E+00  0.00000000E+00
  6.89990666E-02  3.16423961E-01  7.44308291E-01  1.00000000E+00  0.00000000E+00
  0.00000000E+00  0.00000000E+00  0.00000000E+00  0.00000000E+00  0.00000000E+00
  0.00000000E+00  6.89990666E-02  3.16423961E-01  7.44308291E-01  1.00000000E+00
  0.00000000E+00  0.00000000E+00  0.00000000E+00  0.00000000E+00  0.00000000E+00
  0.00000000E+00  0.00000000E+00  6.89990666E-02  3.16423961E-01  7.44308291E-01
  1.00000000E+00  0.00000000E+00  0.00000000E+00  0.00000000E+00  0.00000000E+00
  0.00000000E+00  0.00000000E+00  0.00000000E+00  6.89990666E-02  3.16423961E-01
  7.44308291E-01  1.00000000E+00  0.00000000E+00  0.00000000E+00  0.00000000E+00
  0.00000000E+00  0.00000000E+00  0.00000000E+00  0.00000000E+00  0.00000000E+00
  0.00000000E+00  0.00000000E+00  0.00000000E+00  0.00000000E+00  0.00000000E+00
  0.00000000E+00  0.00000000E+00  0.00000000E+00  0.00000000E+00
Coordinates of each shell                  R   N=         120
 -5.06172359E+00  8.63982188E-07 -2.77383132E-05 -5.06172359E+00  8.63982188E-07
 -2.77383132E-05 -5.06172359E+00  8.63982188E-07 -2.77383132E-05 -5.06172359E+00
  8.63982188E-07 -2.77383132E-05  5.06172360E+00 -9.24520944E-07 -9.74582147E-05
  5.06172360E+00 -9.24520944E-07 -9.74582147E-05  5.06172360E+00 -9.24520944E-07
 -9.74582147E-05  5.06172360E+00 -9.24520944E-07 -9.74582147E-05 -2.72303205E+00
 -6.64979789E-07  2.10640301E-05 -2.72303205E+00 -6.64979789E-07  2.10640301E-05
 -2.72303205E+00 -6.64979789E-07  2.10640301E-05 -2.72303205E+00 -6.64979789E-07
  2.10640301E-05  2.72303232E+00  6.48643677E-07 -3.21951729E-05  2.72303232E+00
  6.48643677E-07 -3.21951729E-05  2.72303232E+00  6.48643677E-07 -3.21951729E-05
  2.72303232E+00  6.48643677E-07 -3.21951729E-05  1.27479842E+00 -2.39359275E+00
  5.83079328E-06  1.27479842E+00 -2.39359275E+00  5.83079328E-06  1.27479842E+00
 -2.39359275E+00  5.83079328E-06  1.27479842E+00 -2.39359275E+00  5.83079328E-06
 -1.27479943E+00 -2.39359454E+00  8.31403327E-05 -1.27479943E+00 -2.39359454E+00
  8.31403327E-05 -1.27479943E+00 -2.39359454E+00  8.31403327E-05 -1.27479943E+00
 -2.39359454E+00  8.31403327E-05  1.27479937E+00  2.39359445E+00 -1.13791445E-05
  1.27479937E+00  2.39359445E+00 -1.13791445E-05  1.27479937E+00  2.39359445E+00
 -1.13791445E-05  1.27479937E+00  2.39359445E+00 -1.13791445E-05 -1.27479850E+00
  2.39359292E+00  6.59497518E-05 -1.27479850E+00  2.39359292E+00  6.59497518E-05
 -1.27479850E+00  2.39359292E+00  6.59497518E-05 -1.27479850E+00  2.39359292E+00
  6.59497518E-05  2.37996179E+00 -4.12513493E+00  1.15542159E-05  2.37996179E+00
 -4.12513493E+00  1.15542159E-05  2.37995955E+00  4.12513848E+00 -1.80639812E-05
  2.37995955E+00  4.12513848E+00 -1.80639812E-05 -2.37996001E+00 -4.12513826E+00
  1.21670378E-04 -2.37996001E+00 -4.12513826E+00  1.21670378E-04 -2.37996221E+00
  4.12513479E+00  9.19480681E-05 -2.37996221E+00  4.12513479E+00  9.19480681E-05
Constraint Structure                       R   N=          36
 -5.06172359E+00  8.63982188E-07 -2.77383132E-05  5.06172360E+00 -9.24520944E-07
 -9.74582147E-05 -2.72303205E+00 -6.64979789E-07  2.10640301E-05  2.72303232E+00
  6.48643677E-07 -3.21951729E-05  1.27479842E+00 -2.39359275E+00  5.83079328E-06
 -1.27479943E+00 -2.39359454E+00  8.31403327E-05  1.27479937E+00  2.39359445E+00
 -1.13791445E-05 -1.27479850E+00  2.39359292E+00  6.59497518E-05  2.37996179E+00
 -4.12513493E+00  1.15542159E-05  2.37995955E+00  4.12513848E+00 -1.80639812E-05
 -2.37996001E+00 -4.12513826E+00  1.21670378E-04 -2.37996221E+00  4.12513479E+00
  9.19480681E-05
Num ILSW                                   I              100
ILSW                                       I   N=         100
           0           1           0           1           2           0
           0           0           0           0           0          -1
           0           0           0           0           0           0
           0           0           0           0           1           0
           1           0           0           0           0           0
           0           0      100000           0          -1           0
           0           0           0           0           0           0
           0           0           0           1           1           0
           0           0           1           0           0           0
           0           0           4          40           0           0
           0           0           0           0           0           0
           0           0           0           0           0           0
           0           0           0           0           0           0
           0           0           0           0           0           0
           0           0           0           0           0           0
           0           0           0           0           0           0
           0           0           0           0
Num RLSW                                   I               40
RLSW                                       R   N=          40
  1.00000000E+00  1.00000000E+00  1.00000000E+00  1.00000000E+00  1.00000000E+00
  0.00000000E+00  0.00000000E+00  1.00000000E+00  0.00000000E+00  0.00000000E+00
  0.00000000E+00  0.00000000E+00  1.00000000E+00  0.00000000E+00  0.00000000E+00
  0.00000000E+00  0.00000000E+00  1.00000000E+00  0.00000000E+00  0.00000000E+00
  0.00000000E+00  0.00000000E+00  1.00000000E+00  0.00000000E+00  0.00000000E+00
  0.00000000E+00  0.00000000E+00  1.00000000E+00  0.00000000E+00  0.00000000E+00
  0.00000000E+00  0.00000000E+00  0.00000000E+00  0.00000000E+00  0.00000000E+00
  0.00000000E+00  0.00000000E+00  0.00000000E+00  1.00000000E+00  1.00000000E+00
MxBond                                     I                3
NBond                                      I   N=          12
           1           1           3           3           3           3
           3           3           1           1           1           1
IBond                                      I   N=          36
           3           0           0           4           0           0
           1           6           8           2           5           7
           4           6           9           3           5          11
           4           8          10           3           7          12
           5           0           0           7           0           0
           6           0           0           8           0           0
RBond                                      R   N=          36
  2.00000000E+00  0.00000000E+00  0.00000000E+00  2.00000000E+00  0.00000000E+00
  0.00000000E+00  2.00000000E+00  1.00000000E+00  1.00000000E+00  2.00000000E+00
  1.00000000E+00  1.00000000E+00  1.00000000E+00  2.00000000E+00  1.00000000E+00
  1.00000000E+00  2.00000000E+00  1.00000000E+00  1.00000000E+00  2.00000000E+00
  1.00000000E+00  1.00000000E+00  2.00000000E+00  1.00000000E+00  1.00000000E+00
  0.00000000E+00  0.00000000E+00  1.00000000E+00  0.00000000E+00  0.00000000E+00
  1.00000000E+00  0.00000000E+00  0.00000000E+00  1.00000000E+00  0.00000000E+00
  0.00000000E+00
Virial Ratio                               R      2.002925169767066E+00
SCF Energy                                 R     -3.792272247474846E+02
MP2 Energy                                 R     -3.803260939387343E+02
Total Energy                               R     -3.803260939387343E+02
Post-SCF wavefunction norm                 R      1.659882332963775E+00
RMS Force                                  R      2.611426950113494E-06
RMS Density                                R      8.634504830843486E-10
External E-field                           R   N=          35
  0.00000000E+00  0.00000000E+00  0.00000000E+00  0.00000000E+00  0.00000000E+00
  0.00000000E+00  0.00000000E+00  0.00000000E+00  0.00000000E+00  0.00000000E+00
  0.00000000E+00  0.00000000E+00  0.00000000E+00  0.00000000E+00  0.00000000E+00
  0.00000000E+00  0.00000000E+00  0.00000000E+00  0.00000000E+00  0.00000000E+00
  0.00000000E+00  0.00000000E+00  0.00000000E+00  0.00000000E+00  0.00000000E+00
  0.00000000E+00  0.00000000E+00  0.00000000E+00  0.00000000E+00  0.00000000E+00
  0.00000000E+00  0.00000000E+00  0.00000000E+00  0.00000000E+00  0.00000000E+00
IOpCl                                      I                0
IROHF                                      I                0
Alpha Orbital Energies                     R   N=         128
 -2.05868085E+01 -2.05868081E+01 -1.13648422E+01 -1.13648281E+01 -1.12867053E+01
 -1.12866755E+01 -1.12851524E+01 -1.12851393E+01 -1.40069816E+00 -1.39798098E+00
 -1.15800359E+00 -1.07305620E+00 -9.66946095E-01 -8.71971669E-01 -8.27950558E-01
 -7.09926420E-01 -7.08439688E-01 -6.83201882E-01 -6.39150216E-01 -6.25517825E-01
 -5.96555109E-01 -5.87680930E-01 -5.79557275E-01 -5.42887143E-01 -4.60068261E-01
 -4.42153910E-01 -4.07569761E-01 -4.05171027E-01  3.27837436E-03  1.27816700E-01
  1.87828298E-01  2.27341249E-01  2.60637595E-01  2.84119800E-01  3.20699169E-01
  3.43444913E-01  3.48461561E-01  4.00179049E-01  4.29837372E-01  4.56478985E-01
  5.32336701E-01  5.37801710E-01  6.59746615E-01  6.64710766E-01  6.86839862E-01
  6.95265632E-01  7.08180726E-01  7.42815201E-01  7.77030526E-01  8.01490642E-01
  8.03670064E-01  8.59609731E-01  8.71806011E-01  8.80455108E-01  9.07243465E-01
  9.17626695E-01  9.61353317E-01  9.84988984E-01  1.00754969E+00  1.08544148E+00
  1.08804885E+00  1.08961179E+00  1.10572794E+00  1.12243062E+00  1.13920207E+00
  1.17521899E+00  1.19233695E+00  1.26350859E+00  1.27485736E+00  1.30050953E+00
  1.30514988E+00  1.36123877E+00  1.36350638E+00  1.41652751E+00  1.44521914E+00
  1.48158519E+00  1.51929292E+00  1.62568899E+00  1.66278910E+00  1.66949056E+00
  1.67866368E+00  1.68657498E+00  1.72649050E+00  1.76297085E+00  1.92914762E+00
  1.93983645E+00  2.04514969E+00  2.06476068E+00  2.08078949E+00  2.10131684E+00
  2.13063335E+00  2.14290065E+00  2.16251701E+00  2.18041450E+00  2.19882778E+00
  2.23190924E+00  2.34277176E+00  2.34409902E+00  2.34641883E+00  2.35259803E+00
  2.40688757E+00  2.43183602E+00  2.53110702E+00  2.56179923E+00  2.62634697E+00
  2.62779128E+00  2.78835724E+00  2.88248796E+00  2.89601793E+00  2.91807227E+00
  2.91851883E+00  2.96163142E+00  2.99527125E+00  3.07779815E+00  3.14612876E+00
  3.29366949E+00  3.30208478E+00  3.34907970E+00  3.52634741E+00  3.65302754E+00
  4.31883630E+00  4.32559132E+00  4.48203105E+00  4.50844092E+00  4.69085560E+00
  4.75568814E+00  4.84649396E+00  5.16708138E+00
Alpha MO coefficients                      R   N=       16384
  6.75999913E-01  1.41866493E-02  1.01053174E-03 -6.72983254E-10  1.91452498E-08
  3.06915710E-03 -3.27375132E-05 -2.20523560E-11 -2.45621163E-10 -2.46760515E-03
 -2.61407607E-03 -2.83130955E-03 -8.59613140E-11  1.01925306E-08 -9.00409144E-10
  7.29710768E-01  1.53112224E-02 -1.09092153E-03  7.49039150E-10  3.19440341E-08
  3.33172697E-03  3.09481819E-05  2.02315784E-11 -1.11651190E-09 -2.66472772E-03
 -2.82375595E-03 -3.05797904E-03 -9.47255914E-11 -1.20189634E-08 -9.72666246E-10
 -3.75199592E-06  3.24273561E-04 -1.55830583E-06  2.46472202E-11 -5.24789941E-10
 -6.59933953E-05  4.90469327E-04  1.23109045E-10  1.19862913E-08 -4.87853188E-04
 -3.55654025E-05 -2.89062356E-05  4.14310071E-10 -1.07105305E-08  2.76654303E-11
 -4.78022833E-06  3.46678785E-04  2.21122110E-06 -2.68012086E-11  2.15341982E-10
 -5.42783479E-05 -5.54396529E-04 -6.79664268E-11  1.36366933E-08 -5.28271202E-04
 -3.77196839E-05 -3.27846940E-05  4.58940928E-10  1.60098499E-08  2.04194392E-11
  2.68317905E-06  3.08289286E-05 -3.40615818E-05 -8.04080327E-06  9.58067019E-10
 -1.51197256E-04  4.77966260E-05 -1.37681020E-04  1.87852382E-09 -3.52164918E-05
  1.30902374E-05 -5.68666963E-06 -1.53336040E-05  1.85621072E-10  7.35854755E-10
  2.58884954E-06  2.94177428E-05  3.38751015E-05 -7.62862850E-06  1.09010670E-10
 -1.11381020E-04 -3.38333297E-05 -1.16551176E-04  1.91038194E-10 -3.04891469E-05
  1.16380050E-05 -4.86712615E-06  1.22614696E-05 -9.48813428E-10  4.31095604E-11
  2.68318693E-06  3.08287273E-05 -3.40616188E-05  8.04069305E-06  9.00107867E-10
 -1.51196911E-04  4.77964861E-05  1.37680037E-04  8.90701655E-10 -3.52162452E-05
  1.30905215E-05 -5.68663228E-06  1.53336756E-05  7.50811326E-11 -8.91759757E-10
  2.58884331E-06  2.94179468E-05  3.38750505E-05  7.62873882E-06  5.45302069E-11
 -1.11381420E-04 -3.38334422E-05  1.16552190E-04 -6.49155331E-10 -3.04893889E-05
  1.16377350E-05 -4.86715795E-06 -1.22613863E-05 -8.60980421E-10 -1.80080638E-10
 -1.41446656E-06 -6.54176579E-05 -1.41454729E-06 -6.54170225E-05 -4.24832594E-07
 -5.85294215E-05 -4.24758244E-07 -5.85300363E-05  7.29703368E-01  1.52794464E-02
  1.09210520E-03 -7.33367167E-10  2.08998286E-08  3.55819858E-03  2.21919296E-05
  2.12426625E-11  6.12985615E-10 -2.67755425E-03 -2.84770690E-03 -3.07865415E-03
 -8.75905151E-11  1.11396634E-08 -9.57278315E-10 -6.75991924E-01 -1.41523489E-02
  1.01181014E-03 -7.00223828E-10 -2.92414866E-08 -3.31362537E-03  2.46257336E-05
  2.10873004E-11 -2.10613835E-09  2.48145038E-03  2.63993051E-03  2.85362783E-03
  8.34708563E-11  1.16001002E-08  8.87388620E-10 -1.36180695E-05  3.06009720E-04
 -8.62062513E-06  3.12367378E-11 -2.90824795E-10  1.51007164E-04  8.56488600E-04
 -6.62342163E-10  1.82264089E-08 -5.48307711E-04 -2.95905551E-05 -5.19315226E-05
  4.65480940E-10 -1.13928262E-08 -9.25702017E-11  1.32920655E-05 -2.80372856E-04
 -8.47623618E-06  3.11103482E-11 -5.39831785E-10 -1.55602278E-04  8.16565414E-04
 -6.79699488E-10 -1.90193561E-08  5.09482545E-04  2.67903625E-05  4.95743127E-05
 -4.42831052E-10 -1.53294442E-08  9.45678565E-11 -1.13373601E-06 -1.73128946E-05
  1.14329278E-06  5.09280091E-06  1.87837205E-11  5.15999179E-04 -1.81157082E-04
  2.71628262E-04  6.19883281E-09  6.06020687E-05 -1.85341699E-05  1.05222418E-05
  3.96754107E-05 -2.97203897E-09 -2.38277218E-10  1.33519174E-06  1.96149328E-05
  3.73898902E-06 -5.69151341E-06  1.07382130E-09 -5.26032786E-04 -1.84275814E-04
 -2.81342806E-04  8.77546801E-09 -6.31126596E-05  1.94792135E-05 -1.09254703E-05
  4.07296618E-05  4.63281473E-10  9.60300743E-11 -1.13375338E-06 -1.73129365E-05
  1.14317088E-06 -5.09278395E-06  5.59177062E-11  5.15999944E-04 -1.81156778E-04
 -2.71628789E-04  8.15245583E-09  6.06020831E-05 -1.85343899E-05  1.05222066E-05
 -3.96752597E-05 -2.68760689E-09  4.79096436E-10  1.33517457E-06  1.96149101E-05
  3.73910685E-06  5.69154137E-06  1.03380912E-09 -5.26032018E-04 -1.84276112E-04
  2.81342345E-04  6.75221855E-09 -6.31126535E-05  1.94789671E-05 -1.09255053E-05
 -4.07298037E-05  7.56642202E-10 -3.48874545E-10  1.29157801E-05  8.77615978E-05
  1.29158549E-05  8.77614660E-05 -1.29861268E-05 -9.24974415E-05 -1.29860459E-05
 -9.24976122E-05  2.63555940E-05 -1.10012631E-03 -1.88804414E-04  9.32954283E-11
  1.24587756E-09  6.74167843E-03  2.21413665E-03 -5.38167477E-10  2.21953350E-08
 -2.37875344E-04 -5.70551527E-04 -7.02200827E-04  2.90105588E-11  6.35816328E-09
 -5.46247773E-10 -2.65394353E-05  1.10130563E-03 -1.89124079E-04  9.57530358E-11
  1.22600842E-08 -6.74821096E-03  2.21681679E-03 -5.85557596E-10 -9.56160929E-08
  2.37993911E-04  5.71063795E-04  7.02979821E-04 -1.63962779E-11  2.10513496E-08
  5.47099732E-10 -7.03688310E-01 -1.94655656E-02  1.52007758E-04 -5.98366129E-10
  4.18956159E-09  1.08191191E-02  9.41923993E-03 -1.19292627E-08  2.08559673E-07
  3.13313601E-04  1.01688103E-03  1.40787343E-03  7.89263362E-10 -2.30408283E-08
  1.62261610E-09  7.04844065E-01  1.94967675E-02  1.52405697E-04 -6.26795235E-10
 -1.31327589E-08 -1.08302080E-02  9.42734241E-03 -1.21608898E-08 -1.99552218E-07
 -3.14176251E-04 -1.01865242E-03 -1.41052921E-03 -7.65473374E-10 -3.75703275E-08
 -1.62714939E-09  3.08463923E-03 -1.33291318E-04 -3.69289149E-05 -2.14941224E-05
 -1.00875815E-08  1.07835531E-02 -3.56749755E-03  4.80866847E-03  1.20143589E-07
 -3.19384345E-04 -3.41914372E-04 -1.80930126E-04 -1.93042785E-04 -6.41584733E-09
  2.03017828E-08 -3.07950330E-03  1.33187367E-04 -3.71565565E-05  2.12943836E-05
 -4.12702148E-09 -1.07793082E-02 -3.56649780E-03 -4.80537268E-03  1.75838622E-07
  3.19010383E-04  3.41435789E-04  1.80585173E-04 -1.92755143E-04  2.06924018E-08
  4.27234209E-09  3.08463988E-03 -1.33293255E-04 -3.69287468E-05  2.14942207E-05
 -1.02377037E-08  1.07835663E-02 -3.56749168E-03 -4.80868252E-03  1.54732675E-07
 -3.19383935E-04 -3.41914254E-04 -1.80930583E-04  1.93043150E-04 -7.81060331E-09
 -1.89734187E-08 -3.07950208E-03  1.33185416E-04 -3.71567090E-05 -2.12942499E-05
 -3.96580208E-09 -1.07792945E-02 -3.56650340E-03  4.80535863E-03  1.41298517E-07
  3.19010763E-04  3.41435912E-04  1.80584722E-04  1.92754797E-04  1.93154943E-08
 -5.61787882E-09  1.31665476E-04  1.29412269E-03  1.31665387E-04  1.29412627E-03
 -1.31569492E-04 -1.29293254E-03 -1.31569570E-04 -1.29292899E-03 -1.11991267E-04
  7.19053716E-04  1.94838900E-04 -1.85819495E-10  4.98690045E-09 -3.98269531E-03
 -1.63414263E-03  1.07788447E-09 -2.75366009E-08  7.20300160E-05  3.12400324E-04
  4.75011470E-04  2.28738907E-11 -6.89949568E-09  6.74166139E-10 -1.11947956E-04
  7.17247522E-04 -1.94528871E-04  1.86448098E-10  4.36881558E-09 -3.97162860E-03
  1.63050690E-03 -1.10958146E-09 -5.02408647E-08  7.16401340E-05  3.11463598E-04
  4.73858437E-04  3.43378468E-11  1.51351419E-08  6.74252486E-10  7.04734955E-01
  1.90255173E-02 -2.42439515E-04  2.80051191E-10 -6.74642107E-09 -6.76617212E-03
 -4.94234477E-03  2.81766019E-09 -1.20105970E-07 -5.25940288E-04 -1.07990055E-03
 -1.61924504E-03 -9.42349478E-10  2.92483628E-08 -2.23857194E-09  7.03579021E-01
  1.89935434E-02  2.42189899E-04 -3.17815784E-10 -1.33647730E-09 -6.74841105E-03
  4.92688419E-03 -2.88393311E-09 -1.10400295E-07 -5.25425219E-04 -1.07823043E-03
 -1.61693202E-03 -9.13003526E-10 -3.31538505E-08 -2.23464911E-09  3.12808148E-03
 -6.45655533E-05  1.38825390E-04 -1.21795879E-04  3.97272964E-09  2.58499305E-03
 -6.03260957E-04  2.01306376E-03 -3.41569083E-08 -2.27330612E-04 -2.91214719E-04
 -2.10356037E-04 -1.75362890E-04  2.47542659E-09 -2.94509831E-09  3.13314274E-03
 -6.47822274E-05 -1.38764757E-04 -1.21831261E-04  6.12459809E-09  2.60267394E-03
  6.09105888E-04  2.02094361E-03 -1.94026022E-08 -2.27854454E-04 -2.91776260E-04
 -2.10652104E-04  1.75678721E-04 -1.51628521E-08  8.60771945E-09  3.12808216E-03
 -6.45640983E-05  1.38825577E-04  1.21796139E-04  3.09955819E-09  2.58498607E-03
 -6.03254132E-04 -2.01305875E-03 -1.97100864E-08 -2.27330435E-04 -2.91215400E-04
 -2.10355579E-04  1.75362176E-04  1.21430084E-09  3.61693742E-09  3.13314147E-03
 -6.47836327E-05 -1.38764602E-04  1.21830967E-04  5.24510636E-09  2.60268078E-03
  6.09112678E-04 -2.02094855E-03 -4.84798311E-09 -2.27854634E-04 -2.91775592E-04
 -2.10652565E-04 -1.75679434E-04 -1.39037441E-08 -7.93317667E-09  5.83568217E-05
  7.26759275E-04  5.83566929E-05  7.26756510E-04  5.85724979E-05  7.28877970E-04
  5.85726177E-05  7.28880720E-04 -1.61465516E-10 -2.73538385E-09  6.80797140E-11
 -3.00438667E-05  1.06650093E-10  7.27962906E-09  1.88526452E-09  2.70173325E-05