
    -----------------------------------------------------------------------
          Psi4: An Open-Source Ab Initio Electronic Structure Package
                               Psi4 1.3.2 release

                         Git: Rev {HEAD} ecbda83 


    R. M. Parrish, L. A. Burns, D. G. A. Smith, A. C. Simmonett,
    A. E. DePrince III, E. G. Hohenstein, U. Bozkaya, A. Yu. Sokolov,
    R. Di Remigio, R. M. Richard, J. F. Gonthier, A. M. James,
    H. R. McAlexander, A. Kumar, M. Saitow, X. Wang, B. P. Pritchard,
    P. Verma, H. F. Schaefer III, K. Patkowski, R. A. King, E. F. Valeev,
    F. A. Evangelista, J. M. Turney, T. D. Crawford, and C. D. Sherrill,
    J. Chem. Theory Comput. 13(7) pp 3185--3197 (2017).
    (doi: 10.1021/acs.jctc.7b00174)


                         Additional Contributions by
    P. Kraus, H. Kruse, M. H. Lechner, M. C. Schieber, R. A. Shaw,
    A. Alenaizan, R. Galvelis, Z. L. Glick, S. Lehtola, and J. P. Misiewicz

    -----------------------------------------------------------------------


    Psi4 started on: Thursday, 11 February 2021 10:26AM

    Process ID: 31594
    Host:       node144.bme.utexas.edu
    PSIDATADIR: /home/xy3866/psi4conda/share/psi4
    Memory:     500.0 MiB
    Threads:    8
    
  ==> Input File <==

--------------------------------------------------------------------------
#psi4
#
memory 32 gb

molecule  {
0 1
  F       -2.0746710    -0.0124370    -0.0000860
  N        1.3733650    -0.6503060     0.0000540
  C        0.0797100    -1.1194690     0.0000080
  C       -0.7218460     0.0042460    -0.0000290
  C        0.0790634     1.1640705     0.2500030
  C        1.3909070     0.7202580     0.0000560
  H       -0.1632220    -2.1709030    -0.0000010
  H        2.1947510    -1.2389290     0.0000860
  H       -0.2615160     2.1895410    -0.0000100
  H        2.3214050     1.2697350     0.0000920
units angstrom
no_reorient  #important for SAPT in psi4, default
symmetry c1  #important for SAPT in psi4, default
}

set PROPERTIES_ORIGIN ["COM"]
properties('MP2/aug-cc-pvtz', properties = ['dipole'])
--------------------------------------------------------------------------

  Memory set to  29.802 GiB by Python driver.
    SCF Algorithm Type (re)set to DF.

*** tstart() called on node144.bme.utexas.edu
*** at Thu Feb 11 10:26:50 2021

   => Loading Basis Set <=

    Name: AUG-CC-PVTZ
    Role: ORBITAL
    Keyword: BASIS
    atoms 1    entry F          line   373 file /home/xy3866/psi4conda/share/psi4/basis/aug-cc-pvtz.gbs 
    atoms 2    entry N          line   281 file /home/xy3866/psi4conda/share/psi4/basis/aug-cc-pvtz.gbs 
    atoms 3-6  entry C          line   235 file /home/xy3866/psi4conda/share/psi4/basis/aug-cc-pvtz.gbs 
    atoms 7-10 entry H          line    36 file /home/xy3866/psi4conda/share/psi4/basis/aug-cc-pvtz.gbs 


         ---------------------------------------------------------
                                   SCF
               by Justin Turney, Rob Parrish, Andy Simmonett
                          and Daniel G. A. Smith
                              RHF Reference
                        8 Threads,  30517 MiB Core
         ---------------------------------------------------------

  ==> Geometry <==

    Molecular point group: c1
    Full point group: C1

    Geometry (in Angstrom), charge = 0, multiplicity = 1:

       Center              X                  Y                   Z               Mass       
    ------------   -----------------  -----------------  -----------------  -----------------
         F           -2.002620453434    -0.011690590383    -0.035363533035    18.998403162730
         N            1.445415546566    -0.649559590383    -0.035223533035    14.003074004430
         C            0.151760546566    -1.118722590383    -0.035269533035    12.000000000000
         C           -0.649795453434     0.004992409617    -0.035306533035    12.000000000000
         C            0.151113946566     1.164816909617     0.214725466965    12.000000000000
         C            1.462957546566     0.721004409617    -0.035221533035    12.000000000000
         H           -0.091171453434    -2.170156590383    -0.035278533035     1.007825032230
         H            2.266801546566    -1.238182590383    -0.035191533035     1.007825032230
         H           -0.189465453434     2.190287409617    -0.035287533035     1.007825032230
         H            2.393455546566     1.270481409617    -0.035185533035     1.007825032230

  Running in c1 symmetry.

  Rotational constants: A =      0.29655  B =      0.11377  C =      0.08257 [cm^-1]
  Rotational constants: A =   8890.42026  B =   3410.79337  C =   2475.30769 [MHz]
  Nuclear repulsion =  219.257520700393655

  Charge       = 0
  Multiplicity = 1
  Electrons    = 44
  Nalpha       = 22
  Nbeta        = 22

  ==> Algorithm <==

  SCF Algorithm Type is DF.
  DIIS enabled.
  MOM disabled.
  Fractional occupation disabled.
  Guess Type is SAD.
  Energy threshold   = 1.00e-10
  Density threshold  = 1.00e-10
  Integral threshold = 0.00e+00

  ==> Primary Basis <==

  Basis Set: AUG-CC-PVTZ
    Blend: AUG-CC-PVTZ
    Number of shells: 120
    Number of basis function: 368
    Number of Cartesian functions: 430
    Spherical Harmonics?: true
    Max angular momentum: 3

   => Loading Basis Set <=

    Name: (AUG-CC-PVTZ AUX)
    Role: JKFIT
    Keyword: DF_BASIS_SCF
    atoms 1    entry F          line   348 file /home/xy3866/psi4conda/share/psi4/basis/aug-cc-pvtz-jkfit.gbs 
    atoms 2    entry N          line   224 file /home/xy3866/psi4conda/share/psi4/basis/aug-cc-pvtz-jkfit.gbs 
    atoms 3-6  entry C          line   162 file /home/xy3866/psi4conda/share/psi4/basis/aug-cc-pvtz-jkfit.gbs 
    atoms 7-10 entry H          line    70 file /home/xy3866/psi4conda/share/psi4/basis/aug-cc-pvtz-jkfit.gbs 

  ==> Pre-Iterations <==

   -------------------------------------------------------
    Irrep   Nso     Nmo     Nalpha   Nbeta   Ndocc  Nsocc
   -------------------------------------------------------
     A        368     368       0       0       0       0
   -------------------------------------------------------
    Total     368     368      22      22      22       0
   -------------------------------------------------------

  ==> Integral Setup <==

  DFHelper Memory: AOs need 0.843 GiB; user supplied 22.352 GiB. Using in-core AOs.

  ==> MemDFJK: Density-Fitted J/K Matrices <==

    J tasked:                   Yes
    K tasked:                   Yes
    wK tasked:                   No
    OpenMP threads:               8
    Memory [MiB]:             22888
    Algorithm:                 Core
    Schwarz Cutoff:           1E-12
    Mask sparsity (%):       1.5330
    Fitting Condition:        1E-10

   => Auxiliary Basis Set <=

  Basis Set: (AUG-CC-PVTZ AUX)
    Blend: AUG-CC-PVTZ-JKFIT
    Number of shells: 236
    Number of basis function: 808
    Number of Cartesian functions: 1006
    Spherical Harmonics?: true
    Max angular momentum: 4

  Minimum eigenvalue in the overlap matrix is 1.0521033429E-05.
  Using Symmetric Orthogonalization.

  SCF Guess: Superposition of Atomic Densities via on-the-fly atomic UHF.

  ==> Iterations <==

                           Total Energy        Delta E     RMS |[F,P]|

   @DF-RHF iter SAD:  -307.30712921268707   -3.07307e+02   0.00000e+00 
   @DF-RHF iter   1:  -307.61048293022895   -3.03354e-01   1.38832e-03 DIIS
   @DF-RHF iter   2:  -307.72511935312463   -1.14636e-01   6.44228e-04 DIIS
   @DF-RHF iter   3:  -307.74999946860368   -2.48801e-02   1.17248e-04 DIIS
   @DF-RHF iter   4:  -307.75139618663093   -1.39672e-03   4.28528e-05 DIIS
   @DF-RHF iter   5:  -307.75151955340027   -1.23367e-04   1.16923e-05 DIIS
   @DF-RHF iter   6:  -307.75153932995011   -1.97765e-05   4.15858e-06 DIIS
   @DF-RHF iter   7:  -307.75154389474403   -4.56479e-06   2.06834e-06 DIIS
   @DF-RHF iter   8:  -307.75154489116153   -9.96417e-07   7.64682e-07 DIIS
   @DF-RHF iter   9:  -307.75154506840636   -1.77245e-07   2.50495e-07 DIIS
   @DF-RHF iter  10:  -307.75154507962696   -1.12206e-08   8.56822e-08 DIIS
   @DF-RHF iter  11:  -307.75154508093374   -1.30677e-09   2.62620e-08 DIIS
   @DF-RHF iter  12:  -307.75154508106317   -1.29432e-10   7.61397e-09 DIIS
   @DF-RHF iter  13:  -307.75154508107221   -9.03810e-12   2.43943e-09 DIIS
   @DF-RHF iter  14:  -307.75154508107249   -2.84217e-13   1.12621e-09 DIIS
   @DF-RHF iter  15:  -307.75154508107323   -7.38964e-13   3.71686e-10 DIIS
   @DF-RHF iter  16:  -307.75154508107357   -3.41061e-13   1.62668e-10 DIIS
   @DF-RHF iter  17:  -307.75154508107255    1.02318e-12   6.99336e-11 DIIS
  Energy and wave function converged.


  ==> Post-Iterations <==

    Orbital Energies [Eh]
    ---------------------

    Doubly Occupied:                                                      

       1A    -26.298453     2A    -15.624366     3A    -11.309651  
       4A    -11.279956     5A    -11.262900     6A    -11.230567  
       7A     -1.608973     8A     -1.305588     9A     -1.052690  
      10A     -0.991871    11A     -0.818602    12A     -0.797266  
      13A     -0.752331    14A     -0.682027    15A     -0.678564  
      16A     -0.649903    17A     -0.601192    18A     -0.587344  
      19A     -0.560922    20A     -0.526027    21A     -0.357052  
      22A     -0.309221  

    Virtual:                                                              

      23A      0.021833    24A      0.033787    25A      0.041481  
      26A      0.053758    27A      0.068341    28A      0.077922  
      29A      0.098299    30A      0.101739    31A      0.107451  
      32A      0.110905    33A      0.116714    34A      0.124297  
      35A      0.126703    36A      0.134966    37A      0.142732  
      38A      0.145472    39A      0.150953    40A      0.156935  
      41A      0.162531    42A      0.182921    43A      0.196108  
      44A      0.206683    45A      0.213748    46A      0.218673  
      47A      0.231766    48A      0.256773    49A      0.275230  
      50A      0.278968    51A      0.290054    52A      0.297303  
      53A      0.302851    54A      0.307654    55A      0.313348  
      56A      0.317700    57A      0.319507    58A      0.324910  
      59A      0.340873    60A      0.349131    61A      0.359294  
      62A      0.364734    63A      0.373037    64A      0.381181  
      65A      0.383689    66A      0.396825    67A      0.401463  
      68A      0.409357    69A      0.416820    70A      0.425616  
      71A      0.453391    72A      0.456461    73A      0.460354  
      74A      0.469448    75A      0.472799    76A      0.482406  
      77A      0.491374    78A      0.492219    79A      0.503182  
      80A      0.514986    81A      0.519006    82A      0.526188  
      83A      0.538201    84A      0.552316    85A      0.574783  
      86A      0.586753    87A      0.602522    88A      0.608377  
      89A      0.621017    90A      0.630146    91A      0.646273  
      92A      0.666102    93A      0.671957    94A      0.687004  
      95A      0.705301    96A      0.714531    97A      0.724984  
      98A      0.730853    99A      0.747962   100A      0.764712  
     101A      0.770061   102A      0.784025   103A      0.812916  
     104A      0.824537   105A      0.845689   106A      0.848082  
     107A      0.869634   108A      0.875020   109A      0.896442  
     110A      0.902846   111A      0.914768   112A      0.919341  
     113A      0.932255   114A      0.952169   115A      0.959047  
     116A      0.973934   117A      0.980546   118A      0.983771  
     119A      0.988671   120A      1.003055   121A      1.020587  
     122A      1.025249   123A      1.029196   124A      1.043112  
     125A      1.047377   126A      1.066919   127A      1.070144  
     128A      1.075201   129A      1.095924   130A      1.108104  
     131A      1.120872   132A      1.138218   133A      1.140622  
     134A      1.155914   135A      1.163946   136A      1.170497  
     137A      1.176149   138A      1.181264   139A      1.197735  
     140A      1.218279   141A      1.227450   142A      1.234104  
     143A      1.244698   144A      1.282698   145A      1.290130  
     146A      1.296312   147A      1.303470   148A      1.313209  
     149A      1.332943   150A      1.344056   151A      1.378562  
     152A      1.388170   153A      1.394451   154A      1.403290  
     155A      1.423174   156A      1.439087   157A      1.448405  
     158A      1.465110   159A      1.474027   160A      1.494733  
     161A      1.513215   162A      1.522719   163A      1.560563  
     164A      1.575896   165A      1.603192   166A      1.612883  
     167A      1.632311   168A      1.652060   169A      1.655775  
     170A      1.670546   171A      1.688709   172A      1.704849  
     173A      1.713261   174A      1.741749   175A      1.750861  
     176A      1.769635   177A      1.789178   178A      1.809629  
     179A      1.837512   180A      1.858347   181A      1.860205  
     182A      1.877871   183A      1.894523   184A      1.914669  
     185A      1.934697   186A      1.944578   187A      1.968960  
     188A      1.997869   189A      2.010457   190A      2.019585  
     191A      2.041088   192A      2.051453   193A      2.075707  
     194A      2.093133   195A      2.112140   196A      2.120320  
     197A      2.140610   198A      2.160364   199A      2.177643  
     200A      2.207938   201A      2.248756   202A      2.318020  
     203A      2.327183   204A      2.336267   205A      2.340435  
     206A      2.355561   207A      2.388227   208A      2.421977  
     209A      2.440875   210A      2.486630   211A      2.499285  
     212A      2.514785   213A      2.560236   214A      2.603555  
     215A      2.638185   216A      2.669729   217A      2.710060  
     218A      2.764003   219A      2.840750   220A      2.870879  
     221A      2.936904   222A      2.951316   223A      2.960113  
     224A      3.015753   225A      3.024273   226A      3.064110  
     227A      3.114553   228A      3.141780   229A      3.148801  
     230A      3.173460   231A      3.195145   232A      3.221933  
     233A      3.235761   234A      3.264191   235A      3.296066  
     236A      3.307537   237A      3.370855   238A      3.392404  
     239A      3.404562   240A      3.422852   241A      3.443481  
     242A      3.461627   243A      3.482635   244A      3.508389  
     245A      3.528175   246A      3.541695   247A      3.578464  
     248A      3.591535   249A      3.596264   250A      3.614992  
     251A      3.639870   252A      3.647031   253A      3.663446  
     254A      3.691283   255A      3.723890   256A      3.748785  
     257A      3.766879   258A      3.787167   259A      3.804185  
     260A      3.815569   261A      3.856801   262A      3.863477  
     263A      3.869421   264A      3.910981   265A      3.916429  
     266A      3.934377   267A      3.958898   268A      4.001210  
     269A      4.013443   270A      4.031735   271A      4.042632  
     272A      4.061699   273A      4.094023   274A      4.100663  
     275A      4.139502   276A      4.156991   277A      4.162499  
     278A      4.194394   279A      4.213942   280A      4.225014  
     281A      4.235568   282A      4.259297   283A      4.294482  
     284A      4.301225   285A      4.320467   286A      4.356822  
     287A      4.367897   288A      4.413053   289A      4.426277  
     290A      4.463202   291A      4.483421   292A      4.516049  
     293A      4.538001   294A      4.550094   295A      4.595683  
     296A      4.651174   297A      4.660456   298A      4.698348  
     299A      4.715229   300A      4.788604   301A      4.811858  
     302A      4.831350   303A      4.880625   304A      4.898352  
     305A      4.925059   306A      4.954721   307A      4.987683  
     308A      5.000871   309A      5.024621   310A      5.048355  
     311A      5.075095   312A      5.098407   313A      5.129185  
     314A      5.201774   315A      5.217470   316A      5.263990  
     317A      5.324001   318A      5.368320   319A      5.372358  
     320A      5.443728   321A      5.490085   322A      5.524581  
     323A      5.530028   324A      5.566126   325A      5.572809  
     326A      5.614000   327A      5.691815   328A      5.693445  
     329A      5.735132   330A      5.793743   331A      5.835798  
     332A      5.888434   333A      5.934665   334A      6.045822  
     335A      6.104046   336A      6.139565   337A      6.167561  
     338A      6.215089   339A      6.309304   340A      6.352617  
     341A      6.446195   342A      6.537359   343A      6.572716  
     344A      6.723138   345A      6.808879   346A      6.926509  
     347A      7.049711   348A      7.228278   349A      7.372516  
     350A      7.762207   351A      8.971019   352A      9.015150  
     353A      9.245002   354A      9.259823   355A      9.394408  
     356A      9.448179   357A      9.453820   358A      9.524953  
     359A      9.543434   360A      9.717176   361A      9.935008  
     362A      9.955675   363A     15.673368   364A     16.116112  
     365A     16.523912   366A     17.852666   367A     18.403565  
     368A     18.814186  

    Final Occupation by Irrep:
              A 
    DOCC [    22 ]

  @DF-RHF Final Energy:  -307.75154508107255

   => Energetics <=

    Nuclear Repulsion Energy =            219.2575207003936555
    One-Electron Energy =                -855.4472029821808974
    Two-Electron Energy =                 328.4381372007146638
    Total Energy =                       -307.7515450810725497

Computation Completed

*** tstop() called on node144.bme.utexas.edu at Thu Feb 11 10:26:57 2021
Module time:
	user time   =      47.25 seconds =       0.79 minutes
	system time =       1.98 seconds =       0.03 minutes
	total time  =          7 seconds =       0.12 minutes
Total time:
	user time   =      47.25 seconds =       0.79 minutes
	system time =       1.98 seconds =       0.03 minutes
	total time  =          7 seconds =       0.12 minutes
   => Loading Basis Set <=

    Name: (AUG-CC-PVTZ AUX)
    Role: RIFIT
    Keyword: DF_BASIS_MP2
    atoms 1    entry F          line   322 file /home/xy3866/psi4conda/share/psi4/basis/aug-cc-pvtz-ri.gbs 
    atoms 2    entry N          line   206 file /home/xy3866/psi4conda/share/psi4/basis/aug-cc-pvtz-ri.gbs 
    atoms 3-6  entry C          line   148 file /home/xy3866/psi4conda/share/psi4/basis/aug-cc-pvtz-ri.gbs 
    atoms 7-10 entry H          line    30 file /home/xy3866/psi4conda/share/psi4/basis/aug-cc-pvtz-ri.gbs 


*** tstart() called on node144.bme.utexas.edu
*** at Thu Feb 11 10:26:57 2021


  //>>>>>>>>>>>>>>>>>>>>>>>>>>>>>>>>>>>//
  //               DFMP2               //
  //<<<<<<<<<<<<<<<<<<<<<<<<<<<<<<<<<<<//

	 --------------------------------------------------------
	                          DF-MP2                         
	      2nd-Order Density-Fitted Moller-Plesset Theory     
	              RMP2 Wavefunction,   8 Threads             
	                                                         
	        Rob Parrish, Justin Turney, Andy Simmonett,      
	           Ed Hohenstein, and C. David Sherrill          
	 --------------------------------------------------------

   => Auxiliary Basis Set <=

  Basis Set: (AUG-CC-PVTZ AUX)
    Blend: AUG-CC-PVTZ-RI
    Number of shells: 224
    Number of basis function: 820
    Number of Cartesian functions: 1036
    Spherical Harmonics?: true
    Max angular momentum: 4

	 --------------------------------------------------------
	                 NBF =   368, NAUX =   820
	 --------------------------------------------------------
	   CLASS    FOCC     OCC    AOCC    AVIR     VIR    FVIR
	   PAIRS       0      22      22     346     346       0
	 --------------------------------------------------------

  DFHelper Memory: AOs need 0.843 GiB; user supplied 22.352 GiB. Using in-core AOs.


         ------------------------------------------------------------
                                     CPHF                           
                                  Rob Parrish                       
         ------------------------------------------------------------

  ==> Geometry <==

    Molecular point group: c1
    Full point group: C1

    Geometry (in Angstrom), charge = 0, multiplicity = 1:

       Center              X                  Y                   Z               Mass       
    ------------   -----------------  -----------------  -----------------  -----------------
         F           -2.002620453434    -0.011690590383    -0.035363533035    18.998403162730
         N            1.445415546566    -0.649559590383    -0.035223533035    14.003074004430
         C            0.151760546566    -1.118722590383    -0.035269533035    12.000000000000
         C           -0.649795453434     0.004992409617    -0.035306533035    12.000000000000
         C            0.151113946566     1.164816909617     0.214725466965    12.000000000000
         C            1.462957546566     0.721004409617    -0.035221533035    12.000000000000
         H           -0.091171453434    -2.170156590383    -0.035278533035     1.007825032230
         H            2.266801546566    -1.238182590383    -0.035191533035     1.007825032230
         H           -0.189465453434     2.190287409617    -0.035287533035     1.007825032230
         H            2.393455546566     1.270481409617    -0.035185533035     1.007825032230

  Nuclear repulsion =  219.257520700393712
  Reference energy  = -307.751545081072550

  ==> Basis Set <==

  Basis Set: AUG-CC-PVTZ
    Blend: AUG-CC-PVTZ
    Number of shells: 120
    Number of basis function: 368
    Number of Cartesian functions: 430
    Spherical Harmonics?: true
    Max angular momentum: 3

  ==> CGRSolver (by Rob Parrish) <==

   Number of roots    =         1
   Preconditioning    =    JACOBI
   Convergence cutoff =     1E-06
   Maximum iterations =       100

  ==> CPHFRHamiltonian (by Rob Parrish) <== 

  ==> MemDFJK: Density-Fitted J/K Matrices <==

    J tasked:                   Yes
    K tasked:                   Yes
    wK tasked:                   No
    OpenMP threads:               8
    Memory [MiB]:             22888
    Algorithm:                 Core
    Schwarz Cutoff:           1E-12
    Mask sparsity (%):       1.5330
    Fitting Condition:        1E-10

   => Auxiliary Basis Set <=

  Basis Set: (AUG-CC-PVTZ AUX)
    Blend: AUG-CC-PVTZ-JKFIT
    Number of shells: 236
    Number of basis function: 808
    Number of Cartesian functions: 1006
    Spherical Harmonics?: true
    Max angular momentum: 4

  ==> CPHF Iterations <==

  => Iterations <=

             Iter  Converged  Remaining    Residual
  CGR           1          0          1   1.050E-01
  CGR           2          0          1   3.485E-02
  CGR           3          0          1   1.881E-02
  CGR           4          0          1   5.457E-03
  CGR           5          0          1   1.426E-03
  CGR           6          0          1   5.540E-04
  CGR           7          0          1   2.172E-04
  CGR           8          0          1   8.279E-05
  CGR           9          0          1   3.385E-05
  CGR          10          0          1   1.530E-05
  CGR          11          0          1   3.673E-06
  CGR          12          0          1   1.203E-06
  CGR          13          1          0   3.943E-07

    CGRSolver converged.

	-----------------------------------------------------------
	 ==================> DF-MP2 Energies <==================== 
	-----------------------------------------------------------
	 Reference Energy          =    -307.7515450810725497 [Eh]
	 Singles Energy            =      -0.0000000000000000 [Eh]
	 Same-Spin Energy          =      -0.3032471563471333 [Eh]
	 Opposite-Spin Energy      =      -0.9139984458392780 [Eh]
	 Correlation Energy        =      -1.2172456021864113 [Eh]
	 Total Energy              =    -308.9687906832589874 [Eh]
	-----------------------------------------------------------
	 ================> DF-SCS-MP2 Energies <================== 
	-----------------------------------------------------------
	 SCS Same-Spin Scale       =       0.3333333333333333 [-]
	 SCS Opposite-Spin Scale   =       1.2000000000000000 [-]
	 SCS Same-Spin Energy      =      -0.1010823854490444 [Eh]
	 SCS Opposite-Spin Energy  =      -1.0967981350071336 [Eh]
	 SCS Correlation Energy    =      -1.1978805204561780 [Eh]
	 SCS Total Energy          =    -308.9494256015287306 [Eh]
	-----------------------------------------------------------



Properties will be evaluated at  -0.000000,  -0.000000,  -0.000000 [a0]

Properties computed using the MP2 density matrix

  Nuclear Dipole Moment: [e a0]
     X:     5.9907      Y:     0.0621      Z:    -0.0987

  Electronic Dipole Moment: [e a0]
     X:    -4.7564      Y:    -0.5149      Z:    -0.0001

  Dipole Moment: [e a0]
     X:     1.2344      Y:    -0.4528      Z:    -0.0988     Total:     1.3185

  Dipole Moment: [D]
     X:     3.1375      Y:    -1.1509      Z:    -0.2510     Total:     3.3513


*** tstop() called on node144.bme.utexas.edu at Thu Feb 11 10:27:17 2021
Module time:
	user time   =     131.62 seconds =       2.19 minutes
	system time =       3.90 seconds =       0.07 minutes
	total time  =         20 seconds =       0.33 minutes
Total time:
	user time   =     179.67 seconds =       2.99 minutes
	system time =       5.92 seconds =       0.10 minutes
	total time  =         27 seconds =       0.45 minutes

    Psi4 stopped on: Thursday, 11 February 2021 10:27AM
    Psi4 wall time for execution: 0:00:27.07

*** Psi4 exiting successfully. Buy a developer a beer!
