22347976                                                                
Freq      RMP2-FC                                                     6-31G(d)            
Number of atoms                            I                6
Info1-9                                    I   N=           9
          18          16        1002           0           0         100
           6           2           1
Charge                                     I               -1
Multiplicity                               I                1
Number of electrons                        I               36
Number of alpha electrons                  I               18
Number of beta electrons                   I               18
Number of basis functions                  I               77
Number of independent functions            I               77
Number of point charges in /Mol/           I                0
Number of translation vectors              I                0
Atomic numbers                             I   N=           6
           7           7           7           7           6           1
Nuclear charges                            R   N=           6
  7.00000000E+00  7.00000000E+00  7.00000000E+00  7.00000000E+00  6.00000000E+00
  1.00000000E+00
Current cartesian coordinates              R   N=          18
 -6.32659577E-01 -2.13059109E+00  6.18916196E-05 -6.32699179E-01  2.13058096E+00
  1.52131698E-04  1.79027922E+00 -1.27386734E+00 -3.42573520E-04  1.79026022E+00
  1.27389674E+00 -2.55348322E-04 -2.02222900E+00 -1.64376359E-05  3.35989968E-04
 -4.07289078E+00 -3.62543051E-05  6.71349861E-04
Force Field                                I                0
Int Atom Types                             I   N=           6
           0           0           0           0           0           0
MM charges                                 R   N=           6
  0.00000000E+00  0.00000000E+00  0.00000000E+00  0.00000000E+00  0.00000000E+00
  0.00000000E+00
Integer atomic weights                     I   N=           6
          14          14          14          14          12           1
Real atomic weights                        R   N=           6
  1.40030740E+01  1.40030740E+01  1.40030740E+01  1.40030740E+01  1.20000000E+01
  1.00782504E+00
Atom fragment info                         I   N=           6
           0           0           0           0           0           0
Atom residue num                           I   N=           6
           0           0           0           0           0           0
Nuclear spins                              I   N=           6
           2           2           2           2           0           1
Nuclear ZEff                               R   N=           6
 -4.55000000E+00 -4.55000000E+00 -4.55000000E+00 -4.55000000E+00 -3.60000000E+00
 -1.00000000E+00
Nuclear QMom                               R   N=           6
  2.04400000E+00  2.04400000E+00  2.04400000E+00  2.04400000E+00  0.00000000E+00
  0.00000000E+00
Nuclear GFac                               R   N=           6
  4.03761000E-01  4.03761000E-01  4.03761000E-01  4.03761000E-01  0.00000000E+00
  2.79284600E+00
MicOpt                                     I   N=           6
          -1          -1          -1          -1          -1          -1
Number of contracted shells                I               22
Number of primitive shells                 I               59
Pure/Cartesian d shells                    I                1
Pure/Cartesian f shells                    I                0
Highest angular momentum                   I                2
Largest degree of contraction              I                6
Shell types                                I   N=          22
           0          -1          -1           2           0          -1
          -1           2           0          -1          -1           2
           0          -1          -1           2           0          -1
          -1           2           0           0
Number of primitives per shell             I   N=          22
           6           3           1           1           6           3
           1           1           6           3           1           1
           6           3           1           1           6           3
           1           1           3           1
Shell to atom map                          I   N=          22
           1           1           1           1           2           2
           2           2           3           3           3           3
           4           4           4           4           5           5
           5           5           6           6
Primitive exponents                        R   N=          59
  4.17351146E+03  6.27457911E+02  1.42902093E+02  4.02343293E+01  1.28202129E+01
  4.39043701E+00  1.16263619E+01  2.71627981E+00  7.72218397E-01  2.12031498E-01
  8.00000000E-01  4.17351146E+03  6.27457911E+02  1.42902093E+02  4.02343293E+01
  1.28202129E+01  4.39043701E+00  1.16263619E+01  2.71627981E+00  7.72218397E-01
  2.12031498E-01  8.00000000E-01  4.17351146E+03  6.27457911E+02  1.42902093E+02
  4.02343293E+01  1.28202129E+01  4.39043701E+00  1.16263619E+01  2.71627981E+00
  7.72218397E-01  2.12031498E-01  8.00000000E-01  4.17351146E+03  6.27457911E+02
  1.42902093E+02  4.02343293E+01  1.28202129E+01  4.39043701E+00  1.16263619E+01
  2.71627981E+00  7.72218397E-01  2.12031498E-01  8.00000000E-01  3.04752488E+03
  4.57369518E+02  1.03948685E+02  2.92101553E+01  9.28666296E+00  3.16392696E+00
  7.86827235E+00  1.88128854E+00  5.44249258E-01  1.68714478E-01  8.00000000E-01
  1.87311370E+01  2.82539436E+00  6.40121692E-01  1.61277759E-01
Contraction coefficients                   R   N=          59
  1.83477216E-03  1.39946270E-02  6.85865518E-02  2.32240873E-01  4.69069948E-01
  3.60455199E-01 -1.14961182E-01 -1.69117479E-01  1.14585195E+00  1.00000000E+00
  1.00000000E+00  1.83477216E-03  1.39946270E-02  6.85865518E-02  2.32240873E-01
  4.69069948E-01  3.60455199E-01 -1.14961182E-01 -1.69117479E-01  1.14585195E+00
  1.00000000E+00  1.00000000E+00  1.83477216E-03  1.39946270E-02  6.85865518E-02
  2.32240873E-01  4.69069948E-01  3.60455199E-01 -1.14961182E-01 -1.69117479E-01
  1.14585195E+00  1.00000000E+00  1.00000000E+00  1.83477216E-03  1.39946270E-02
  6.85865518E-02  2.32240873E-01  4.69069948E-01  3.60455199E-01 -1.14961182E-01
 -1.69117479E-01  1.14585195E+00  1.00000000E+00  1.00000000E+00  1.83473713E-03
  1.40373228E-02  6.88426223E-02  2.32184443E-01  4.67941348E-01  3.62311985E-01
 -1.19332420E-01 -1.60854152E-01  1.14345644E+00  1.00000000E+00  1.00000000E+00
  3.34946043E-02  2.34726953E-01  8.13757326E-01  1.00000000E+00
P(S=P) Contraction coefficients            R   N=          59
  0.00000000E+00  0.00000000E+00  0.00000000E+00  0.00000000E+00  0.00000000E+00
  0.00000000E+00  6.75797439E-02  3.23907296E-01  7.40895140E-01  1.00000000E+00
  0.00000000E+00  0.00000000E+00  0.00000000E+00  0.00000000E+00  0.00000000E+00
  0.00000000E+00  0.00000000E+00  6.75797439E-02  3.23907296E-01  7.40895140E-01
  1.00000000E+00  0.00000000E+00  0.00000000E+00  0.00000000E+00  0.00000000E+00
  0.00000000E+00  0.00000000E+00  0.00000000E+00  6.75797439E-02  3.23907296E-01
  7.40895140E-01  1.00000000E+00  0.00000000E+00  0.00000000E+00  0.00000000E+00
  0.00000000E+00  0.00000000E+00  0.00000000E+00  0.00000000E+00  6.75797439E-02
  3.23907296E-01  7.40895140E-01  1.00000000E+00  0.00000000E+00  0.00000000E+00
  0.00000000E+00  0.00000000E+00  0.00000000E+00  0.00000000E+00  0.00000000E+00
  6.89990666E-02  3.16423961E-01  7.44308291E-01  1.00000000E+00  0.00000000E+00
  0.00000000E+00  0.00000000E+00  0.00000000E+00  0.00000000E+00
Coordinates of each shell                  R   N=          66
 -6.32659577E-01 -2.13059109E+00  6.18916196E-05 -6.32659577E-01 -2.13059109E+00
  6.18916196E-05 -6.32659577E-01 -2.13059109E+00  6.18916196E-05 -6.32659577E-01
 -2.13059109E+00  6.18916196E-05 -6.32699179E-01  2.13058096E+00  1.52131698E-04
 -6.32699179E-01  2.13058096E+00  1.52131698E-04 -6.32699179E-01  2.13058096E+00
  1.52131698E-04 -6.32699179E-01  2.13058096E+00  1.52131698E-04  1.79027922E+00
 -1.27386734E+00 -3.42573520E-04  1.79027922E+00 -1.27386734E+00 -3.42573520E-04
  1.79027922E+00 -1.27386734E+00 -3.42573520E-04  1.79027922E+00 -1.27386734E+00
 -3.42573520E-04  1.79026022E+00  1.27389674E+00 -2.55348322E-04  1.79026022E+00
  1.27389674E+00 -2.55348322E-04  1.79026022E+00  1.27389674E+00 -2.55348322E-04
  1.79026022E+00  1.27389674E+00 -2.55348322E-04 -2.02222900E+00 -1.64376359E-05
  3.35989968E-04 -2.02222900E+00 -1.64376359E-05  3.35989968E-04 -2.02222900E+00
 -1.64376359E-05  3.35989968E-04 -2.02222900E+00 -1.64376359E-05  3.35989968E-04
 -4.07289078E+00 -3.62543051E-05  6.71349861E-04 -4.07289078E+00 -3.62543051E-05
  6.71349861E-04
Constraint Structure                       R   N=          18
 -6.32659577E-01 -2.13059109E+00  6.18916196E-05 -6.32699179E-01  2.13058096E+00
  1.52131698E-04  1.79027922E+00 -1.27386734E+00 -3.42573520E-04  1.79026022E+00
  1.27389674E+00 -2.55348322E-04 -2.02222900E+00 -1.64376359E-05  3.35989968E-04
 -4.07289078E+00 -3.62543051E-05  6.71349861E-04
Num ILSW                                   I              100
ILSW                                       I   N=         100
           0           1           0           0           2           0
           0           0           0           0           0          -1
           0           0           0           0           0           0
           0           0           0           0           1           0
           1           0           0           0           0           0
           0           0      100000           0          -1           0
           0           0           0           0           0           0
           0           0           0           1           1           0
           0           0           1           0           0           0
           0           0           4          40           0           0
           0           0           0           0           0           0
           0           0           0           0           0           0
           0           0           0           0           0           0
           0           0           0           0           0           0
           0           0           0           0           0           0
           0           0           0           0           0           0
           0           0           0           0
Num RLSW                                   I               40
RLSW                                       R   N=          40
  1.00000000E+00  1.00000000E+00  1.00000000E+00  1.00000000E+00  1.00000000E+00
  0.00000000E+00  0.00000000E+00  1.00000000E+00  0.00000000E+00  0.00000000E+00
  0.00000000E+00  0.00000000E+00  1.00000000E+00  0.00000000E+00  0.00000000E+00
  0.00000000E+00  0.00000000E+00  1.00000000E+00  0.00000000E+00  0.00000000E+00
  0.00000000E+00  0.00000000E+00  1.00000000E+00  0.00000000E+00  0.00000000E+00
  0.00000000E+00  0.00000000E+00  1.00000000E+00  0.00000000E+00  0.00000000E+00
  0.00000000E+00  0.00000000E+00  0.00000000E+00  0.00000000E+00  0.00000000E+00
  0.00000000E+00  0.00000000E+00  0.00000000E+00  1.00000000E+00  1.00000000E+00
MxBond                                     I                3
NBond                                      I   N=           6
           2           2           2           2           3           1
IBond                                      I   N=          18
           3           5           0           4           5           0
           1           4           0           2           3           0
           1           2           6           5           0           0
RBond                                      R   N=          18
  1.50000000E+00  1.50000000E+00  0.00000000E+00  1.50000000E+00  1.50000000E+00
  0.00000000E+00  1.50000000E+00  1.50000000E+00  0.00000000E+00  1.50000000E+00
  1.50000000E+00  0.00000000E+00  1.50000000E+00  1.50000000E+00  1.00000000E+00
  1.00000000E+00  0.00000000E+00  0.00000000E+00
Virial Ratio                               R      2.003658686394077E+00
SCF Energy                                 R     -2.561911305794566E+02
MP2 Energy                                 R     -2.569949754858633E+02
Total Energy                               R     -2.569949754858633E+02
Post-SCF wavefunction norm                 R      1.600723636191798E+00
RMS Force                                  R      6.717196241058466E-06
RMS Density                                R      1.817772859100389E-09
External E-field                           R   N=          35
  0.00000000E+00  0.00000000E+00  0.00000000E+00  0.00000000E+00  0.00000000E+00
  0.00000000E+00  0.00000000E+00  0.00000000E+00  0.00000000E+00  0.00000000E+00
  0.00000000E+00  0.00000000E+00  0.00000000E+00  0.00000000E+00  0.00000000E+00
  0.00000000E+00  0.00000000E+00  0.00000000E+00  0.00000000E+00  0.00000000E+00
  0.00000000E+00  0.00000000E+00  0.00000000E+00  0.00000000E+00  0.00000000E+00
  0.00000000E+00  0.00000000E+00  0.00000000E+00  0.00000000E+00  0.00000000E+00
  0.00000000E+00  0.00000000E+00  0.00000000E+00  0.00000000E+00  0.00000000E+00
IOpCl                                      I                0
IROHF                                      I                0
Alpha Orbital Energies                     R   N=          77
 -1.54056546E+01 -1.54048299E+01 -1.53746652E+01 -1.53746273E+01 -1.10745330E+01
 -1.20116428E+00 -9.73806583E-01 -9.01208224E-01 -6.10143860E-01 -6.05048330E-01
 -4.68004545E-01 -3.96797004E-01 -3.40362651E-01 -2.46048002E-01 -2.32952740E-01
 -2.28327202E-01 -1.79203578E-01 -1.54901861E-01  3.93353895E-01  4.18759973E-01
  4.54695261E-01  6.06168622E-01  6.42671122E-01  6.96416297E-01  7.04589638E-01
  8.96089415E-01  9.82010442E-01  1.02279972E+00  1.07459907E+00  1.08532019E+00
  1.11849731E+00  1.14833947E+00  1.15305039E+00  1.17708071E+00  1.20540602E+00
  1.21953266E+00  1.25448219E+00  1.29167689E+00  1.30190955E+00  1.31232284E+00
  1.33742898E+00  1.41281580E+00  1.50009287E+00  1.51532731E+00  1.57742644E+00
  1.83720304E+00  1.86853633E+00  1.88262928E+00  1.89766587E+00  1.90488347E+00
  1.93542800E+00  2.08112880E+00  2.10570698E+00  2.37502811E+00  2.39967223E+00
  2.50973660E+00  2.64057546E+00  2.70843825E+00  2.76480889E+00  2.83321325E+00
  2.84295378E+00  2.86259478E+00  2.95255507E+00  2.98732468E+00  3.13080827E+00
  3.13252129E+00  3.18321818E+00  3.23709439E+00  3.31429808E+00  3.47350601E+00
  3.50845775E+00  3.62559593E+00  4.12620457E+00  4.24026752E+00  4.56088451E+00
  4.67285731E+00  4.80933640E+00
Alpha MO coefficients                      R   N=        5929
  7.86724986E-03  3.77702103E-04  9.57461043E-05 -7.01177197E-06 -1.71994655E-08
  5.97754946E-05 -5.05040677E-05 -3.22420459E-05  1.23662125E-08 -3.32545698E-04
 -9.85226096E-05 -2.82640561E-05 -1.30561188E-04  5.99096418E-08  2.22604244E-08
  7.86411106E-03  3.77548397E-04  9.56996542E-05  7.03557077E-06 -1.45688806E-08
  5.92956156E-05 -5.05976793E-05  3.23393023E-05  4.59153346E-09 -3.32413704E-04
 -9.84546070E-05 -2.82636126E-05  1.30506381E-04  5.80930936E-08 -2.17154764E-08
  7.03767227E-01  1.70929364E-02 -1.25493354E-03  9.44645533E-04  2.47967766E-07
 -6.22020004E-04  7.49567324E-04 -5.63254589E-04 -1.49375877E-07 -2.05257807E-03
 -2.37412574E-03 -2.21447553E-03  1.95456598E-05 -3.16353463E-08 -1.19364685E-08
  7.03525687E-01  1.70871652E-02 -1.25448398E-03 -9.44413499E-04  1.71726226E-07
 -6.20890259E-04  7.49061898E-04  5.62919862E-04 -1.00948082E-07 -2.05192168E-03
 -2.37358532E-03 -2.21372278E-03 -1.95428688E-05 -3.06064775E-08 -5.51971365E-09
 -2.83278233E-05 -3.26450937E-04 -7.13016380E-05  8.55579246E-09  1.16611199E-08
  4.96542398E-04  1.18501885E-03  3.34422607E-08 -1.95994936E-07  1.91430984E-04
  5.89473380E-06 -8.58840117E-05 -2.78146950E-09 -5.36006889E-08  3.30254522E-09
  4.65446145E-05  5.71182482E-04 -9.27738886E-03 -4.51645354E-04 -1.43163682E-04
 -6.90128028E-05  2.22562539E-08 -1.38933197E-03 -2.90143886E-04 -2.82429157E-04
  4.52269653E-08  3.84281969E-04  1.84468753E-04  2.54599036E-06  1.39903552E-04
 -7.38449498E-08 -1.81873109E-08  9.28012957E-03  4.51774460E-04  1.43200731E-04
 -6.90092012E-05 -2.55269355E-08  1.38935531E-03  2.90135923E-04 -2.82414792E-04
 -5.23869867E-08 -3.84395706E-04 -1.84497722E-04 -2.55719277E-06  1.39942652E-04
  7.40354576E-08 -2.87313878E-08 -7.03657767E-01 -1.67943846E-02  1.25385538E-03
 -7.46151957E-04 -2.42310998E-07  3.29877587E-03 -1.45465653E-03  1.00031445E-03
  2.84767759E-07  1.92321374E-03  1.56669690E-03  2.18169737E-03  1.75966945E-05
  4.99610989E-08 -2.58958911E-08  7.03899262E-01  1.68002438E-02 -1.25426936E-03
 -7.46499223E-04  1.77313097E-07 -3.29898892E-03  1.45489956E-03  1.00053045E-03
 -2.02222046E-07 -1.92392254E-03 -1.56751045E-03 -2.18245348E-03  1.75863668E-05
 -4.95255603E-08  1.98725680E-08 -4.91396141E-09 -5.58921762E-08 -1.19757641E-08
 -5.29716146E-05 -2.45723719E-09  8.40880745E-08  2.01186660E-07 -1.12281885E-04
  3.20127077E-09  3.21536065E-08  9.89911089E-10 -1.49376842E-08  2.66496127E-05
  3.05795968E-09 -4.35801708E-09  7.65413586E-09  9.68157097E-08 -7.01189650E-01
 -1.71530853E-02 -4.08185803E-04 -1.40974472E-03  4.39305812E-08  1.91269542E-03
  2.25691110E-04  1.21151030E-03 -1.59987792E-08  2.05469093E-03  1.98395394E-03
  2.21687653E-03  4.06694460E-05  3.24996249E-08 -1.28694610E-08  7.06111165E-01
  1.72738612E-02  4.11322250E-04 -1.41908182E-03 -9.51071410E-08 -1.93869310E-03
 -2.28874127E-04  1.22438481E-03  6.22830454E-08 -2.06845272E-03 -1.99730863E-03
 -2.23227839E-03  4.09234620E-05 -3.03341123E-08 -6.35601792E-11  9.38709508E-03
 -6.20685434E-06  1.04678506E-04  1.83641520E-05 -1.67128708E-08 -1.27985337E-03
  1.85428261E-04 -3.32629955E-04 -4.47349271E-08  3.68462483E-04  6.64515864E-05
 -5.76650237E-05  8.29976212E-05 -8.30775836E-08 -1.20875414E-08 -9.44296352E-03
  5.57274382E-06 -1.05314346E-04  1.90725577E-05  1.85634535E-08  1.28817581E-03
 -1.88710299E-04 -3.32642248E-04  1.71769089E-08 -3.70426460E-04 -6.67792364E-05
  5.74872016E-05  8.37777142E-05  8.21227360E-08 -1.59074324E-08  1.04273011E-07
  1.89532750E-06  2.04207933E-08  7.44381316E-05  1.83111888E-09  1.31457276E-05
  7.30318560E-06  5.86240879E-04  1.16880394E-08 -1.25950789E-06 -1.90945763E-06
 -3.45738785E-07 -3.81925440E-04 -8.63734887E-09  6.27420603E-08  1.31775703E-07
  1.34603206E-06  7.06167321E-01  1.73301568E-02  4.47411865E-04  1.34102184E-03
 -5.13281336E-08 -3.72351217E-03 -4.52553743E-04 -1.84577225E-03  4.22831669E-08
 -1.97437499E-03 -1.91722968E-03 -2.21022271E-03 -3.60375127E-05 -4.50367718E-08
  1.37784853E-08  7.01246201E-01  1.72097663E-02  4.44561895E-04 -1.33112236E-03
 -9.95156462E-08 -3.71004976E-03 -4.50999036E-04  1.83724667E-03  1.11217161E-07
 -1.95996090E-03 -1.90330270E-03 -2.19466329E-03  3.57555376E-05 -4.49684725E-08
  2.08175832E-09 -8.01490891E-03 -9.04285101E-05 -9.07646882E-05 -1.01461303E-04
  1.25192491E-08  1.19439920E-03 -4.70290830E-04  2.82475241E-06  8.30105825E-08
 -2.82490211E-04 -4.74620746E-05 -2.51463602E-05 -1.12930653E-04  5.09105214E-08
  2.03862694E-08 -7.94910346E-03 -9.04718707E-05 -9.00350585E-05  1.01329662E-04
  1.74280419E-08  1.18541733E-03 -4.68987239E-04 -5.03269127E-07  7.52696895E-08
 -2.79904267E-04 -4.69921858E-05 -2.55500628E-05  1.12340845E-04  4.78026806E-08
 -1.76600024E-08  2.97596854E-05  5.42143999E-04  6.51168137E-06 -2.62559543E-07
 -1.28250039E-09  3.75883744E-03  2.08973355E-03 -2.03058572E-06 -3.44620613E-07
 -3.61618388E-04 -5.43866454E-04 -9.89873097E-05  1.33570763E-06  5.01632521E-08
 -1.08332658E-08  3.75876523E-05  3.84868653E-04 -2.90503855E-04  2.62608738E-04
  5.67181315E-06  3.88007862E-06 -3.36559760E-10 -3.54081637E-04 -5.41272348E-04
 -7.52631223E-04  7.99859390E-08 -2.40441534E-04 -3.43390587E-04  1.59110823E-04
  2.68321029E-05  7.97220191E-08 -1.49863266E-08 -2.90506049E-04  2.62608067E-04
  5.67227918E-06 -3.88015965E-06 -1.65048715E-09 -3.54086377E-04 -5.41283627E-04
  7.52623974E-04  1.01173790E-07 -2.40439674E-04 -3.43389361E-04  1.59110834E-04
 -2.68276814E-05  7.39704402E-08 -6.71528862E-09 -2.58295248E-06 -5.36513784E-05
 -1.19053209E-04 -2.86206873E-05  2.15070237E-08  6.92447733E-04 -3.98105792E-04
 -7.25408865E-07  6.28663784E-08  1.30945776E-04 -4.54459300E-05 -8.64347084E-06
  2.94305877E-05 -2.64001426E-08 -6.89902508E-09 -2.58311603E-06 -5.36529515E-05
 -1.19053429E-04  2.86188255E-05  1.87628664E-08  6.92449117E-04 -3.98106457E-04
  7.17085836E-07  6.96639615E-08  1.30947347E-04 -4.54474340E-05 -8.64399181E-06
 -2.94270210E-05 -2.75099839E-08  2.88105986E-09  9.95562584E-01  2.69828786E-02
  1.88622081E-04  2.08577084E-09 -3.19724246E-08 -6.82566265E-03  1.63631589E-03
  1.90465496E-08 -2.67531364E-07 -1.72442301E-03 -1.69169220E-03 -2.62366124E-03
  1.70964439E-09 -1.70758244E-07  2.51755320E-08 -2.40516332E-04  2.58991828E-03
 -8.87472757E-02  1.80802381E-01  4.62391414E-02  8.01555429E-02 -6.37477531E-06
  1.61483549E-01  9.17526085E-03  3.91243213E-02 -8.72861238E-07  8.18516651E-03
  6.60092275E-03 -8.88121757E-03  6.04878211E-03 -3.29590818E-06 -7.21285613E-07
 -8.87465915E-02  1.80800941E-01  4.62396060E-02 -8.01543814E-02 -9.22850100E-06
  1.61482679E-01  9.17585474E-03 -3.91240427E-02 -2.26126393E-06  8.18525046E-03
  6.60075782E-03 -8.88115787E-03 -6.04866272E-03 -3.29671324E-06  1.34239208E-06
 -1.07838796E-01  2.28687446E-01 -8.15027555E-02  6.89111908E-02  1.64011785E-05
  1.47066091E-01 -2.37813231E-02  2.05221576E-02  4.77330118E-06  1.03613279E-02
  1.22902488E-02 -1.02940926E-02 -2.47337687E-03 -4.26277049E-06  1.25989529E-06
 -1.07838140E-01  2.28686032E-01 -8.15007307E-02 -6.89129900E-02  1.08643670E-05
  1.47065125E-01 -2.37807934E-02 -2.05225637E-02  3.16248242E-06  1.03611246E-02
  1.22904212E-02 -1.02940230E-02  2.47344753E-03 -3.72097832E-06  4.41664692E-07
 -6.98558264E-02  1.35700617E-01  7.70109488E-02  5.61842093E-07 -1.27474667E-05
  2.25378269E-06 -4.10895980E-02 -3.78705675E-07  6.77253791E-06  6.89156066E-03
  8.12398571E-03 -7.83967755E-03 -5.57721316E-08 -2.80842304E-06  3.78027289E-07
  1.37565813E-02 -1.59766560E-02  1.28965513E-01 -2.72062832E-01 -6.06847491E-02
 -5.92481697E-02  9.53658760E-06 -2.51243556E-01 -8.96654696E-03 -2.79705830E-02
  1.09650529E-06 -1.14247558E-02 -8.20315659E-04  8.91572755E-03 -5.74614504E-03
  3.95165204E-06  8.06488228E-07 -1.28966417E-01  2.72064689E-01  6.06842096E-02
 -5.92483562E-02 -1.09323611E-05  2.51245755E-01  8.96677314E-03 -2.79709960E-02
 -1.99057636E-06  1.14248430E-02  8.20346137E-04 -8.91579704E-03 -5.74577879E-03
 -3.90087087E-06  1.14829725E-06  7.89021091E-02 -1.67734723E-01  1.02140625E-01
  6.92669172E-02 -1.59626413E-05 -1.68986755E-01  3.60531258E-02  1.90912592E-03
 -6.28948597E-06 -2.10925905E-02  1.20627894E-02  6.89318552E-03 -9.27786718E-03
  5.39933217E-06  1.78910857E-06 -7.89018932E-02  1.67734171E-01 -1.02141436E-01
  6.92646741E-02  1.82271247E-05  1.68986413E-01 -3.60531698E-02  1.90838494E-03
  5.78514419E-06  2.10929165E-02 -1.20630370E-02 -6.89318209E-03 -9.27717234E-03
 -5.42544517E-06  1.31667010E-06 -1.00002270E-06  1.94938130E-06 -6.87979618E-07
  1.51514755E-01  3.36675106E-06  8.54973133E-07 -1.37806451E-07 -2.28088536E-03
 -1.06356890E-07 -3.55590060E-07  4.56730549E-07 -1.09115826E-07  2.42892965E-02
  5.17188231E-07 -4.01717605E-06  3.57164587E-07 -2.46481754E-08 -7.48013219E-02
  1.56336113E-01 -9.90401698E-02  6.99957885E-02  1.80739105E-05  1.87641321E-01
 -1.99724087E-02  3.72080056E-02  4.10305327E-06 -7.52008288E-03  8.74723758E-03
 -4.44934528E-03 -1.50795880E-02  3.04515871E-07  2.85668327E-06 -7.48004617E-02
  1.56334332E-01 -9.90397312E-02 -6.99974289E-02  1.47922955E-05  1.87639249E-01
 -1.99720122E-02 -3.72081285E-02  2.47626042E-06 -7.52068118E-03  8.74769392E-03
 -4.44928079E-03  1.50793202E-02  9.07782518E-07 -2.13607299E-06  9.83228318E-02
 -2.13805721E-01 -4.24333212E-02 -1.19879635E-01  3.24830155E-06 -2.14458760E-01
  4.12983130E-03 -3.32378949E-02 -1.89444989E-06  1.45911320E-02 -2.06440350E-02
  6.07814323E-03  1.71240481E-03 -1.61173512E-06 -1.33620141E-06  9.83237409E-02
 -2.13807664E-01 -4.24339763E-02  1.19878117E-01  1.09362292E-05 -2.14460597E-01
  4.12963218E-03  3.32379132E-02  5.11339691E-07  1.45909834E-02 -2.06439407E-02
  6.07821107E-03 -1.71168462E-03 -1.67258957E-06 -7.69232831E-07 -1.31813493E-01
  2.56541619E-01  5.62650918E-02  2.24021291E-07 -9.27783213E-06  1.36674145E-01
 -1.23523927E-02 -1.33136262E-07  2.01973599E-06  5.70268095E-03  1.41402556E-02
 -1.34731863E-02 -1.44014668E-07 -3.63377940E-06  6.61699271E-07  6.55018680E-02
  1.19920372E-02 -6.07724433E-02  1.30788735E-01 -2.34826851E-01  5.52258400E-02
  4.15677856E-05  1.87487649E-01 -8.80810634E-02  2.26900140E-02  1.56863380E-05
 -1.45198054E-02  7.70441673E-03 -7.98405023E-04 -1.95217025E-02  2.44707884E-06
  3.58436152E-06  6.07806683E-02 -1.30806198E-01  2.34803121E-01  5.52212409E-02
 -3.65808151E-05 -1.87514458E-01  8.80723375E-02  2.26897698E-02 -1.35990500E-05
  1.45192499E-02 -7.70361607E-03  7.99072022E-04 -1.95196678E-02 -2.90305113E-06
  2.89386654E-06  9.88045181E-02 -2.18849719E-01  1.83147042E-02  1.03420973E-01
 -4.57752190E-08 -3.15530723E-01  1.25705706E-02  2.42242537E-02 -1.45360157E-06
 -2.41364453E-03  9.21505130E-03  3.88508795E-03 -7.13319582E-03  1.06617638E-06
  1.48054704E-06 -9.88075102E-02  2.18856095E-01 -1.82950454E-02  1.03392780E-01
  6.14300796E-06  3.15540737E-01 -1.25642120E-02  2.42141734E-02  2.76460704E-06
  2.41088074E-03 -9.21256417E-03 -3.88522631E-03 -7.13185057E-03 -1.38505450E-06
  9.11437569E-07 -8.01296921E-06  1.62832104E-05 -7.33108152E-06 -2.91759269E-01
 -5.65755942E-06  1.81149513E-05 -1.76059376E-06 -6.17292177E-02 -1.19490271E-06
  1.41914593E-06 -3.59080297E-07 -6.27063440E-07 -2.11519044E-02 -3.56848438E-07
  3.47396859E-06  1.24287261E-05  6.98592973E-06  6.00720826E-02 -1.27186218E-01
 -1.58706485E-01  5.92212748E-02  2.84097017E-05 -2.00195377E-01 -5.91399570E-02
  1.03577249E-02  1.03888790E-05 -7.57625664E-03  9.07987393E-03  4.80809129E-03
 -1.13410406E-02  2.34070502E-06  2.04371572E-06  6.00640554E-02 -1.27168883E-01
 -1.58738172E-01 -5.92317629E-02  2.42426333E-05 -2.00170639E-01 -5.91521745E-02
 -1.03618661E-02  9.24687621E-06 -7.57864114E-03  9.08124725E-03  4.80801183E-03
  1.13434590E-02  2.46882841E-06 -1.70278706E-06 -2.26141190E-02  4.88781962E-02
  1.57343276E-01  1.97324263E-01 -2.12247466E-05  7.55684809E-02  5.10677077E-02
  7.00670811E-02 -6.67318868E-06 -2.19880354E-02  1.95959658E-02 -8.82136987E-04
 -7.51381243E-03  4.11307793E-06  2.19323885E-06 -2.26000570E-02  4.88471125E-02
  1.57348481E-01 -1.97336254E-01 -3.16242234E-05  7.55229477E-02  5.10705565E-02
 -7.00697228E-02 -1.05011443E-05 -2.19886708E-02  1.95975431E-02 -8.81595464E-04
  7.51403502E-03  4.08133891E-06 -3.10775518E-07 -1.13244289E-01  2.30379151E-01
 -1.49760765E-01  1.85771305E-05  2.45568020E-05  2.57825256E-01 -3.56371422E-02
  3.94994304E-06  5.83566104E-06  1.52417330E-02 -1.02449320E-03 -8.76423548E-03
  1.60715568E-06 -4.52914753E-06  1.46883199E-07  1.79990185E-01  1.02160742E-01
  2.97435431E-02 -6.71362111E-02 -6.23132013E-02  2.18093570E-01  1.62007234E-05
 -1.11138861E-01 -2.71134050E-02  1.22318552E-01  7.67588487E-06 -1.60112425E-02
  2.50444360E-02 -4.70490108E-03  8.10863735E-04  2.28000032E-06  6.33702133E-07
  2.97435335E-02 -6.71361782E-02 -6.23098194E-02 -2.18094617E-01  5.06512051E-06
 -1.11138972E-01 -2.71115329E-02 -1.22318942E-01  1.62287194E-06 -1.60112522E-02
  2.50444100E-02 -4.70488886E-03 -8.11583148E-04  2.08374774E-06  8.84467499E-07
  3.14743880E-02 -6.76986142E-02 -6.54695348E-02  1.95017832E-01  1.68213352E-05
 -1.26579285E-01 -4.46060866E-02  9.34222169E-02  1.04648561E-05  4.06265592E-03
  9.21318483E-03 -4.29497134E-03 -1.85143110E-02 -2.17404423E-06  3.75277915E-06
  3.14748483E-02 -6.76996196E-02 -6.54661725E-02 -1.95018842E-01  5.40899872E-06
 -1.26580981E-01 -4.46044096E-02 -9.34228928E-02  4.67179378E-06  4.06205971E-03
  9.21382647E-03 -4.29495468E-03  1.85141952E-02 -1.08616582E-06 -2.45173693E-06
 -2.82680489E-03  1.84707924E-02  3.24460778E-01  3.20818325E-06 -5.30965592E-05
 -4.82565400E-02  1.04585108E-01  9.60381742E-07 -1.70733388E-05 -1.28622083E-02
  8.23724368E-03 -2.33236386E-03 -2.51358562E-07  1.97731685E-06  1.64747559E-07
 -1.86469747E-01 -1.50603256E-01 -6.74575623E-07  1.29857861E-06  4.29801197E-05
 -6.99706337E-06  2.40933738E-01  3.66143365E-06  2.74631883E-05 -3.82548340E-06
  1.54184455E-01  2.58278281E-06 -9.88152296E-07 -1.82988170E-06  3.68811193E-06
  8.29767402E-03  2.22768087E-02  2.47588620E-07 -4.15205191E-07  3.60723182E-05
 -6.05809986E-06  2.40932644E-01 -1.88259270E-06  2.32625049E-05 -3.24912533E-06
  1.54183785E-01  2.20221465E-06  9.43599858E-07 -3.02620773E-06 -3.61967270E-06
  8.29789841E-03 -2.22766111E-02  7.47434657E-07 -1.41925777E-06  4.45276574E-05
 -8.08776770E-06  2.60471035E-01 -4.24076659E-06  2.96034354E-05 -5.62707556E-06
  1.68847395E-01 -6.14198327E-06 -8.64898327E-07  7.26288777E-06  3.42901148E-06
 -2.05728506E-02  1.62865793E-02 -8.74018530E-07  1.68405361E-06  4.46385712E-05
 -8.18779882E-06  2.60470186E-01  4.90020711E-06  2.80161208E-05 -5.53776793E-06
  1.68846926E-01 -5.93925731E-06  9.11078416E-07  4.70629008E-06 -2.12315649E-06
 -2.05724349E-02 -1.62869825E-02  2.66916076E-08 -6.37995404E-08  3.41261200E-05
 -1.22196594E-06  2.06692674E-01 -2.06008713E-08  2.08514058E-05 -1.47414617E-06
  1.25822198E-01  4.51609485E-06  4.98552571E-08 -4.58352307E-06 -2.42672758E-07
  1.60369057E-02  1.41522559E-07 -2.24116575E-07 -8.44958544E-08 -5.09769721E-02
  1.12454557E-01 -2.26602170E-01 -1.13336290E-01  3.65374373E-05  1.80511979E-01
 -1.36942439E-01 -1.04566964E-01  2.13590756E-05 -1.38848257E-02 -2.42060428E-03
  6.04978700E-03 -1.92170977E-02  3.61062825E-06  3.12581661E-06 -5.09766568E-02