10722                                                                   
Freq      RMP2-FC                                                     6-31G(d)            
Number of atoms                            I               17
Info1-9                                    I   N=           9
          29          27        1002           0           0         100
           6           2           1
Charge                                     I                0
Multiplicity                               I                1
Number of electrons                        I               64
Number of alpha electrons                  I               32
Number of beta electrons                   I               32
Number of basis functions                  I              151
Number of independent functions            I              151
Number of point charges in /Mol/           I                0
Number of translation vectors              I                0
Atomic numbers                             I   N=          17
           8           6           6           6           6           6
           6           6           6           1           1           1
           1           1           1           1           1
Nuclear charges                            R   N=          17
  8.00000000E+00  6.00000000E+00  6.00000000E+00  6.00000000E+00  6.00000000E+00
  6.00000000E+00  6.00000000E+00  6.00000000E+00  6.00000000E+00  1.00000000E+00
  1.00000000E+00  1.00000000E+00  1.00000000E+00  1.00000000E+00  1.00000000E+00
  1.00000000E+00  1.00000000E+00
Current cartesian coordinates              R   N=          51
  5.25723263E+00 -1.66482272E+00 -4.91533954E-04 -7.02683598E-01  1.84018999E+00
  1.71140692E-04  9.62899552E-01 -2.41045297E-01 -1.13194825E-04 -3.30070830E+00
  1.33930071E+00  3.77082705E-04  3.14364916E-02 -2.72137987E+00 -2.15918015E-04
  2.12236877E-01  4.54522344E+00  3.07899659E-04 -4.23058929E+00 -1.12858499E+00
  2.75476847E-04 -2.55795034E+00 -3.17141945E+00 -1.69439655E-05  3.74473694E+00
  9.88443086E-02 -3.29114684E-04 -4.62190775E+00  2.91599141E+00  6.01639141E-04
  1.38692968E+00 -4.26483922E+00 -4.38998249E-04  1.35400366E+00  4.97699549E+00
 -1.66907349E+00 -1.40358776E+00  5.83209050E+00  4.06264140E-04  1.35405635E+00
  4.97679753E+00  1.66970635E+00 -6.26002757E+00 -1.45389991E+00  4.34449834E-04
 -3.27298435E+00 -5.09732363E+00 -1.00307624E-04  4.44938672E+00  2.06599654E+00
 -3.42206026E-04
Force Field                                I                0
Int Atom Types                             I   N=          17
           0           0           0           0           0           0
           0           0           0           0           0           0
           0           0           0           0           0
MM charges                                 R   N=          17
  0.00000000E+00  0.00000000E+00  0.00000000E+00  0.00000000E+00  0.00000000E+00
  0.00000000E+00  0.00000000E+00  0.00000000E+00  0.00000000E+00  0.00000000E+00
  0.00000000E+00  0.00000000E+00  0.00000000E+00  0.00000000E+00  0.00000000E+00
  0.00000000E+00  0.00000000E+00
Integer atomic weights                     I   N=          17
          16          12          12          12          12          12
          12          12          12           1           1           1
           1           1           1           1           1
Real atomic weights                        R   N=          17
  1.59949146E+01  1.20000000E+01  1.20000000E+01  1.20000000E+01  1.20000000E+01
  1.20000000E+01  1.20000000E+01  1.20000000E+01  1.20000000E+01  1.00782504E+00
  1.00782504E+00  1.00782504E+00  1.00782504E+00  1.00782504E+00  1.00782504E+00
  1.00782504E+00  1.00782504E+00
Atom fragment info                         I   N=          17
           0           0           0           0           0           0
           0           0           0           0           0           0
           0           0           0           0           0
Atom residue num                           I   N=          17
           0           0           0           0           0           0
           0           0           0           0           0           0
           0           0           0           0           0
Nuclear spins                              I   N=          17
           0           0           0           0           0           0
           0           0           0           1           1           1
           1           1           1           1           1
Nuclear ZEff                               R   N=          17
 -5.60000000E+00 -3.60000000E+00 -3.60000000E+00 -3.60000000E+00 -3.60000000E+00
 -3.60000000E+00 -3.60000000E+00 -3.60000000E+00 -3.60000000E+00 -1.00000000E+00
 -1.00000000E+00 -1.00000000E+00 -1.00000000E+00 -1.00000000E+00 -1.00000000E+00
 -1.00000000E+00 -1.00000000E+00
Nuclear QMom                               R   N=          17
  0.00000000E+00  0.00000000E+00  0.00000000E+00  0.00000000E+00  0.00000000E+00
  0.00000000E+00  0.00000000E+00  0.00000000E+00  0.00000000E+00  0.00000000E+00
  0.00000000E+00  0.00000000E+00  0.00000000E+00  0.00000000E+00  0.00000000E+00
  0.00000000E+00  0.00000000E+00
Nuclear GFac                               R   N=          17
  0.00000000E+00  0.00000000E+00  0.00000000E+00  0.00000000E+00  0.00000000E+00
  0.00000000E+00  0.00000000E+00  0.00000000E+00  0.00000000E+00  2.79284600E+00
  2.79284600E+00  2.79284600E+00  2.79284600E+00  2.79284600E+00  2.79284600E+00
  2.79284600E+00  2.79284600E+00
MicOpt                                     I   N=          17
          -1          -1          -1          -1          -1          -1
          -1          -1          -1          -1          -1          -1
          -1          -1          -1          -1          -1
Number of contracted shells                I               52
Number of primitive shells                 I              131
Pure/Cartesian d shells                    I                1
Pure/Cartesian f shells                    I                0
Highest angular momentum                   I                2
Largest degree of contraction              I                6
Shell types                                I   N=          52
           0          -1          -1           2           0          -1
          -1           2           0          -1          -1           2
           0          -1          -1           2           0          -1
          -1           2           0          -1          -1           2
           0          -1          -1           2           0          -1
          -1           2           0          -1          -1           2
           0           0           0           0           0           0
           0           0           0           0           0           0
           0           0           0           0
Number of primitives per shell             I   N=          52
           6           3           1           1           6           3
           1           1           6           3           1           1
           6           3           1           1           6           3
           1           1           6           3           1           1
           6           3           1           1           6           3
           1           1           6           3           1           1
           3           1           3           1           3           1
           3           1           3           1           3           1
           3           1           3           1
Shell to atom map                          I   N=          52
           1           1           1           1           2           2
           2           2           3           3           3           3
           4           4           4           4           5           5
           5           5           6           6           6           6
           7           7           7           7           8           8
           8           8           9           9           9           9
          10          10          11          11          12          12
          13          13          14          14          15          15
          16          16          17          17
Primitive exponents                        R   N=         131
  5.48467166E+03  8.25234946E+02  1.88046958E+02  5.29645000E+01  1.68975704E+01
  5.79963534E+00  1.55396162E+01  3.59993359E+00  1.01376175E+00  2.70005823E-01
  8.00000000E-01  3.04752488E+03  4.57369518E+02  1.03948685E+02  2.92101553E+01
  9.28666296E+00  3.16392696E+00  7.86827235E+00  1.88128854E+00  5.44249258E-01
  1.68714478E-01  8.00000000E-01  3.04752488E+03  4.57369518E+02  1.03948685E+02
  2.92101553E+01  9.28666296E+00  3.16392696E+00  7.86827235E+00  1.88128854E+00
  5.44249258E-01  1.68714478E-01  8.00000000E-01  3.04752488E+03  4.57369518E+02
  1.03948685E+02  2.92101553E+01  9.28666296E+00  3.16392696E+00  7.86827235E+00
  1.88128854E+00  5.44249258E-01  1.68714478E-01  8.00000000E-01  3.04752488E+03
  4.57369518E+02  1.03948685E+02  2.92101553E+01  9.28666296E+00  3.16392696E+00
  7.86827235E+00  1.88128854E+00  5.44249258E-01  1.68714478E-01  8.00000000E-01
  3.04752488E+03  4.57369518E+02  1.03948685E+02  2.92101553E+01  9.28666296E+00
  3.16392696E+00  7.86827235E+00  1.88128854E+00  5.44249258E-01  1.68714478E-01
  8.00000000E-01  3.04752488E+03  4.57369518E+02  1.03948685E+02  2.92101553E+01
  9.28666296E+00  3.16392696E+00  7.86827235E+00  1.88128854E+00  5.44249258E-01
  1.68714478E-01  8.00000000E-01  3.04752488E+03  4.57369518E+02  1.03948685E+02
  2.92101553E+01  9.28666296E+00  3.16392696E+00  7.86827235E+00  1.88128854E+00
  5.44249258E-01  1.68714478E-01  8.00000000E-01  3.04752488E+03  4.57369518E+02
  1.03948685E+02  2.92101553E+01  9.28666296E+00  3.16392696E+00  7.86827235E+00
  1.88128854E+00  5.44249258E-01  1.68714478E-01  8.00000000E-01  1.87311370E+01
  2.82539436E+00  6.40121692E-01  1.61277759E-01  1.87311370E+01  2.82539436E+00
  6.40121692E-01  1.61277759E-01  1.87311370E+01  2.82539436E+00  6.40121692E-01
  1.61277759E-01  1.87311370E+01  2.82539436E+00  6.40121692E-01  1.61277759E-01
  1.87311370E+01  2.82539436E+00  6.40121692E-01  1.61277759E-01  1.87311370E+01
  2.82539436E+00  6.40121692E-01  1.61277759E-01  1.87311370E+01  2.82539436E+00
  6.40121692E-01  1.61277759E-01  1.87311370E+01  2.82539436E+00  6.40121692E-01
  1.61277759E-01
Contraction coefficients                   R   N=         131
  1.83107443E-03  1.39501722E-02  6.84450781E-02  2.32714336E-01  4.70192898E-01
  3.58520853E-01 -1.10777550E-01 -1.48026263E-01  1.13076702E+00  1.00000000E+00
  1.00000000E+00  1.83473713E-03  1.40373228E-02  6.88426223E-02  2.32184443E-01
  4.67941348E-01  3.62311985E-01 -1.19332420E-01 -1.60854152E-01  1.14345644E+00
  1.00000000E+00  1.00000000E+00  1.83473713E-03  1.40373228E-02  6.88426223E-02
  2.32184443E-01  4.67941348E-01  3.62311985E-01 -1.19332420E-01 -1.60854152E-01
  1.14345644E+00  1.00000000E+00  1.00000000E+00  1.83473713E-03  1.40373228E-02
  6.88426223E-02  2.32184443E-01  4.67941348E-01  3.62311985E-01 -1.19332420E-01
 -1.60854152E-01  1.14345644E+00  1.00000000E+00  1.00000000E+00  1.83473713E-03
  1.40373228E-02  6.88426223E-02  2.32184443E-01  4.67941348E-01  3.62311985E-01
 -1.19332420E-01 -1.60854152E-01  1.14345644E+00  1.00000000E+00  1.00000000E+00
  1.83473713E-03  1.40373228E-02  6.88426223E-02  2.32184443E-01  4.67941348E-01
  3.62311985E-01 -1.19332420E-01 -1.60854152E-01  1.14345644E+00  1.00000000E+00
  1.00000000E+00  1.83473713E-03  1.40373228E-02  6.88426223E-02  2.32184443E-01
  4.67941348E-01  3.62311985E-01 -1.19332420E-01 -1.60854152E-01  1.14345644E+00
  1.00000000E+00  1.00000000E+00  1.83473713E-03  1.40373228E-02  6.88426223E-02
  2.32184443E-01  4.67941348E-01  3.62311985E-01 -1.19332420E-01 -1.60854152E-01
  1.14345644E+00  1.00000000E+00  1.00000000E+00  1.83473713E-03  1.40373228E-02
  6.88426223E-02  2.32184443E-01  4.67941348E-01  3.62311985E-01 -1.19332420E-01
 -1.60854152E-01  1.14345644E+00  1.00000000E+00  1.00000000E+00  3.34946043E-02
  2.34726953E-01  8.13757326E-01  1.00000000E+00  3.34946043E-02  2.34726953E-01
  8.13757326E-01  1.00000000E+00  3.34946043E-02  2.34726953E-01  8.13757326E-01
  1.00000000E+00  3.34946043E-02  2.34726953E-01  8.13757326E-01  1.00000000E+00
  3.34946043E-02  2.34726953E-01  8.13757326E-01  1.00000000E+00  3.34946043E-02
  2.34726953E-01  8.13757326E-01  1.00000000E+00  3.34946043E-02  2.34726953E-01
  8.13757326E-01  1.00000000E+00  3.34946043E-02  2.34726953E-01  8.13757326E-01
  1.00000000E+00
P(S=P) Contraction coefficients            R   N=         131
  0.00000000E+00  0.00000000E+00  0.00000000E+00  0.00000000E+00  0.00000000E+00
  0.00000000E+00  7.08742682E-02  3.39752839E-01  7.27158577E-01  1.00000000E+00
  0.00000000E+00  0.00000000E+00  0.00000000E+00  0.00000000E+00  0.00000000E+00
  0.00000000E+00  0.00000000E+00  6.89990666E-02  3.16423961E-01  7.44308291E-01
  1.00000000E+00  0.00000000E+00  0.00000000E+00  0.00000000E+00  0.00000000E+00
  0.00000000E+00  0.00000000E+00  0.00000000E+00  6.89990666E-02  3.16423961E-01
  7.44308291E-01  1.00000000E+00  0.00000000E+00  0.00000000E+00  0.00000000E+00
  0.00000000E+00  0.00000000E+00  0.00000000E+00  0.00000000E+00  6.89990666E-02
  3.16423961E-01  7.44308291E-01  1.00000000E+00  0.00000000E+00  0.00000000E+00
  0.00000000E+00  0.00000000E+00  0.00000000E+00  0.00000000E+00  0.00000000E+00
  6.89990666E-02  3.16423961E-01  7.44308291E-01  1.00000000E+00  0.00000000E+00
  0.00000000E+00  0.00000000E+00  0.00000000E+00  0.00000000E+00  0.00000000E+00
  0.00000000E+00  6.89990666E-02  3.16423961E-01  7.44308291E-01  1.00000000E+00
  0.00000000E+00  0.00000000E+00  0.00000000E+00  0.00000000E+00  0.00000000E+00
  0.00000000E+00  0.00000000E+00  6.89990666E-02  3.16423961E-01  7.44308291E-01
  1.00000000E+00  0.00000000E+00  0.00000000E+00  0.00000000E+00  0.00000000E+00
  0.00000000E+00  0.00000000E+00  0.00000000E+00  6.89990666E-02  3.16423961E-01
  7.44308291E-01  1.00000000E+00  0.00000000E+00  0.00000000E+00  0.00000000E+00
  0.00000000E+00  0.00000000E+00  0.00000000E+00  0.00000000E+00  6.89990666E-02
  3.16423961E-01  7.44308291E-01  1.00000000E+00  0.00000000E+00  0.00000000E+00
  0.00000000E+00  0.00000000E+00  0.00000000E+00  0.00000000E+00  0.00000000E+00
  0.00000000E+00  0.00000000E+00  0.00000000E+00  0.00000000E+00  0.00000000E+00
  0.00000000E+00  0.00000000E+00  0.00000000E+00  0.00000000E+00  0.00000000E+00
  0.00000000E+00  0.00000000E+00  0.00000000E+00  0.00000000E+00  0.00000000E+00
  0.00000000E+00  0.00000000E+00  0.00000000E+00  0.00000000E+00  0.00000000E+00
  0.00000000E+00  0.00000000E+00  0.00000000E+00  0.00000000E+00  0.00000000E+00
  0.00000000E+00
Coordinates of each shell                  R   N=         156
  5.25723263E+00 -1.66482272E+00 -4.91533954E-04  5.25723263E+00 -1.66482272E+00
 -4.91533954E-04  5.25723263E+00 -1.66482272E+00 -4.91533954E-04  5.25723263E+00
 -1.66482272E+00 -4.91533954E-04 -7.02683598E-01  1.84018999E+00  1.71140692E-04
 -7.02683598E-01  1.84018999E+00  1.71140692E-04 -7.02683598E-01  1.84018999E+00
  1.71140692E-04 -7.02683598E-01  1.84018999E+00  1.71140692E-04  9.62899552E-01
 -2.41045297E-01 -1.13194825E-04  9.62899552E-01 -2.41045297E-01 -1.13194825E-04
  9.62899552E-01 -2.41045297E-01 -1.13194825E-04  9.62899552E-01 -2.41045297E-01
 -1.13194825E-04 -3.30070830E+00  1.33930071E+00  3.77082705E-04 -3.30070830E+00
  1.33930071E+00  3.77082705E-04 -3.30070830E+00  1.33930071E+00  3.77082705E-04
 -3.30070830E+00  1.33930071E+00  3.77082705E-04  3.14364916E-02 -2.72137987E+00
 -2.15918015E-04  3.14364916E-02 -2.72137987E+00 -2.15918015E-04  3.14364916E-02
 -2.72137987E+00 -2.15918015E-04  3.14364916E-02 -2.72137987E+00 -2.15918015E-04
  2.12236877E-01  4.54522344E+00  3.07899659E-04  2.12236877E-01  4.54522344E+00
  3.07899659E-04  2.12236877E-01  4.54522344E+00  3.07899659E-04  2.12236877E-01
  4.54522344E+00  3.07899659E-04 -4.23058929E+00 -1.12858499E+00  2.75476847E-04
 -4.23058929E+00 -1.12858499E+00  2.75476847E-04 -4.23058929E+00 -1.12858499E+00
  2.75476847E-04 -4.23058929E+00 -1.12858499E+00  2.75476847E-04 -2.55795034E+00
 -3.17141945E+00 -1.69439655E-05 -2.55795034E+00 -3.17141945E+00 -1.69439655E-05
 -2.55795034E+00 -3.17141945E+00 -1.69439655E-05 -2.55795034E+00 -3.17141945E+00
 -1.69439655E-05  3.74473694E+00  9.88443086E-02 -3.29114684E-04  3.74473694E+00
  9.88443086E-02 -3.29114684E-04  3.74473694E+00  9.88443086E-02 -3.29114684E-04
  3.74473694E+00  9.88443086E-02 -3.29114684E-04 -4.62190775E+00  2.91599141E+00
  6.01639141E-04 -4.62190775E+00  2.91599141E+00  6.01639141E-04  1.38692968E+00
 -4.26483922E+00 -4.38998249E-04  1.38692968E+00 -4.26483922E+00 -4.38998249E-04
  1.35400366E+00  4.97699549E+00 -1.66907349E+00  1.35400366E+00  4.97699549E+00
 -1.66907349E+00 -1.40358776E+00  5.83209050E+00  4.06264140E-04 -1.40358776E+00
  5.83209050E+00  4.06264140E-04  1.35405635E+00  4.97679753E+00  1.66970635E+00
  1.35405635E+00  4.97679753E+00  1.66970635E+00 -6.26002757E+00 -1.45389991E+00
  4.34449834E-04 -6.26002757E+00 -1.45389991E+00  4.34449834E-04 -3.27298435E+00
 -5.09732363E+00 -1.00307624E-04 -3.27298435E+00 -5.09732363E+00 -1.00307624E-04
  4.44938672E+00  2.06599654E+00 -3.42206026E-04  4.44938672E+00  2.06599654E+00
 -3.42206026E-04
Constraint Structure                       R   N=          51
  5.25723263E+00 -1.66482272E+00 -4.91533954E-04 -7.02683598E-01  1.84018999E+00
  1.71140692E-04  9.62899552E-01 -2.41045297E-01 -1.13194825E-04 -3.30070830E+00
  1.33930071E+00  3.77082705E-04  3.14364916E-02 -2.72137987E+00 -2.15918015E-04
  2.12236877E-01  4.54522344E+00  3.07899659E-04 -4.23058929E+00 -1.12858499E+00
  2.75476847E-04 -2.55795034E+00 -3.17141945E+00 -1.69439655E-05  3.74473694E+00
  9.88443086E-02 -3.29114684E-04 -4.62190775E+00  2.91599141E+00  6.01639141E-04
  1.38692968E+00 -4.26483922E+00 -4.38998249E-04  1.35400366E+00  4.97699549E+00
 -1.66907349E+00 -1.40358776E+00  5.83209050E+00  4.06264140E-04  1.35405635E+00
  4.97679753E+00  1.66970635E+00 -6.26002757E+00 -1.45389991E+00  4.34449834E-04
 -3.27298435E+00 -5.09732363E+00 -1.00307624E-04  4.44938672E+00  2.06599654E+00
 -3.42206026E-04
Num ILSW                                   I              100
ILSW                                       I   N=         100
           0           1           0           1           2           0
           0           0           0           0           0          -1
           0           0           0           0           0           0
           0           0           0           0           1           0
           1           0           0           0           0           0
           0           0      100000           0          -1           0
           0           0           0           0           0           0
           0           0           0           1           1           0
           0           0           1           0           0           0
           0           0           4          40           0           0
           0           0           0           0           0           0
           0           0           0           0           0           0
           0           0           0           0           0           0
           0           0           0           0           0           0
           0           0           0           0           0           0
           0           0           0           0           0           0
           0           0           0           0
Num RLSW                                   I               40
RLSW                                       R   N=          40
  1.00000000E+00  1.00000000E+00  1.00000000E+00  1.00000000E+00  1.00000000E+00
  0.00000000E+00  0.00000000E+00  1.00000000E+00  0.00000000E+00  0.00000000E+00
  0.00000000E+00  0.00000000E+00  1.00000000E+00  0.00000000E+00  0.00000000E+00
  0.00000000E+00  0.00000000E+00  1.00000000E+00  0.00000000E+00  0.00000000E+00
  0.00000000E+00  0.00000000E+00  1.00000000E+00  0.00000000E+00  0.00000000E+00
  0.00000000E+00  0.00000000E+00  1.00000000E+00  0.00000000E+00  0.00000000E+00
  0.00000000E+00  0.00000000E+00  0.00000000E+00  0.00000000E+00  0.00000000E+00
  0.00000000E+00  0.00000000E+00  0.00000000E+00  1.00000000E+00  1.00000000E+00
MxBond                                     I                4
NBond                                      I   N=          17
           1           3           3           3           3           4
           3           3           3           1           1           1
           1           1           1           1           1
IBond                                      I   N=          68
           9           0           0           0           3           4
           6           0           2           5           9           0
           2           7          10           0           3           8
          11           0           2          12          13          14
           4           8          15           0           5           7
          16           0           1           3          17           0
           4           0           0           0           5           0
           0           0           6           0           0           0
           6           0           0           0           6           0
           0           0           7           0           0           0
           8           0           0           0           9           0
           0           0
RBond                                      R   N=          68
  2.00000000E+00  0.00000000E+00  0.00000000E+00  0.00000000E+00  1.50000000E+00
  1.50000000E+00  1.00000000E+00  0.00000000E+00  1.50000000E+00  1.50000000E+00
  1.00000000E+00  0.00000000E+00  1.50000000E+00  1.50000000E+00  1.00000000E+00
  0.00000000E+00  1.50000000E+00  1.50000000E+00  1.00000000E+00  0.00000000E+00
  1.00000000E+00  1.00000000E+00  1.00000000E+00  1.00000000E+00  1.50000000E+00
  1.50000000E+00  1.00000000E+00  0.00000000E+00  1.50000000E+00  1.50000000E+00
  1.00000000E+00  0.00000000E+00  2.00000000E+00  1.00000000E+00  1.00000000E+00
  0.00000000E+00  1.00000000E+00  0.00000000E+00  0.00000000E+00  0.00000000E+00
  1.00000000E+00  0.00000000E+00  0.00000000E+00  0.00000000E+00  1.00000000E+00
  0.00000000E+00  0.00000000E+00  0.00000000E+00  1.00000000E+00  0.00000000E+00
  0.00000000E+00  0.00000000E+00  1.00000000E+00  0.00000000E+00  0.00000000E+00
  0.00000000E+00  1.00000000E+00  0.00000000E+00  0.00000000E+00  0.00000000E+00
  1.00000000E+00  0.00000000E+00  0.00000000E+00  0.00000000E+00  1.00000000E+00
  0.00000000E+00  0.00000000E+00  0.00000000E+00
Virial Ratio                               R      2.002364170070399E+00
SCF Energy                                 R     -3.824633281375095E+02
MP2 Energy                                 R     -3.836544978850455E+02
Total Energy                               R     -3.836544978850455E+02
Post-SCF wavefunction norm                 R      1.686220878633009E+00
RMS Force                                  R      2.687994624462634E-07
RMS Density                                R      2.285910020159432E-09
External E-field                           R   N=          35
  0.00000000E+00  0.00000000E+00  0.00000000E+00  0.00000000E+00  0.00000000E+00
  0.00000000E+00  0.00000000E+00  0.00000000E+00  0.00000000E+00  0.00000000E+00
  0.00000000E+00  0.00000000E+00  0.00000000E+00  0.00000000E+00  0.00000000E+00
  0.00000000E+00  0.00000000E+00  0.00000000E+00  0.00000000E+00  0.00000000E+00
  0.00000000E+00  0.00000000E+00  0.00000000E+00  0.00000000E+00  0.00000000E+00
  0.00000000E+00  0.00000000E+00  0.00000000E+00  0.00000000E+00  0.00000000E+00
  0.00000000E+00  0.00000000E+00  0.00000000E+00  0.00000000E+00  0.00000000E+00
IOpCl                                      I                0
IROHF                                      I                0
Alpha Orbital Energies                     R   N=         151
 -2.05579960E+01 -1.13344455E+01 -1.12672346E+01 -1.12552191E+01 -1.12498849E+01
 -1.12461931E+01 -1.12440927E+01 -1.12426145E+01 -1.12425181E+01 -1.37310636E+00
 -1.16697815E+00 -1.06133780E+00 -1.03508988E+00 -9.51903141E-01 -8.85467326E-01
 -8.17202148E-01 -7.82566728E-01 -7.03992352E-01 -6.68684271E-01 -6.40323521E-01
 -6.13602834E-01 -6.04180858E-01 -5.94535100E-01 -5.81580564E-01 -5.56001522E-01
 -5.32952419E-01 -5.14182399E-01 -4.98029631E-01 -4.85421634E-01 -4.19138147E-01
 -3.42644767E-01 -3.36885169E-01  7.66230946E-02  1.36155682E-01  2.15927778E-01
  2.32339929E-01  2.36707494E-01  2.78263421E-01  3.03588710E-01  3.09380049E-01
  3.16339305E-01  3.24375111E-01  3.44051846E-01  3.79910986E-01  3.85030264E-01
  4.46705224E-01  4.52327959E-01  4.76214480E-01  5.06293390E-01  5.38416488E-01
  5.69870341E-01  6.94895254E-01  7.04879263E-01  7.20278864E-01  7.23205900E-01
  7.50167437E-01  7.62774910E-01  7.70675850E-01  7.77685749E-01  8.17693348E-01
  8.27752783E-01  8.31515627E-01  8.54007564E-01  8.54515846E-01  8.84869571E-01
  9.16032334E-01  9.25336492E-01  9.57179422E-01  9.71765544E-01  9.97125493E-01
  1.04705166E+00  1.07442317E+00  1.08403272E+00  1.09418215E+00  1.10648171E+00
  1.11133339E+00  1.12525625E+00  1.14449269E+00  1.15905003E+00  1.19278986E+00
  1.20160299E+00  1.22964686E+00  1.24189466E+00  1.28339128E+00  1.30595301E+00
  1.30777256E+00  1.32631080E+00  1.36369485E+00  1.43148252E+00  1.43863487E+00
  1.49695281E+00  1.50167766E+00  1.57114951E+00  1.59901876E+00  1.63891993E+00
  1.65958606E+00  1.70741340E+00  1.71269204E+00  1.74589617E+00  1.75363412E+00
  1.76945268E+00  1.81716897E+00  1.92523105E+00  2.02384440E+00  2.04390214E+00
  2.04525350E+00  2.08643476E+00  2.14308214E+00  2.15487848E+00  2.15841018E+00
  2.20480044E+00  2.22927449E+00  2.25370379E+00  2.29693137E+00  2.33961316E+00
  2.36050701E+00  2.40022287E+00  2.43847079E+00  2.45893691E+00  2.49929100E+00
  2.52382005E+00  2.56303597E+00  2.56645443E+00  2.60460454E+00  2.63754858E+00
  2.65532828E+00  2.69387554E+00  2.76746212E+00  2.77584821E+00  2.86290177E+00
  2.92686779E+00  2.94261460E+00  2.99729062E+00  3.00283665E+00  3.08118635E+00
  3.11568649E+00  3.12144059E+00  3.23719940E+00  3.30967394E+00  3.34300825E+00
  3.52355055E+00  3.78449573E+00  4.32507686E+00  4.48758579E+00  4.51523944E+00
  4.53982191E+00  4.64126006E+00  4.67044001E+00  4.78310178E+00  4.82932405E+00
  5.14587559E+00
Alpha MO coefficients                      R   N=       22801
  9.94698985E-01  2.08962948E-02 -9.95298218E-04  1.12424474E-03  1.04490971E-07
  4.61309371E-03  1.95779766E-05 -5.93477962E-06 -3.20850635E-09 -3.78293211E-03
 -3.73409166E-03 -4.18416102E-03 -1.42080678E-04 -4.12883314E-08  2.25132567E-08
  2.75933025E-07  7.40241514E-07  1.64545929E-05 -9.50491615E-06 -2.51079021E-09
  1.96415770E-04 -1.39939476E-05 -5.06461073E-05 -7.36572309E-11 -4.05436592E-06
  2.06536026E-05  2.95578891E-06 -7.19113683E-06  3.76536863E-10  2.51744674E-09
  7.23306537E-07  6.46385746E-06 -1.83644632E-05  1.01626678E-05  9.69680898E-10
 -1.10701534E-04 -1.02732162E-04 -2.52149572E-04 -5.32683277E-09 -2.04491116E-05
  1.75252257E-05 -1.58921297E-05  7.67130597E-05  3.34314854E-09 -4.67819022E-09
  2.50389667E-06  1.32966036E-05 -1.36527337E-08  8.73108169E-07  2.05313279E-10
 -1.54985183E-04 -4.80257213E-05  5.59673555E-05  7.87375151E-09  7.57089165E-07
 -7.01491387E-07  4.76102674E-06  1.51298146E-06  3.93253979E-10 -6.12296847E-10
 -2.23297846E-06 -1.58224694E-06  6.21041635E-07  2.16695632E-06  6.35758379E-10
  6.10904063E-05 -1.03941279E-04 -2.41900526E-04 -1.15096083E-08  4.42206450E-06
 -3.61033871E-05 -2.18938394E-06 -6.03100011E-07 -9.45247637E-10 -3.52608675E-09
  4.44216668E-06  1.76336067E-05  1.18942236E-05 -1.14641421E-05 -1.16192819E-09
 -5.15383435E-05 -4.86642648E-05  5.90163238E-05  2.75960278E-09  7.58526333E-06
  5.12196105E-06  8.12483175E-06 -4.72798162E-06  4.14836407E-10 -2.13797096E-10
 -1.19724131E-06 -5.97142079E-06 -2.68963880E-06  1.13307623E-06  4.48783502E-10
  3.85988985E-05  5.72789725E-05  5.72960724E-05 -1.41278932E-09 -1.08849058E-06
 -8.54902623E-08 -2.22044289E-06  1.53297410E-06 -4.91288820E-11  1.74661638E-10
  2.33563628E-06  1.19564652E-05 -3.78703408E-07 -2.56331379E-06 -3.84861229E-10
 -1.65644434E-04 -1.20464786E-04  3.84922880E-05  1.50747680E-08 -4.93049669E-06
  4.13421668E-06  5.31067482E-06  1.77901780E-06  1.32321961E-09 -2.15819876E-10
 -5.37388839E-06  4.70529327E-04 -1.28242802E-05  2.59059843E-05  1.44647301E-09
 -2.24004070E-04 -4.89498395E-04  4.63342664E-04  5.20501928E-08 -3.51068679E-04
 -4.50865084E-04 -4.28633093E-05  3.89072388E-04  3.79015789E-08 -4.19725808E-08
 -2.64136243E-07 -1.29832362E-05  2.03216184E-05 -1.79764429E-04  1.21563909E-05
  3.15800265E-06 -4.78492977E-06 -3.42834674E-05  1.21552041E-05  3.16483745E-06
  5.40211129E-06  1.94170622E-05  5.66337067E-06  1.55028815E-05 -4.35271891E-05
 -9.09058134E-05 -2.52514000E-04  6.64234359E-04 -1.72944184E-04  1.96111970E-04
  1.49244066E-08 -3.31321843E-03  1.17502438E-03 -1.39917010E-03 -1.13146029E-07
  1.27644702E-04  3.23002844E-05  4.59451267E-04  1.66006493E-04  3.28838611E-08
 -2.39659268E-08 -7.47832372E-06  9.68884269E-05 -1.83272673E-04 -1.31181383E-05
  1.40949679E-08 -4.34827148E-03  7.41287004E-04  1.90073885E-03  7.05167737E-08
 -4.15744200E-05  3.73219505E-05  1.27185025E-06 -3.78500086E-05  3.39374736E-09
  6.17299828E-09  3.94265754E-03  2.39708764E-04 -4.88394342E-05 -1.08694155E-04
  1.05993890E-09  3.70808691E-03 -9.74497425E-04  2.81617507E-03  2.41043124E-07
 -6.27849216E-04 -2.85236089E-04 -1.33907264E-04 -1.16830776E-04  3.93416107E-08
 -9.71747798E-10 -2.90128440E-05 -1.93309187E-04  5.57685911E-05  2.14128587E-05
 -3.99324791E-09  2.88682916E-03  1.27005010E-03 -9.71902247E-04 -1.90882801E-07