136604                                                                  
Freq      RMP2-FC                                                     6-31G(d)            
Number of atoms                            I               23
Info1-9                                    I   N=           9
          35          33        1002           0           0         100
           6           2           1
Charge                                     I                0
Multiplicity                               I                1
Number of electrons                        I               74
Number of alpha electrons                  I               37
Number of beta electrons                   I               37
Number of basis functions                  I              176
Number of independent functions            I              176
Number of point charges in /Mol/           I                0
Number of translation vectors              I                0
Atomic numbers                             I   N=          23
           7           6           6           6           6           6
           6           6           6           6           1           1
           1           1           1           1           1           1
           1           1           1           1           1
Nuclear charges                            R   N=          23
  7.00000000E+00  6.00000000E+00  6.00000000E+00  6.00000000E+00  6.00000000E+00
  6.00000000E+00  6.00000000E+00  6.00000000E+00  6.00000000E+00  6.00000000E+00
  1.00000000E+00  1.00000000E+00  1.00000000E+00  1.00000000E+00  1.00000000E+00
  1.00000000E+00  1.00000000E+00  1.00000000E+00  1.00000000E+00  1.00000000E+00
  1.00000000E+00  1.00000000E+00  1.00000000E+00
Current cartesian coordinates              R   N=          69
  3.07427839E+00  1.15077075E+00 -8.87035190E-01  5.72783827E-01  2.80774482E-01
 -3.90599837E-01 -1.45622478E+00  1.99574397E+00 -1.59241577E-01  1.52323582E-01
 -2.34425081E+00 -2.17694732E-01 -3.88888857E+00  1.05484937E+00  2.67582030E-01
 -2.30093147E+00 -3.21047820E+00  2.53540162E-01 -4.31809507E+00 -1.53449115E+00
  4.95211939E-01 -1.02175012E+00  4.80487122E+00 -3.76628378E-01  2.28134100E+00
 -4.19477860E+00 -5.84553128E-01  4.72866522E+00  1.15874723E+00  1.34124089E+00
 -5.45859395E+00  2.37360308E+00  4.44215932E-01 -2.63385124E+00 -5.23720988E+00
  3.83554497E-01  3.00776096E+00  2.92930250E+00 -1.61395521E+00 -6.21644068E+00
 -2.24151655E+00  8.40931818E-01  4.44315019E-01  5.45863441E+00  9.30416020E-01
 -4.49794675E-01  5.36032618E+00 -2.29002413E+00 -2.75812958E+00  5.83325492E+00
  6.39702442E-02  3.66904506E+00 -3.42727461E+00 -1.90764687E+00  3.26254071E+00
 -4.61431492E+00  1.19064164E+00  1.55668718E+00 -5.98342307E+00 -1.32480150E+00
  3.95623060E+00  2.23630009E+00  2.94249556E+00  6.55282972E+00  1.96882152E+00
  8.07261521E-01  5.05211046E+00 -7.77824015E-01  1.96904255E+00
Force Field                                I                0
Int Atom Types                             I   N=          23
           0           0           0           0           0           0
           0           0           0           0           0           0
           0           0           0           0           0           0
           0           0           0           0           0
MM charges                                 R   N=          23
  0.00000000E+00  0.00000000E+00  0.00000000E+00  0.00000000E+00  0.00000000E+00
  0.00000000E+00  0.00000000E+00  0.00000000E+00  0.00000000E+00  0.00000000E+00
  0.00000000E+00  0.00000000E+00  0.00000000E+00  0.00000000E+00  0.00000000E+00
  0.00000000E+00  0.00000000E+00  0.00000000E+00  0.00000000E+00  0.00000000E+00
  0.00000000E+00  0.00000000E+00  0.00000000E+00
Integer atomic weights                     I   N=          23
          14          12          12          12          12          12
          12          12          12          12           1           1
           1           1           1           1           1           1
           1           1           1           1           1
Real atomic weights                        R   N=          23
  1.40030740E+01  1.20000000E+01  1.20000000E+01  1.20000000E+01  1.20000000E+01
  1.20000000E+01  1.20000000E+01  1.20000000E+01  1.20000000E+01  1.20000000E+01
  1.00782504E+00  1.00782504E+00  1.00782504E+00  1.00782504E+00  1.00782504E+00
  1.00782504E+00  1.00782504E+00  1.00782504E+00  1.00782504E+00  1.00782504E+00
  1.00782504E+00  1.00782504E+00  1.00782504E+00
Atom fragment info                         I   N=          23
           0           0           0           0           0           0
           0           0           0           0           0           0
           0           0           0           0           0           0
           0           0           0           0           0
Atom residue num                           I   N=          23
           0           0           0           0           0           0
           0           0           0           0           0           0
           0           0           0           0           0           0
           0           0           0           0           0
Nuclear spins                              I   N=          23
           2           0           0           0           0           0
           0           0           0           0           1           1
           1           1           1           1           1           1
           1           1           1           1           1
Nuclear ZEff                               R   N=          23
 -4.55000000E+00 -3.60000000E+00 -3.60000000E+00 -3.60000000E+00 -3.60000000E+00
 -3.60000000E+00 -3.60000000E+00 -3.60000000E+00 -3.60000000E+00 -3.60000000E+00
 -1.00000000E+00 -1.00000000E+00 -1.00000000E+00 -1.00000000E+00 -1.00000000E+00
 -1.00000000E+00 -1.00000000E+00 -1.00000000E+00 -1.00000000E+00 -1.00000000E+00
 -1.00000000E+00 -1.00000000E+00 -1.00000000E+00
Nuclear QMom                               R   N=          23
  2.04400000E+00  0.00000000E+00  0.00000000E+00  0.00000000E+00  0.00000000E+00
  0.00000000E+00  0.00000000E+00  0.00000000E+00  0.00000000E+00  0.00000000E+00
  0.00000000E+00  0.00000000E+00  0.00000000E+00  0.00000000E+00  0.00000000E+00
  0.00000000E+00  0.00000000E+00  0.00000000E+00  0.00000000E+00  0.00000000E+00
  0.00000000E+00  0.00000000E+00  0.00000000E+00
Nuclear GFac                               R   N=          23
  4.03761000E-01  0.00000000E+00  0.00000000E+00  0.00000000E+00  0.00000000E+00
  0.00000000E+00  0.00000000E+00  0.00000000E+00  0.00000000E+00  0.00000000E+00
  2.79284600E+00  2.79284600E+00  2.79284600E+00  2.79284600E+00  2.79284600E+00
  2.79284600E+00  2.79284600E+00  2.79284600E+00  2.79284600E+00  2.79284600E+00
  2.79284600E+00  2.79284600E+00  2.79284600E+00
MicOpt                                     I   N=          23
          -1          -1          -1          -1          -1          -1
          -1          -1          -1          -1          -1          -1
          -1          -1          -1          -1          -1          -1
          -1          -1          -1          -1          -1
Number of contracted shells                I               66
Number of primitive shells                 I              162
Pure/Cartesian d shells                    I                1
Pure/Cartesian f shells                    I                0
Highest angular momentum                   I                2
Largest degree of contraction              I                6
Shell types                                I   N=          66
           0          -1          -1           2           0          -1
          -1           2           0          -1          -1           2
           0          -1          -1           2           0          -1
          -1           2           0          -1          -1           2
           0          -1          -1           2           0          -1
          -1           2           0          -1          -1           2
           0          -1          -1           2           0           0
           0           0           0           0           0           0
           0           0           0           0           0           0
           0           0           0           0           0           0
           0           0           0           0           0           0
Number of primitives per shell             I   N=          66
           6           3           1           1           6           3
           1           1           6           3           1           1
           6           3           1           1           6           3
           1           1           6           3           1           1
           6           3           1           1           6           3
           1           1           6           3           1           1
           6           3           1           1           3           1
           3           1           3           1           3           1
           3           1           3           1           3           1
           3           1           3           1           3           1
           3           1           3           1           3           1
Shell to atom map                          I   N=          66
           1           1           1           1           2           2
           2           2           3           3           3           3
           4           4           4           4           5           5
           5           5           6           6           6           6
           7           7           7           7           8           8
           8           8           9           9           9           9
          10          10          10          10          11          11
          12          12          13          13          14          14
          15          15          16          16          17          17
          18          18          19          19          20          20
          21          21          22          22          23          23
Primitive exponents                        R   N=         162
  4.17351146E+03  6.27457911E+02  1.42902093E+02  4.02343293E+01  1.28202129E+01
  4.39043701E+00  1.16263619E+01  2.71627981E+00  7.72218397E-01  2.12031498E-01
  8.00000000E-01  3.04752488E+03  4.57369518E+02  1.03948685E+02  2.92101553E+01
  9.28666296E+00  3.16392696E+00  7.86827235E+00  1.88128854E+00  5.44249258E-01
  1.68714478E-01  8.00000000E-01  3.04752488E+03  4.57369518E+02  1.03948685E+02
  2.92101553E+01  9.28666296E+00  3.16392696E+00  7.86827235E+00  1.88128854E+00
  5.44249258E-01  1.68714478E-01  8.00000000E-01  3.04752488E+03  4.57369518E+02
  1.03948685E+02  2.92101553E+01  9.28666296E+00  3.16392696E+00  7.86827235E+00
  1.88128854E+00  5.44249258E-01  1.68714478E-01  8.00000000E-01  3.04752488E+03
  4.57369518E+02  1.03948685E+02  2.92101553E+01  9.28666296E+00  3.16392696E+00
  7.86827235E+00  1.88128854E+00  5.44249258E-01  1.68714478E-01  8.00000000E-01
  3.04752488E+03  4.57369518E+02  1.03948685E+02  2.92101553E+01  9.28666296E+00
  3.16392696E+00  7.86827235E+00  1.88128854E+00  5.44249258E-01  1.68714478E-01
  8.00000000E-01  3.04752488E+03  4.57369518E+02  1.03948685E+02  2.92101553E+01
  9.28666296E+00  3.16392696E+00  7.86827235E+00  1.88128854E+00  5.44249258E-01
  1.68714478E-01  8.00000000E-01  3.04752488E+03  4.57369518E+02  1.03948685E+02
  2.92101553E+01  9.28666296E+00  3.16392696E+00  7.86827235E+00  1.88128854E+00
  5.44249258E-01  1.68714478E-01  8.00000000E-01  3.04752488E+03  4.57369518E+02
  1.03948685E+02  2.92101553E+01  9.28666296E+00  3.16392696E+00  7.86827235E+00
  1.88128854E+00  5.44249258E-01  1.68714478E-01  8.00000000E-01  3.04752488E+03
  4.57369518E+02  1.03948685E+02  2.92101553E+01  9.28666296E+00  3.16392696E+00
  7.86827235E+00  1.88128854E+00  5.44249258E-01  1.68714478E-01  8.00000000E-01
  1.87311370E+01  2.82539436E+00  6.40121692E-01  1.61277759E-01  1.87311370E+01
  2.82539436E+00  6.40121692E-01  1.61277759E-01  1.87311370E+01  2.82539436E+00
  6.40121692E-01  1.61277759E-01  1.87311370E+01  2.82539436E+00  6.40121692E-01
  1.61277759E-01  1.87311370E+01  2.82539436E+00  6.40121692E-01  1.61277759E-01
  1.87311370E+01  2.82539436E+00  6.40121692E-01  1.61277759E-01  1.87311370E+01
  2.82539436E+00  6.40121692E-01  1.61277759E-01  1.87311370E+01  2.82539436E+00
  6.40121692E-01  1.61277759E-01  1.87311370E+01  2.82539436E+00  6.40121692E-01
  1.61277759E-01  1.87311370E+01  2.82539436E+00  6.40121692E-01  1.61277759E-01
  1.87311370E+01  2.82539436E+00  6.40121692E-01  1.61277759E-01  1.87311370E+01
  2.82539436E+00  6.40121692E-01  1.61277759E-01  1.87311370E+01  2.82539436E+00
  6.40121692E-01  1.61277759E-01
Contraction coefficients                   R   N=         162
  1.83477216E-03  1.39946270E-02  6.85865518E-02  2.32240873E-01  4.69069948E-01
  3.60455199E-01 -1.14961182E-01 -1.69117479E-01  1.14585195E+00  1.00000000E+00
  1.00000000E+00  1.83473713E-03  1.40373228E-02  6.88426223E-02  2.32184443E-01
  4.67941348E-01  3.62311985E-01 -1.19332420E-01 -1.60854152E-01  1.14345644E+00
  1.00000000E+00  1.00000000E+00  1.83473713E-03  1.40373228E-02  6.88426223E-02
  2.32184443E-01  4.67941348E-01  3.62311985E-01 -1.19332420E-01 -1.60854152E-01
  1.14345644E+00  1.00000000E+00  1.00000000E+00  1.83473713E-03  1.40373228E-02
  6.88426223E-02  2.32184443E-01  4.67941348E-01  3.62311985E-01 -1.19332420E-01
 -1.60854152E-01  1.14345644E+00  1.00000000E+00  1.00000000E+00  1.83473713E-03
  1.40373228E-02  6.88426223E-02  2.32184443E-01  4.67941348E-01  3.62311985E-01
 -1.19332420E-01 -1.60854152E-01  1.14345644E+00  1.00000000E+00  1.00000000E+00
  1.83473713E-03  1.40373228E-02  6.88426223E-02  2.32184443E-01  4.67941348E-01
  3.62311985E-01 -1.19332420E-01 -1.60854152E-01  1.14345644E+00  1.00000000E+00
  1.00000000E+00  1.83473713E-03  1.40373228E-02  6.88426223E-02  2.32184443E-01
  4.67941348E-01  3.62311985E-01 -1.19332420E-01 -1.60854152E-01  1.14345644E+00
  1.00000000E+00  1.00000000E+00  1.83473713E-03  1.40373228E-02  6.88426223E-02
  2.32184443E-01  4.67941348E-01  3.62311985E-01 -1.19332420E-01 -1.60854152E-01
  1.14345644E+00  1.00000000E+00  1.00000000E+00  1.83473713E-03  1.40373228E-02
  6.88426223E-02  2.32184443E-01  4.67941348E-01  3.62311985E-01 -1.19332420E-01
 -1.60854152E-01  1.14345644E+00  1.00000000E+00  1.00000000E+00  1.83473713E-03
  1.40373228E-02  6.88426223E-02  2.32184443E-01  4.67941348E-01  3.62311985E-01
 -1.19332420E-01 -1.60854152E-01  1.14345644E+00  1.00000000E+00  1.00000000E+00
  3.34946043E-02  2.34726953E-01  8.13757326E-01  1.00000000E+00  3.34946043E-02
  2.34726953E-01  8.13757326E-01  1.00000000E+00  3.34946043E-02  2.34726953E-01
  8.13757326E-01  1.00000000E+00  3.34946043E-02  2.34726953E-01  8.13757326E-01
  1.00000000E+00  3.34946043E-02  2.34726953E-01  8.13757326E-01  1.00000000E+00
  3.34946043E-02  2.34726953E-01  8.13757326E-01  1.00000000E+00  3.34946043E-02
  2.34726953E-01  8.13757326E-01  1.00000000E+00  3.34946043E-02  2.34726953E-01
  8.13757326E-01  1.00000000E+00  3.34946043E-02  2.34726953E-01  8.13757326E-01
  1.00000000E+00  3.34946043E-02  2.34726953E-01  8.13757326E-01  1.00000000E+00
  3.34946043E-02  2.34726953E-01  8.13757326E-01  1.00000000E+00  3.34946043E-02
  2.34726953E-01  8.13757326E-01  1.00000000E+00  3.34946043E-02  2.34726953E-01
  8.13757326E-01  1.00000000E+00
P(S=P) Contraction coefficients            R   N=         162
  0.00000000E+00  0.00000000E+00  0.00000000E+00  0.00000000E+00  0.00000000E+00
  0.00000000E+00  6.75797439E-02  3.23907296E-01  7.40895140E-01  1.00000000E+00
  0.00000000E+00  0.00000000E+00  0.00000000E+00  0.00000000E+00  0.00000000E+00
  0.00000000E+00  0.00000000E+00  6.89990666E-02  3.16423961E-01  7.44308291E-01
  1.00000000E+00  0.00000000E+00  0.00000000E+00  0.00000000E+00  0.00000000E+00
  0.00000000E+00  0.00000000E+00  0.00000000E+00  6.89990666E-02  3.16423961E-01
  7.44308291E-01  1.00000000E+00  0.00000000E+00  0.00000000E+00  0.00000000E+00
  0.00000000E+00  0.00000000E+00  0.00000000E+00  0.00000000E+00  6.89990666E-02
  3.16423961E-01  7.44308291E-01  1.00000000E+00  0.00000000E+00  0.00000000E+00
  0.00000000E+00  0.00000000E+00  0.00000000E+00  0.00000000E+00  0.00000000E+00
  6.89990666E-02  3.16423961E-01  7.44308291E-01  1.00000000E+00  0.00000000E+00
  0.00000000E+00  0.00000000E+00  0.00000000E+00  0.00000000E+00  0.00000000E+00
  0.00000000E+00  6.89990666E-02  3.16423961E-01  7.44308291E-01  1.00000000E+00
  0.00000000E+00  0.00000000E+00  0.00000000E+00  0.00000000E+00  0.00000000E+00
  0.00000000E+00  0.00000000E+00  6.89990666E-02  3.16423961E-01  7.44308291E-01
  1.00000000E+00  0.00000000E+00  0.00000000E+00  0.00000000E+00  0.00000000E+00
  0.00000000E+00  0.00000000E+00  0.00000000E+00  6.89990666E-02  3.16423961E-01
  7.44308291E-01  1.00000000E+00  0.00000000E+00  0.00000000E+00  0.00000000E+00
  0.00000000E+00  0.00000000E+00  0.00000000E+00  0.00000000E+00  6.89990666E-02
  3.16423961E-01  7.44308291E-01  1.00000000E+00  0.00000000E+00  0.00000000E+00
  0.00000000E+00  0.00000000E+00  0.00000000E+00  0.00000000E+00  0.00000000E+00
  6.89990666E-02  3.16423961E-01  7.44308291E-01  1.00000000E+00  0.00000000E+00
  0.00000000E+00  0.00000000E+00  0.00000000E+00  0.00000000E+00  0.00000000E+00
  0.00000000E+00  0.00000000E+00  0.00000000E+00  0.00000000E+00  0.00000000E+00
  0.00000000E+00  0.00000000E+00  0.00000000E+00  0.00000000E+00  0.00000000E+00
  0.00000000E+00  0.00000000E+00  0.00000000E+00  0.00000000E+00  0.00000000E+00
  0.00000000E+00  0.00000000E+00  0.00000000E+00  0.00000000E+00  0.00000000E+00
  0.00000000E+00  0.00000000E+00  0.00000000E+00  0.00000000E+00  0.00000000E+00
  0.00000000E+00  0.00000000E+00  0.00000000E+00  0.00000000E+00  0.00000000E+00
  0.00000000E+00  0.00000000E+00  0.00000000E+00  0.00000000E+00  0.00000000E+00
  0.00000000E+00  0.00000000E+00  0.00000000E+00  0.00000000E+00  0.00000000E+00
  0.00000000E+00  0.00000000E+00  0.00000000E+00  0.00000000E+00  0.00000000E+00
  0.00000000E+00  0.00000000E+00
Coordinates of each shell                  R   N=         198
  3.07427839E+00  1.15077075E+00 -8.87035190E-01  3.07427839E+00  1.15077075E+00
 -8.87035190E-01  3.07427839E+00  1.15077075E+00 -8.87035190E-01  3.07427839E+00
  1.15077075E+00 -8.87035190E-01  5.72783827E-01  2.80774482E-01 -3.90599837E-01
  5.72783827E-01  2.80774482E-01 -3.90599837E-01  5.72783827E-01  2.80774482E-01
 -3.90599837E-01  5.72783827E-01  2.80774482E-01 -3.90599837E-01 -1.45622478E+00
  1.99574397E+00 -1.59241577E-01 -1.45622478E+00  1.99574397E+00 -1.59241577E-01
 -1.45622478E+00  1.99574397E+00 -1.59241577E-01 -1.45622478E+00  1.99574397E+00
 -1.59241577E-01  1.52323582E-01 -2.34425081E+00 -2.17694732E-01  1.52323582E-01
 -2.34425081E+00 -2.17694732E-01  1.52323582E-01 -2.34425081E+00 -2.17694732E-01
  1.52323582E-01 -2.34425081E+00 -2.17694732E-01 -3.88888857E+00  1.05484937E+00
  2.67582030E-01 -3.88888857E+00  1.05484937E+00  2.67582030E-01 -3.88888857E+00
  1.05484937E+00  2.67582030E-01 -3.88888857E+00  1.05484937E+00  2.67582030E-01
 -2.30093147E+00 -3.21047820E+00  2.53540162E-01 -2.30093147E+00 -3.21047820E+00
  2.53540162E-01 -2.30093147E+00 -3.21047820E+00  2.53540162E-01 -2.30093147E+00
 -3.21047820E+00  2.53540162E-01 -4.31809507E+00 -1.53449115E+00  4.95211939E-01
 -4.31809507E+00 -1.53449115E+00  4.95211939E-01 -4.31809507E+00 -1.53449115E+00
  4.95211939E-01 -4.31809507E+00 -1.53449115E+00  4.95211939E-01 -1.02175012E+00
  4.80487122E+00 -3.76628378E-01 -1.02175012E+00  4.80487122E+00 -3.76628378E-01
 -1.02175012E+00  4.80487122E+00 -3.76628378E-01 -1.02175012E+00  4.80487122E+00
 -3.76628378E-01  2.28134100E+00 -4.19477860E+00 -5.84553128E-01  2.28134100E+00
 -4.19477860E+00 -5.84553128E-01  2.28134100E+00 -4.19477860E+00 -5.84553128E-01
  2.28134100E+00 -4.19477860E+00 -5.84553128E-01  4.72866522E+00  1.15874723E+00
  1.34124089E+00  4.72866522E+00  1.15874723E+00  1.34124089E+00  4.72866522E+00
  1.15874723E+00  1.34124089E+00  4.72866522E+00  1.15874723E+00  1.34124089E+00
 -5.45859395E+00  2.37360308E+00  4.44215932E-01 -5.45859395E+00  2.37360308E+00
  4.44215932E-01 -2.63385124E+00 -5.23720988E+00  3.83554497E-01 -2.63385124E+00
 -5.23720988E+00  3.83554497E-01  3.00776096E+00  2.92930250E+00 -1.61395521E+00
  3.00776096E+00  2.92930250E+00 -1.61395521E+00 -6.21644068E+00 -2.24151655E+00
  8.40931818E-01 -6.21644068E+00 -2.24151655E+00  8.40931818E-01  4.44315019E-01
  5.45863441E+00  9.30416020E-01  4.44315019E-01  5.45863441E+00  9.30416020E-01
 -4.49794675E-01  5.36032618E+00 -2.29002413E+00 -4.49794675E-01  5.36032618E+00
 -2.29002413E+00 -2.75812958E+00  5.83325492E+00  6.39702442E-02 -2.75812958E+00
  5.83325492E+00  6.39702442E-02  3.66904506E+00 -3.42727461E+00 -1.90764687E+00
  3.66904506E+00 -3.42727461E+00 -1.90764687E+00  3.26254071E+00 -4.61431492E+00
  1.19064164E+00  3.26254071E+00 -4.61431492E+00  1.19064164E+00  1.55668718E+00
 -5.98342307E+00 -1.32480150E+00  1.55668718E+00 -5.98342307E+00 -1.32480150E+00
  3.95623060E+00  2.23630009E+00  2.94249556E+00  3.95623060E+00  2.23630009E+00
  2.94249556E+00  6.55282972E+00  1.96882152E+00  8.07261521E-01  6.55282972E+00
  1.96882152E+00  8.07261521E-01  5.05211046E+00 -7.77824015E-01  1.96904255E+00
  5.05211046E+00 -7.77824015E-01  1.96904255E+00
Constraint Structure                       R   N=          69
  3.07427839E+00  1.15077075E+00 -8.87035190E-01  5.72783827E-01  2.80774482E-01
 -3.90599837E-01 -1.45622478E+00  1.99574397E+00 -1.59241577E-01  1.52323582E-01
 -2.34425081E+00 -2.17694732E-01 -3.88888857E+00  1.05484937E+00  2.67582030E-01
 -2.30093147E+00 -3.21047820E+00  2.53540162E-01 -4.31809507E+00 -1.53449115E+00
  4.95211939E-01 -1.02175012E+00  4.80487122E+00 -3.76628378E-01  2.28134100E+00
 -4.19477860E+00 -5.84553128E-01  4.72866522E+00  1.15874723E+00  1.34124089E+00
 -5.45859395E+00  2.37360308E+00  4.44215932E-01 -2.63385124E+00 -5.23720988E+00
  3.83554497E-01  3.00776096E+00  2.92930250E+00 -1.61395521E+00 -6.21644068E+00
 -2.24151655E+00  8.40931818E-01  4.44315019E-01  5.45863441E+00  9.30416020E-01
 -4.49794675E-01  5.36032618E+00 -2.29002413E+00 -2.75812958E+00  5.83325492E+00
  6.39702442E-02  3.66904506E+00 -3.42727461E+00 -1.90764687E+00  3.26254071E+00
 -4.61431492E+00  1.19064164E+00  1.55668718E+00 -5.98342307E+00 -1.32480150E+00
  3.95623060E+00  2.23630009E+00  2.94249556E+00  6.55282972E+00  1.96882152E+00
  8.07261521E-01  5.05211046E+00 -7.77824015E-01  1.96904255E+00
Num ILSW                                   I              100
ILSW                                       I   N=         100
           0           1           0           1           2           0
           0           0           0           0           0          -1
           0           0           0           0           0           0
           0           0           0           0           1           0
           1           0           0           0           0           0
           0           0      100000           0          -1           0
           0           0           0           0           0           0
           0           0           0           1           1           0
           0           0           1           0           0           0
           0           0           4          40           0           0
           0           0           0           0           0           0
           0           0           0           0           0           0
           0           0           0           0           0           0
           0           0           0           0           0           0
           0           0           0           0           0           0
           0           0           0           0           0           0
           0           0           0           0
Num RLSW                                   I               40
RLSW                                       R   N=          40
  1.00000000E+00  1.00000000E+00  1.00000000E+00  1.00000000E+00  1.00000000E+00
  0.00000000E+00  0.00000000E+00  1.00000000E+00  0.00000000E+00  0.00000000E+00
  0.00000000E+00  0.00000000E+00  1.00000000E+00  0.00000000E+00  0.00000000E+00
  0.00000000E+00  0.00000000E+00  1.00000000E+00  0.00000000E+00  0.00000000E+00
  0.00000000E+00  0.00000000E+00  1.00000000E+00  0.00000000E+00  0.00000000E+00
  0.00000000E+00  0.00000000E+00  1.00000000E+00  0.00000000E+00  0.00000000E+00
  0.00000000E+00  0.00000000E+00  0.00000000E+00  0.00000000E+00  0.00000000E+00
  0.00000000E+00  0.00000000E+00  0.00000000E+00  1.00000000E+00  1.00000000E+00
MxBond                                     I                4
NBond                                      I   N=          23
           3           3           3           3           3           3
           3           4           4           4           1           1
           1           1           1           1           1           1
           1           1           1           1           1
IBond                                      I   N=          92
           2          10          13           0           1           3
           4           0           2           5           8           0
           2           6           9           0           3           7
          11           0           4           7          12           0
           5           6          14           0           3          15
          16          17           4          18          19          20
           1          21          22          23           5           0
           0           0           6           0           0           0
           1           0           0           0           7           0
           0           0           8           0           0           0
           8           0           0           0           8           0
           0           0           9           0           0           0
           9           0           0           0           9           0
           0           0          10           0           0           0
          10           0           0           0          10           0
           0           0
RBond                                      R   N=          92
  1.00000000E+00  1.00000000E+00  1.00000000E+00  0.00000000E+00  1.00000000E+00
  1.50000000E+00  1.50000000E+00  0.00000000E+00  1.50000000E+00  1.50000000E+00
  1.00000000E+00  0.00000000E+00  1.50000000E+00  1.50000000E+00  1.00000000E+00
  0.00000000E+00  1.50000000E+00  1.50000000E+00  1.00000000E+00  0.00000000E+00
  1.50000000E+00  1.50000000E+00  1.00000000E+00  0.00000000E+00  1.50000000E+00
  1.50000000E+00  1.00000000E+00  0.00000000E+00  1.00000000E+00  1.00000000E+00
  1.00000000E+00  1.00000000E+00  1.00000000E+00  1.00000000E+00  1.00000000E+00
  1.00000000E+00  1.00000000E+00  1.00000000E+00  1.00000000E+00  1.00000000E+00
  1.00000000E+00  0.00000000E+00  0.00000000E+00  0.00000000E+00  1.00000000E+00
  0.00000000E+00  0.00000000E+00  0.00000000E+00  1.00000000E+00  0.00000000E+00
  0.00000000E+00  0.00000000E+00  1.00000000E+00  0.00000000E+00  0.00000000E+00
  0.00000000E+00  1.00000000E+00  0.00000000E+00  0.00000000E+00  0.00000000E+00
  1.00000000E+00  0.00000000E+00  0.00000000E+00  0.00000000E+00  1.00000000E+00
  0.00000000E+00  0.00000000E+00  0.00000000E+00  1.00000000E+00  0.00000000E+00
  0.00000000E+00  0.00000000E+00  1.00000000E+00  0.00000000E+00  0.00000000E+00
  0.00000000E+00  1.00000000E+00  0.00000000E+00  0.00000000E+00  0.00000000E+00
  1.00000000E+00  0.00000000E+00  0.00000000E+00  0.00000000E+00  1.00000000E+00
  0.00000000E+00  0.00000000E+00  0.00000000E+00  1.00000000E+00  0.00000000E+00
  0.00000000E+00  0.00000000E+00
Virial Ratio                               R      2.001806867445438E+00
SCF Energy                                 R     -4.028220781680392E+02
MP2 Energy                                 R     -4.041463510216631E+02
Total Energy                               R     -4.041463510216631E+02
Post-SCF wavefunction norm                 R      1.712218421593803E+00
RMS Force                                  R      3.997086381039141E-07
RMS Density                                R      1.475867657288788E-09
External E-field                           R   N=          35
  0.00000000E+00  0.00000000E+00  0.00000000E+00  0.00000000E+00  0.00000000E+00
  0.00000000E+00  0.00000000E+00  0.00000000E+00  0.00000000E+00  0.00000000E+00
  0.00000000E+00  0.00000000E+00  0.00000000E+00  0.00000000E+00  0.00000000E+00
  0.00000000E+00  0.00000000E+00  0.00000000E+00  0.00000000E+00  0.00000000E+00
  0.00000000E+00  0.00000000E+00  0.00000000E+00  0.00000000E+00  0.00000000E+00
  0.00000000E+00  0.00000000E+00  0.00000000E+00  0.00000000E+00  0.00000000E+00
  0.00000000E+00  0.00000000E+00  0.00000000E+00  0.00000000E+00  0.00000000E+00
IOpCl                                      I                0
IROHF                                      I                0
Alpha Orbital Energies                     R   N=         176
 -1.55553186E+01 -1.12559924E+01 -1.12487851E+01 -1.12337601E+01 -1.12296598E+01
 -1.12277930E+01 -1.12245631E+01 -1.12231588E+01 -1.12220050E+01 -1.12122269E+01
 -1.22330173E+00 -1.12680295E+00 -1.05106082E+00 -1.00903294E+00 -9.42920670E-01
 -9.19071395E-01 -8.89571526E-01 -7.91123269E-01 -7.77730328E-01 -6.89368684E-01
 -6.56889699E-01 -6.26280791E-01 -6.00387909E-01 -5.88896806E-01 -5.76067531E-01
 -5.66164813E-01 -5.62913287E-01 -5.54453283E-01 -5.49231472E-01 -5.28817172E-01
 -5.18401415E-01 -4.81568990E-01 -4.73438376E-01 -4.66226320E-01 -3.97241242E-01
 -3.11993119E-01 -2.97327498E-01  1.50702193E-01  1.53938918E-01  2.21271679E-01
  2.51470996E-01  2.55013934E-01  2.80732362E-01  2.93133851E-01  2.95127641E-01