022_Pyrrolidine Gaussian SP Calculation on node35.bme.utexas.edu        
Freq      RMP2-FC                                                     6-31G(d)            
Number of atoms                            I               14
Info1-9                                    I   N=           9
          25          24        1002           0           0         100
           6           2           1
Charge                                     I                0
Multiplicity                               I                1
Number of electrons                        I               40
Number of alpha electrons                  I               20
Number of beta electrons                   I               20
Number of basis functions                  I               93
Number of independent functions            I               93
Number of point charges in /Mol/           I                0
Number of translation vectors              I                0
Atomic numbers                             I   N=          14
           7           6           6           6           6           1
           1           1           1           1           1           1
           1           1
Nuclear charges                            R   N=          14
  7.00000000E+00  6.00000000E+00  6.00000000E+00  6.00000000E+00  6.00000000E+00
  1.00000000E+00  1.00000000E+00  1.00000000E+00  1.00000000E+00  1.00000000E+00
  1.00000000E+00  1.00000000E+00  1.00000000E+00  1.00000000E+00
Current cartesian coordinates              R   N=          42
 -5.43640538E-05 -2.19043751E+00 -7.05892135E-01  2.17628448E+00 -8.41959570E-01
  3.46161141E-01  1.46397528E+00  1.93213890E+00 -1.14141068E-01 -1.46386108E+00
  1.93223041E+00 -1.14095949E-01 -2.17634022E+00 -8.41843482E-01  3.46126100E-01
  3.92216968E+00 -1.40454511E+00 -6.08336464E-01  2.42104246E+00 -1.18047157E+00
  2.39165121E+00  2.26094405E+00  3.17501037E+00  1.33162962E+00  2.18734764E+00
  2.55782772E+00 -1.94424072E+00 -2.26069983E+00  3.17508786E+00  1.33175850E+00
 -2.18725621E+00  2.55805483E+00 -1.94414012E+00 -2.42117588E+00 -1.18038342E+00
  2.39160146E+00 -3.92223245E+00 -1.40430726E+00 -6.08430340E-01 -1.09716925E-04
 -4.04660837E+00 -1.84549547E-01
Force Field                                I                0
Int Atom Types                             I   N=          14
           0           0           0           0           0           0
           0           0           0           0           0           0
           0           0
MM charges                                 R   N=          14
  0.00000000E+00  0.00000000E+00  0.00000000E+00  0.00000000E+00  0.00000000E+00
  0.00000000E+00  0.00000000E+00  0.00000000E+00  0.00000000E+00  0.00000000E+00
  0.00000000E+00  0.00000000E+00  0.00000000E+00  0.00000000E+00
Integer atomic weights                     I   N=          14
          14          12          12          12          12           1
           1           1           1           1           1           1
           1           1
Real atomic weights                        R   N=          14
  1.40030740E+01  1.20000000E+01  1.20000000E+01  1.20000000E+01  1.20000000E+01
  1.00782504E+00  1.00782504E+00  1.00782504E+00  1.00782504E+00  1.00782504E+00
  1.00782504E+00  1.00782504E+00  1.00782504E+00  1.00782504E+00
Atom fragment info                         I   N=          14
           0           0           0           0           0           0
           0           0           0           0           0           0
           0           0
Atom residue num                           I   N=          14
           0           0           0           0           0           0
           0           0           0           0           0           0
           0           0
Nuclear spins                              I   N=          14
           2           0           0           0           0           1
           1           1           1           1           1           1
           1           1
Nuclear ZEff                               R   N=          14
 -4.55000000E+00 -3.60000000E+00 -3.60000000E+00 -3.60000000E+00 -3.60000000E+00
 -1.00000000E+00 -1.00000000E+00 -1.00000000E+00 -1.00000000E+00 -1.00000000E+00
 -1.00000000E+00 -1.00000000E+00 -1.00000000E+00 -1.00000000E+00
Nuclear QMom                               R   N=          14
  2.04400000E+00  0.00000000E+00  0.00000000E+00  0.00000000E+00  0.00000000E+00
  0.00000000E+00  0.00000000E+00  0.00000000E+00  0.00000000E+00  0.00000000E+00
  0.00000000E+00  0.00000000E+00  0.00000000E+00  0.00000000E+00
Nuclear GFac                               R   N=          14
  4.03761000E-01  0.00000000E+00  0.00000000E+00  0.00000000E+00  0.00000000E+00
  2.79284600E+00  2.79284600E+00  2.79284600E+00  2.79284600E+00  2.79284600E+00
  2.79284600E+00  2.79284600E+00  2.79284600E+00  2.79284600E+00
MicOpt                                     I   N=          14
          -1          -1          -1          -1          -1          -1
          -1          -1          -1          -1          -1          -1
          -1          -1
Number of contracted shells                I               38
Number of primitive shells                 I               91
Pure/Cartesian d shells                    I                1
Pure/Cartesian f shells                    I                0
Highest angular momentum                   I                2
Largest degree of contraction              I                6
Shell types                                I   N=          38
           0          -1          -1           2           0          -1
          -1           2           0          -1          -1           2
           0          -1          -1           2           0          -1
          -1           2           0           0           0           0
           0           0           0           0           0           0
           0           0           0           0           0           0
           0           0
Number of primitives per shell             I   N=          38
           6           3           1           1           6           3
           1           1           6           3           1           1
           6           3           1           1           6           3
           1           1           3           1           3           1
           3           1           3           1           3           1
           3           1           3           1           3           1
           3           1
Shell to atom map                          I   N=          38
           1           1           1           1           2           2
           2           2           3           3           3           3
           4           4           4           4           5           5
           5           5           6           6           7           7
           8           8           9           9          10          10
          11          11          12          12          13          13
          14          14
Primitive exponents                        R   N=          91
  4.17351146E+03  6.27457911E+02  1.42902093E+02  4.02343293E+01  1.28202129E+01
  4.39043701E+00  1.16263619E+01  2.71627981E+00  7.72218397E-01  2.12031498E-01
  8.00000000E-01  3.04752488E+03  4.57369518E+02  1.03948685E+02  2.92101553E+01
  9.28666296E+00  3.16392696E+00  7.86827235E+00  1.88128854E+00  5.44249258E-01
  1.68714478E-01  8.00000000E-01  3.04752488E+03  4.57369518E+02  1.03948685E+02
  2.92101553E+01  9.28666296E+00  3.16392696E+00  7.86827235E+00  1.88128854E+00
  5.44249258E-01  1.68714478E-01  8.00000000E-01  3.04752488E+03  4.57369518E+02
  1.03948685E+02  2.92101553E+01  9.28666296E+00  3.16392696E+00  7.86827235E+00
  1.88128854E+00  5.44249258E-01  1.68714478E-01  8.00000000E-01  3.04752488E+03
  4.57369518E+02  1.03948685E+02  2.92101553E+01  9.28666296E+00  3.16392696E+00
  7.86827235E+00  1.88128854E+00  5.44249258E-01  1.68714478E-01  8.00000000E-01
  1.87311370E+01  2.82539436E+00  6.40121692E-01  1.61277759E-01  1.87311370E+01
  2.82539436E+00  6.40121692E-01  1.61277759E-01  1.87311370E+01  2.82539436E+00
  6.40121692E-01  1.61277759E-01  1.87311370E+01  2.82539436E+00  6.40121692E-01
  1.61277759E-01  1.87311370E+01  2.82539436E+00  6.40121692E-01  1.61277759E-01
  1.87311370E+01  2.82539436E+00  6.40121692E-01  1.61277759E-01  1.87311370E+01
  2.82539436E+00  6.40121692E-01  1.61277759E-01  1.87311370E+01  2.82539436E+00
  6.40121692E-01  1.61277759E-01  1.87311370E+01  2.82539436E+00  6.40121692E-01
  1.61277759E-01
Contraction coefficients                   R   N=          91
  1.83477216E-03  1.39946270E-02  6.85865518E-02  2.32240873E-01  4.69069948E-01
  3.60455199E-01 -1.14961182E-01 -1.69117479E-01  1.14585195E+00  1.00000000E+00
  1.00000000E+00  1.83473713E-03  1.40373228E-02  6.88426223E-02  2.32184443E-01
  4.67941348E-01  3.62311985E-01 -1.19332420E-01 -1.60854152E-01  1.14345644E+00
  1.00000000E+00  1.00000000E+00  1.83473713E-03  1.40373228E-02  6.88426223E-02
  2.32184443E-01  4.67941348E-01  3.62311985E-01 -1.19332420E-01 -1.60854152E-01
  1.14345644E+00  1.00000000E+00  1.00000000E+00  1.83473713E-03  1.40373228E-02
  6.88426223E-02  2.32184443E-01  4.67941348E-01  3.62311985E-01 -1.19332420E-01
 -1.60854152E-01  1.14345644E+00  1.00000000E+00  1.00000000E+00  1.83473713E-03
  1.40373228E-02  6.88426223E-02  2.32184443E-01  4.67941348E-01  3.62311985E-01
 -1.19332420E-01 -1.60854152E-01  1.14345644E+00  1.00000000E+00  1.00000000E+00
  3.34946043E-02  2.34726953E-01  8.13757326E-01  1.00000000E+00  3.34946043E-02
  2.34726953E-01  8.13757326E-01  1.00000000E+00  3.34946043E-02  2.34726953E-01
  8.13757326E-01  1.00000000E+00  3.34946043E-02  2.34726953E-01  8.13757326E-01
  1.00000000E+00  3.34946043E-02  2.34726953E-01  8.13757326E-01  1.00000000E+00
  3.34946043E-02  2.34726953E-01  8.13757326E-01  1.00000000E+00  3.34946043E-02
  2.34726953E-01  8.13757326E-01  1.00000000E+00  3.34946043E-02  2.34726953E-01
  8.13757326E-01  1.00000000E+00  3.34946043E-02  2.34726953E-01  8.13757326E-01
  1.00000000E+00
P(S=P) Contraction coefficients            R   N=          91
  0.00000000E+00  0.00000000E+00  0.00000000E+00  0.00000000E+00  0.00000000E+00
  0.00000000E+00  6.75797439E-02  3.23907296E-01  7.40895140E-01  1.00000000E+00
  0.00000000E+00  0.00000000E+00  0.00000000E+00  0.00000000E+00  0.00000000E+00
  0.00000000E+00  0.00000000E+00  6.89990666E-02  3.16423961E-01  7.44308291E-01
  1.00000000E+00  0.00000000E+00  0.00000000E+00  0.00000000E+00  0.00000000E+00
  0.00000000E+00  0.00000000E+00  0.00000000E+00  6.89990666E-02  3.16423961E-01
  7.44308291E-01  1.00000000E+00  0.00000000E+00  0.00000000E+00  0.00000000E+00
  0.00000000E+00  0.00000000E+00  0.00000000E+00  0.00000000E+00  6.89990666E-02
  3.16423961E-01  7.44308291E-01  1.00000000E+00  0.00000000E+00  0.00000000E+00
  0.00000000E+00  0.00000000E+00  0.00000000E+00  0.00000000E+00  0.00000000E+00
  6.89990666E-02  3.16423961E-01  7.44308291E-01  1.00000000E+00  0.00000000E+00
  0.00000000E+00  0.00000000E+00  0.00000000E+00  0.00000000E+00  0.00000000E+00
  0.00000000E+00  0.00000000E+00  0.00000000E+00  0.00000000E+00  0.00000000E+00
  0.00000000E+00  0.00000000E+00  0.00000000E+00  0.00000000E+00  0.00000000E+00
  0.00000000E+00  0.00000000E+00  0.00000000E+00  0.00000000E+00  0.00000000E+00
  0.00000000E+00  0.00000000E+00  0.00000000E+00  0.00000000E+00  0.00000000E+00
  0.00000000E+00  0.00000000E+00  0.00000000E+00  0.00000000E+00  0.00000000E+00
  0.00000000E+00  0.00000000E+00  0.00000000E+00  0.00000000E+00  0.00000000E+00
  0.00000000E+00
Coordinates of each shell                  R   N=         114
 -5.43640538E-05 -2.19043751E+00 -7.05892135E-01 -5.43640538E-05 -2.19043751E+00
 -7.05892135E-01 -5.43640538E-05 -2.19043751E+00 -7.05892135E-01 -5.43640538E-05
 -2.19043751E+00 -7.05892135E-01  2.17628448E+00 -8.41959570E-01  3.46161141E-01
  2.17628448E+00 -8.41959570E-01  3.46161141E-01  2.17628448E+00 -8.41959570E-01
  3.46161141E-01  2.17628448E+00 -8.41959570E-01  3.46161141E-01  1.46397528E+00
  1.93213890E+00 -1.14141068E-01  1.46397528E+00  1.93213890E+00 -1.14141068E-01
  1.46397528E+00  1.93213890E+00 -1.14141068E-01  1.46397528E+00  1.93213890E+00
 -1.14141068E-01 -1.46386108E+00  1.93223041E+00 -1.14095949E-01 -1.46386108E+00
  1.93223041E+00 -1.14095949E-01 -1.46386108E+00  1.93223041E+00 -1.14095949E-01
 -1.46386108E+00  1.93223041E+00 -1.14095949E-01 -2.17634022E+00 -8.41843482E-01
  3.46126100E-01 -2.17634022E+00 -8.41843482E-01  3.46126100E-01 -2.17634022E+00
 -8.41843482E-01  3.46126100E-01 -2.17634022E+00 -8.41843482E-01  3.46126100E-01
  3.92216968E+00 -1.40454511E+00 -6.08336464E-01  3.92216968E+00 -1.40454511E+00
 -6.08336464E-01  2.42104246E+00 -1.18047157E+00  2.39165121E+00  2.42104246E+00
 -1.18047157E+00  2.39165121E+00  2.26094405E+00  3.17501037E+00  1.33162962E+00
  2.26094405E+00  3.17501037E+00  1.33162962E+00  2.18734764E+00  2.55782772E+00
 -1.94424072E+00  2.18734764E+00  2.55782772E+00 -1.94424072E+00 -2.26069983E+00
  3.17508786E+00  1.33175850E+00 -2.26069983E+00  3.17508786E+00  1.33175850E+00
 -2.18725621E+00  2.55805483E+00 -1.94414012E+00 -2.18725621E+00  2.55805483E+00
 -1.94414012E+00 -2.42117588E+00 -1.18038342E+00  2.39160146E+00 -2.42117588E+00
 -1.18038342E+00  2.39160146E+00 -3.92223245E+00 -1.40430726E+00 -6.08430340E-01
 -3.92223245E+00 -1.40430726E+00 -6.08430340E-01 -1.09716925E-04 -4.04660837E+00
 -1.84549547E-01 -1.09716925E-04 -4.04660837E+00 -1.84549547E-01
Constraint Structure                       R   N=          42
 -5.43640538E-05 -2.19043751E+00 -7.05892135E-01  2.17628448E+00 -8.41959570E-01
  3.46161141E-01  1.46397528E+00  1.93213890E+00 -1.14141068E-01 -1.46386108E+00
  1.93223041E+00 -1.14095949E-01 -2.17634022E+00 -8.41843482E-01  3.46126100E-01
  3.92216968E+00 -1.40454511E+00 -6.08336464E-01  2.42104246E+00 -1.18047157E+00
  2.39165121E+00  2.26094405E+00  3.17501037E+00  1.33162962E+00  2.18734764E+00
  2.55782772E+00 -1.94424072E+00 -2.26069983E+00  3.17508786E+00  1.33175850E+00
 -2.18725621E+00  2.55805483E+00 -1.94414012E+00 -2.42117588E+00 -1.18038342E+00
  2.39160146E+00 -3.92223245E+00 -1.40430726E+00 -6.08430340E-01 -1.09716925E-04
 -4.04660837E+00 -1.84549547E-01
Num ILSW                                   I              100
ILSW                                       I   N=         100
           0           1           0           1           2           0
           0           0           0           0           0          -1
           0           0           0           0           0           0
           0           0           0           0           1           0
           1           0           0           0           0           0
           0           0      100000           0          -1           0
           0           0           0           0           0           0
           0           0           0           1           1           0
           0           0           1           0           0           0
           0           0           4          40           0           0
           0           0           0           0           0           0
           0           0           0           0           0           0
           0           0           0           0           0           0
           0           0           0           0           0           0
           0           0           0           0           0           0
           0           0           0           0           0           0
           0           0           0           0
Num RLSW                                   I               40
RLSW                                       R   N=          40
  1.00000000E+00  1.00000000E+00  1.00000000E+00  1.00000000E+00  1.00000000E+00
  0.00000000E+00  0.00000000E+00  1.00000000E+00  0.00000000E+00  0.00000000E+00
  0.00000000E+00  0.00000000E+00  1.00000000E+00  0.00000000E+00  0.00000000E+00
  0.00000000E+00  0.00000000E+00  1.00000000E+00  0.00000000E+00  0.00000000E+00
  0.00000000E+00  0.00000000E+00  1.00000000E+00  0.00000000E+00  0.00000000E+00
  0.00000000E+00  0.00000000E+00  1.00000000E+00  0.00000000E+00  0.00000000E+00
  0.00000000E+00  0.00000000E+00  0.00000000E+00  0.00000000E+00  0.00000000E+00
  0.00000000E+00  0.00000000E+00  0.00000000E+00  1.00000000E+00  1.00000000E+00
MxBond                                     I                4
NBond                                      I   N=          14
           3           4           4           4           4           1
           1           1           1           1           1           1
           1           1
IBond                                      I   N=          56
           2           5          14           0           1           3
           6           7           2           4           8           9
           3           5          10          11           1           4
          12          13           2           0           0           0
           2           0           0           0           3           0
           0           0           3           0           0           0
           4           0           0           0           4           0
           0           0           5           0           0           0
           5           0           0           0           1           0
           0           0
RBond                                      R   N=          56
  1.00000000E+00  1.00000000E+00  1.00000000E+00  0.00000000E+00  1.00000000E+00
  1.00000000E+00  1.00000000E+00  1.00000000E+00  1.00000000E+00  1.00000000E+00
  1.00000000E+00  1.00000000E+00  1.00000000E+00  1.00000000E+00  1.00000000E+00
  1.00000000E+00  1.00000000E+00  1.00000000E+00  1.00000000E+00  1.00000000E+00
  1.00000000E+00  0.00000000E+00  0.00000000E+00  0.00000000E+00  1.00000000E+00
  0.00000000E+00  0.00000000E+00  0.00000000E+00  1.00000000E+00  0.00000000E+00
  0.00000000E+00  0.00000000E+00  1.00000000E+00  0.00000000E+00  0.00000000E+00
  0.00000000E+00  1.00000000E+00  0.00000000E+00  0.00000000E+00  0.00000000E+00
  1.00000000E+00  0.00000000E+00  0.00000000E+00  0.00000000E+00  1.00000000E+00
  0.00000000E+00  0.00000000E+00  0.00000000E+00  1.00000000E+00  0.00000000E+00
  0.00000000E+00  0.00000000E+00  1.00000000E+00  0.00000000E+00  0.00000000E+00
  0.00000000E+00
Virial Ratio                               R      2.001473740084096E+00
SCF Energy                                 R     -2.111439989602610E+02
MP2 Energy                                 R     -2.118272143760378E+02
Total Energy                               R     -2.118272143760378E+02
Post-SCF wavefunction norm                 R      1.563886427713430E+00
RMS Force                                  R      5.504539306214517E-07
RMS Density                                R      1.153812042433169E-09
External E-field                           R   N=          35
  0.00000000E+00  0.00000000E+00  0.00000000E+00  0.00000000E+00  0.00000000E+00
  0.00000000E+00  0.00000000E+00  0.00000000E+00  0.00000000E+00  0.00000000E+00
  0.00000000E+00  0.00000000E+00  0.00000000E+00  0.00000000E+00  0.00000000E+00
  0.00000000E+00  0.00000000E+00  0.00000000E+00  0.00000000E+00  0.00000000E+00
  0.00000000E+00  0.00000000E+00  0.00000000E+00  0.00000000E+00  0.00000000E+00
  0.00000000E+00  0.00000000E+00  0.00000000E+00  0.00000000E+00  0.00000000E+00
  0.00000000E+00  0.00000000E+00  0.00000000E+00  0.00000000E+00  0.00000000E+00
IOpCl                                      I                0
IROHF                                      I                0
Alpha Orbital Energies                     R   N=          93
 -1.55392614E+01 -1.12417317E+01 -1.12417112E+01 -1.12157165E+01 -1.12151700E+01
 -1.21578083E+00 -1.01859088E+00 -9.69491029E-01 -8.03375823E-01 -7.77978575E-01
 -6.84357943E-01 -6.54147277E-01 -5.85776622E-01 -5.53762271E-01 -5.09528008E-01
 -5.05272135E-01 -4.78734964E-01 -4.70217841E-01 -4.53866524E-01 -3.66390202E-01
  2.22475535E-01  2.50650100E-01  2.84847645E-01  2.92094933E-01  3.08652628E-01
  3.28280641E-01  3.43280894E-01  3.43955328E-01  3.62242047E-01  3.74380616E-01
  4.11213380E-01  4.11238009E-01  4.74764735E-01  5.19969818E-01  7.33224494E-01
  7.56655210E-01  7.74837993E-01  7.89735242E-01  7.93168714E-01  8.64400438E-01
  9.21322046E-01  9.23493077E-01  9.38522999E-01  9.58365263E-01  1.00215557E+00
  1.02911135E+00  1.10697615E+00  1.11562045E+00  1.12805183E+00  1.13467404E+00
  1.15863603E+00  1.16576077E+00  1.17934087E+00  1.21125199E+00  1.21582827E+00
  1.24485113E+00  1.24994922E+00  1.30211401E+00  1.51711466E+00  1.51938680E+00
  1.61354430E+00  1.62661788E+00  1.70852749E+00  1.89110558E+00  1.91588194E+00
  2.10809653E+00  2.13973062E+00  2.14217397E+00  2.21481253E+00  2.25117244E+00
  2.28760281E+00  2.30886324E+00  2.34427424E+00  2.41686337E+00  2.43047804E+00
  2.49531593E+00  2.50096339E+00  2.57738696E+00  2.63018405E+00  2.72011156E+00
  2.72244853E+00  2.82497314E+00  2.90715593E+00  2.91767253E+00  3.02163889E+00
  3.03293148E+00  3.04087966E+00  3.23047960E+00  4.34501995E+00  4.61315513E+00
  4.68276163E+00  4.86954621E+00  5.05675626E+00
Alpha MO coefficients                      R   N=        8649
  9.95097317E-01  2.49707604E-02 -1.51428675E-08 -6.66125484E-05  1.49703142E-03
 -3.60947791E-03  9.48661326E-09 -2.87704262E-04 -1.54538116E-03 -3.30041642E-03
 -3.23333599E-03 -3.03962237E-03  3.77199142E-09 -4.62108555E-09 -8.28314996E-05
 -1.12726010E-05  2.07967309E-04 -2.35244541E-04 -1.46947825E-04 -1.08437485E-04
  1.69215580E-03 -5.61446844E-04 -3.58769955E-04  1.20396317E-04 -1.41325108E-04
 -1.00223910E-04 -9.06602137E-05 -2.40031814E-05 -4.66967508E-05 -4.45507517E-05
 -4.32745586E-06 -3.31446682E-05 -2.50248437E-05  4.40313003E-05  2.47493160E-05
 -5.31546879E-05  8.88959291E-05  7.35547131E-05 -1.85099996E-04 -3.61309602E-07
 -1.00667765E-05 -2.18518710E-05  1.03527407E-05  7.67303318E-07  2.07639617E-05
 -4.32378905E-06 -3.31253273E-05  2.50274694E-05  4.40288477E-05  2.47533490E-05
 -5.32825796E-05 -8.89274100E-05  7.36085484E-05 -1.85131806E-04 -3.58418178E-07
 -1.00661865E-05 -2.18463639E-05 -1.03498178E-05 -7.65304960E-07  2.07632874E-05
 -1.12743649E-05  2.07958551E-04  2.35238086E-04 -1.46957987E-04 -1.08435735E-04
  1.69222433E-03  5.61452959E-04 -3.58774531E-04  1.20411844E-04 -1.41325395E-04
 -1.00225803E-04 -9.06606148E-05  2.40082963E-05  4.66914493E-05 -4.45530241E-05
 -5.69870076E-05 -9.66414575E-05 -1.51945481E-04 -2.48191128E-04  5.51852786E-06
  7.59048843E-05 -4.84647342E-06 -1.43216351E-04  5.52853408E-06  7.59103643E-05
 -4.84502059E-06 -1.43223465E-04 -1.51950787E-04 -2.48191937E-04 -5.69870850E-05
 -9.66319258E-05  3.46789820E-04  6.13670375E-04 -9.47897341E-07  9.78913468E-07
 -7.23804250E-05  2.56807315E-07  2.52913233E-07  1.12115632E-05 -1.87954604E-03
  4.74073442E-07  2.66051546E-07 -1.94825175E-06 -1.07586228E-06 -5.17479984E-07
  2.38300651E-04  1.74435755E-04 -1.04044900E-06 -7.01717250E-01 -2.03293760E-02
  3.70074225E-04  6.06732871E-05 -2.78564342E-05  1.41025954E-02 -2.31950901E-03
  1.30369929E-03  2.86822916E-04  1.08679583E-03  1.05215218E-03  9.55429362E-04
 -1.09485236E-05  4.87072832E-05 -4.32682424E-06 -7.71849947E-03 -8.62542402E-05
  2.95094461E-05  8.78009274E-05 -2.01371193E-05 -5.49237019E-03  1.79448500E-04
  2.29327439E-03 -5.26820541E-04  2.04016331E-04  3.66066521E-04  1.15335149E-04
 -3.74811530E-05 -9.27267927E-07 -2.52917082E-05  7.77372814E-03  8.72628776E-05
  2.92302838E-05 -8.83408102E-05  2.03320821E-05  5.51220941E-03  1.76354896E-04
 -2.30115007E-03  5.27225803E-04 -2.04936263E-04 -3.68342842E-04 -1.16191034E-04
 -3.81505043E-05 -6.96340128E-07  2.56096402E-05  7.06769467E-01  2.04697401E-02
  3.72449492E-04 -6.12713457E-05  2.71647877E-05 -1.41755976E-02 -2.31963885E-03
 -1.30723377E-03 -2.84387894E-04 -1.09339555E-03 -1.06068462E-03 -9.63351934E-04
 -1.09191187E-05  4.89272098E-05  4.42761114E-06 -1.03726257E-04 -1.14496655E-03
 -3.78438869E-04 -2.21677691E-03  2.06049432E-04  2.72551899E-05  2.08822006E-04
 -1.17319835E-04 -2.06836016E-04 -2.75293841E-05 -2.09877066E-04  1.16800790E-04
  3.78819581E-04  2.22923113E-03  1.04423250E-04  1.15890171E-03 -5.34172880E-07
  2.10051006E-07 -2.63708223E-04  2.74881518E-04  2.60154750E-07  7.20749331E-05
  7.05905071E-05  3.11624941E-03  6.75254516E-06  1.11696921E-04  7.64948405E-05
 -5.43950159E-04 -2.95802750E-04 -1.43332264E-04 -8.45074235E-07 -6.37048709E-07
 -2.89345678E-04  7.06644704E-01  1.96361152E-02 -3.33942271E-04 -8.09522587E-05
 -9.82963536E-05 -1.02229304E-02  1.73160321E-05 -5.19061454E-04  3.51541316E-04
 -9.22736094E-04 -1.19311612E-03 -1.10844247E-03 -4.52842603E-06 -3.09164288E-05
  1.45089022E-05  7.73357482E-03  1.40352194E-04  3.78433364E-05 -7.52678578E-05
  2.63468879E-05  2.78808751E-03  4.10740791E-04 -1.10448647E-03  7.60984464E-05
 -1.28284031E-04 -3.18999412E-04 -1.19963426E-04  9.23649272E-05 -3.24508893E-05
  4.44959789E-05  7.67792648E-03  1.39718501E-04 -3.80557699E-05 -7.46388107E-05
  2.61984954E-05  2.74865882E-03 -4.12060960E-04 -1.08794829E-03  7.23106885E-05
 -1.26826032E-04 -3.16362101E-04 -1.19132978E-04 -9.21105122E-05  3.24626651E-05
  4.43008780E-05  7.01591591E-01  1.94897322E-02  3.31275025E-04 -8.05325227E-05
 -9.84888967E-05 -1.01214381E-02 -6.97556064E-07 -5.09688576E-04  3.53569462E-04
 -9.14915170E-04 -1.18553843E-03 -1.10155600E-03  4.58811886E-06  3.05705310E-05
  1.44732879E-05  9.71052250E-05  1.94595991E-03  5.44894629E-05  1.74013499E-03
 -1.09942811E-04 -4.29493797E-05 -1.47814363E-04 -6.54145684E-05 -1.08464844E-04
 -4.27869203E-05 -1.46314144E-04 -6.62553751E-05  5.17724793E-05  1.72417888E-03
  9.63569419E-05  1.93769951E-03 -1.49413756E-04  5.66961521E-05 -1.00984539E-05
 -1.91967532E-04  1.20756972E-08 -7.34084735E-05  1.35542513E-05 -2.87581408E-05
  1.12084960E-07  5.02895056E-04 -1.31523264E-04 -3.32845488E-05  1.57221065E-04
 -1.07159317E-04 -1.34379039E-09 -4.28884408E-09 -1.24385049E-05 -7.93793926E-03
 -2.48570190E-04  1.50458953E-05  2.14549012E-05  4.01430651E-06  2.83176267E-03
 -1.78984578E-04  1.22380282E-03 -9.59858483E-05 -1.01929329E-04 -3.03241359E-04
 -1.05213579E-04  4.20945944E-05 -4.89229001E-05  4.05861814E-05  7.03848289E-01
  2.01728228E-02 -1.42025487E-04 -9.57204275E-05 -5.27779392E-06 -8.93069195E-03
 -7.41667520E-04  7.43053202E-04  4.08379886E-05 -1.55644440E-03 -1.27281478E-03
 -1.15128327E-03  3.79678769E-05  1.43121617E-06  3.48331615E-05  7.04204572E-01
  2.01830711E-02  1.42003324E-04 -9.57766367E-05 -5.27485778E-06 -8.93897572E-03
  7.40644979E-04  7.43586951E-04  4.08223085E-05 -1.55685504E-03 -1.27332234E-03
 -1.15176481E-03 -3.79604459E-05 -1.41848367E-06  3.48347731E-05 -7.94193759E-03
 -2.48685712E-04 -1.50422583E-05  2.15322624E-05  4.01751130E-06  2.83400343E-03
  1.79407193E-04  1.22450114E-03 -9.62039940E-05 -1.02034821E-04 -3.03421688E-04
 -1.05256701E-04 -4.21550697E-05  4.89286209E-05  4.05993532E-05 -1.12093750E-04
 -5.29754539E-05 -1.31133309E-04 -8.26870610E-05 -2.22911910E-05  1.70546513E-03
  2.26340013E-05  1.87857149E-03 -2.21491631E-05  1.70642733E-03  2.27999914E-05
  1.87956409E-03 -1.31215152E-04 -8.26778956E-05 -1.12170812E-04 -5.30927617E-05
  2.83051999E-05  4.08000250E-04 -8.31425761E-09 -7.25229324E-08 -5.22240480E-05
 -2.20735200E-08  3.45869642E-09  1.45233068E-07 -4.01171454E-04  2.21507762E-07
 -1.55562486E-08 -1.88722528E-08  3.34807547E-08 -4.04527521E-08  3.48767549E-05
  1.33622157E-05 -3.14010482E-09 -8.03400859E-03 -2.52421945E-04  7.44560695E-06
  1.50387021E-04 -3.81443437E-06  4.55956210E-03 -8.24389290E-04  1.47097313E-03
 -4.49055794E-04 -1.96418367E-04 -3.57104311E-04 -9.12283771E-05  8.38474103E-05
 -1.75497403E-05  4.81347209E-05  7.04458601E-01  2.03052962E-02  2.36192953E-05
 -9.92956295E-05  3.16772716E-06 -1.66656776E-02  2.22684466E-03  1.27812218E-03
  5.31074155E-05 -8.00538749E-04 -9.98375098E-04 -9.53900867E-04  2.09998066E-05
  5.51170690E-06  1.86123416E-05 -7.04102444E-01 -2.02950806E-02  2.37030149E-05
  9.92336023E-05 -3.17517960E-06  1.66611872E-02  2.22712596E-03 -1.27787466E-03
 -5.31399638E-05  7.99752289E-04  9.97738600E-04  9.53318684E-04  2.09933715E-05
  5.51201641E-06 -1.85908439E-05  8.02992903E-03  2.52317200E-04  7.42277912E-06
 -1.50369218E-04  3.82063833E-06 -4.55829432E-03 -8.24490358E-04 -1.47032582E-03
  4.48962044E-04  1.96370877E-04  3.56950606E-04  9.11774589E-05  8.38360602E-05
 -1.75226993E-05 -4.81049894E-05 -1.46062770E-04 -1.54326449E-04 -1.85535575E-04
  3.11912084E-05  2.82497754E-04  1.81680961E-03  3.49141137E-04  2.01669828E-03
 -2.82520790E-04 -1.81597166E-03 -3.49121174E-04 -2.01573013E-03  1.85481515E-04
 -3.12154257E-05  1.46013243E-04  1.54273042E-04  7.83671070E-09  1.24644373E-07
 -1.57647124E-01  3.22274691E-01  5.38805052E-07  3.24868619E-02  6.95490959E-02
  3.33354167E-01 -1.89215712E-08  1.60612063E-02  4.15995192E-02  5.56820377E-03
  1.15533390E-02 -2.71882214E-03  1.92619486E-07  1.76938612E-07  3.26647548E-03
 -8.62314235E-02  1.60018009E-01 -7.42253195E-02 -2.00711645E-02 -2.63368182E-02
  8.16586106E-02  8.48070555E-06  1.30753498E-03  2.03684754E-03  1.20513427E-02
  2.98924787E-03 -1.16288633E-03  6.68924185E-03  6.52479634E-03  3.15077218E-03
 -4.68724745E-02  8.61040384E-02 -1.62144393E-02 -3.86743269E-02  2.51513026E-03
  5.95365839E-02 -2.72732100E-03 -6.13140903E-03  2.56854214E-03  2.60469741E-03
  6.25743958E-03 -1.16074404E-03  2.83429114E-04 -5.16279306E-06 -1.23674312E-03
 -4.68721590E-02  8.61032260E-02  1.62123070E-02 -3.86748746E-02  2.51404762E-03
  5.95374648E-02  2.72750848E-03 -6.13238616E-03  2.56833636E-03  2.60471101E-03
  6.25748950E-03 -1.16085765E-03 -2.83213145E-04  4.97318316E-06 -1.23649769E-03
 -8.62309616E-02  1.60017330E-01  7.42244594E-02 -2.00753367E-02 -2.63351590E-02