
    -----------------------------------------------------------------------
          Psi4: An Open-Source Ab Initio Electronic Structure Package
                               Psi4 1.4a3.dev225 

                         Git: Rev {master} 7105e37 


    D. G. A. Smith, L. A. Burns, A. C. Simmonett, R. M. Parrish,
    M. C. Schieber, R. Galvelis, P. Kraus, H. Kruse, R. Di Remigio,
    A. Alenaizan, A. M. James, S. Lehtola, J. P. Misiewicz, M. Scheurer,
    R. A. Shaw, J. B. Schriber, Y. Xie, Z. L. Glick, D. A. Sirianni,
    J. S. O'Brien, J. M. Waldrop, A. Kumar, E. G. Hohenstein,
    B. P. Pritchard, B. R. Brooks, H. F. Schaefer III, A. Yu. Sokolov,
    K. Patkowski, A. E. DePrince III, U. Bozkaya, R. A. King,
    F. A. Evangelista, J. M. Turney, T. D. Crawford, C. D. Sherrill,
    J. Chem. Phys. 152(18) 184108 (2020). https://doi.org/10.1063/5.0006002

                            Additional Code Authors
    E. T. Seidl, C. L. Janssen, E. F. Valeev, M. L. Leininger,
    J. F. Gonthier, R. M. Richard, H. R. McAlexander, M. Saitow, X. Wang,
    P. Verma, and M. H. Lechner

             Previous Authors, Complete List of Code Contributors,
                       and Citations for Specific Modules
    https://github.com/psi4/psi4/blob/master/codemeta.json
    https://github.com/psi4/psi4/graphs/contributors
    http://psicode.org/psi4manual/master/introduction.html#citing-psifour

    -----------------------------------------------------------------------


    Psi4 started on: Saturday, 20 March 2021 11:17AM

    Process ID: 186361
    Host:       c446-001.stampede2.tacc.utexas.edu
    PSIDATADIR: /home1/07844/xy3866/miniconda3/envs/p4env/share/psi4
    Memory:     500.0 MiB
    Threads:    32
    
  ==> Input File <==

--------------------------------------------------------------------------
#psi4
#
memory 32 gb

molecule  {
0 1
  O        0.9417500     2.5148810    -0.6596880
  N        2.0463840     0.6978680     0.1749460
  C        0.7564320    -1.5550710    -0.8733250
  C        1.8157710    -1.7711630     0.2163790
  C       -0.4497480    -0.7926040    -0.3845090
  C        2.0266990    -0.4897580     1.0228720
  C       -0.3650830     0.5850230    -0.0943830
  C        0.9119250     1.3593610    -0.2260870
  C       -1.6913630    -1.4231620    -0.2398970
  C       -1.5035900     1.3035830     0.2885800
  C       -2.8212120    -0.7143780     0.1714760
  C       -2.7281430     0.6547360     0.4326570
  H        0.4383490    -2.5216720    -1.2799980
  H        1.2165960    -1.0011160    -1.6986390
  H        1.5065410    -2.5704870     0.9013410
  H        2.7543720    -2.0878480    -0.2534440
  H        1.2654450    -0.3929570     1.7327331
  H        2.9729880    -0.5259550     1.5704730
  H        2.8793190     1.2773810     0.1528780
  H       -1.7755450    -2.4842720    -0.4701710
  H       -1.4080790     2.3720960     0.4641940
  H       -3.7741480    -1.2278540     0.2772780
  H       -3.6082280     1.2145190     0.7397060
units angstrom
no_reorient  #important for SAPT in psi4, default
symmetry c1  #important for SAPT in psi4, default
}

set PROPERTIES_ORIGIN ["COM"]
properties('MP2/aug-cc-pvtz', properties = ['dipole'])
--------------------------------------------------------------------------

  Memory set to  29.802 GiB by Python driver.
    SCF Algorithm Type (re)set to DF.

*** tstart() called on c446-001.stampede2.tacc.utexas.edu
*** at Sat Mar 20 11:17:45 2021

   => Loading Basis Set <=

    Name: AUG-CC-PVTZ
    Role: ORBITAL
    Keyword: BASIS
    atoms 1     entry O          line   331 file /home1/07844/xy3866/miniconda3/envs/p4env/share/psi4/basis/aug-cc-pvtz.gbs 
    atoms 2     entry N          line   285 file /home1/07844/xy3866/miniconda3/envs/p4env/share/psi4/basis/aug-cc-pvtz.gbs 
    atoms 3-12  entry C          line   239 file /home1/07844/xy3866/miniconda3/envs/p4env/share/psi4/basis/aug-cc-pvtz.gbs 
    atoms 13-23 entry H          line    40 file /home1/07844/xy3866/miniconda3/envs/p4env/share/psi4/basis/aug-cc-pvtz.gbs 


         ---------------------------------------------------------
                                   SCF
               by Justin Turney, Rob Parrish, Andy Simmonett
                          and Daniel G. A. Smith
                              RHF Reference
                       32 Threads,  30517 MiB Core
         ---------------------------------------------------------

  ==> Geometry <==

    Molecular point group: c1
    Full point group: C1

    Geometry (in Angstrom), charge = 0, multiplicity = 1:

       Center              X                  Y                   Z               Mass       
    ------------   -----------------  -----------------  -----------------  -----------------
         O            0.956487320236     2.466049052996    -0.646132051133    15.994914619570
         N            2.061121320236     0.649036052996     0.188501948867    14.003074004430
         C            0.771169320236    -1.603902947004    -0.859769051133    12.000000000000
         C            1.830508320236    -1.819994947004     0.229934948867    12.000000000000
         C           -0.435010679764    -0.841435947004    -0.370953051133    12.000000000000
         C            2.041436320236    -0.538589947004     1.036427948867    12.000000000000
         C           -0.350345679764     0.536191052996    -0.080827051133    12.000000000000
         C            0.926662320236     1.310529052996    -0.212531051133    12.000000000000
         C           -1.676625679764    -1.471993947004    -0.226341051133    12.000000000000
         C           -1.488852679764     1.254751052996     0.302135948867    12.000000000000
         C           -2.806474679764    -0.763209947004     0.185031948867    12.000000000000
         C           -2.713405679764     0.605904052996     0.446212948867    12.000000000000
         H            0.453086320236    -2.570503947004    -1.266442051133     1.007825032230
         H            1.231333320236    -1.049947947004    -1.685083051133     1.007825032230
         H            1.521278320236    -2.619318947004     0.914896948867     1.007825032230
         H            2.769109320236    -2.136679947004    -0.239888051133     1.007825032230
         H            1.280182320236    -0.441788947004     1.746289048867     1.007825032230
         H            2.987725320236    -0.574786947004     1.584028948867     1.007825032230
         H            2.894056320236     1.228549052996     0.166433948867     1.007825032230
         H           -1.760807679764    -2.533103947004    -0.456615051133     1.007825032230
         H           -1.393341679764     2.323264052996     0.477749948867     1.007825032230
         H           -3.759410679764    -1.276685947004     0.290833948867     1.007825032230
         H           -3.593490679764     1.165687052996     0.753261948867     1.007825032230

  Running in c1 symmetry.

  Rotational constants: A =      0.04811  B =      0.03117  C =      0.02122 [cm^-1]
  Rotational constants: A =   1442.31500  B =    934.57604  C =    636.17396 [MHz]
  Nuclear repulsion =  685.342661402328417

  Charge       = 0
  Multiplicity = 1
  Electrons    = 86
  Nalpha       = 43
  Nbeta        = 43

  ==> Algorithm <==

  SCF Algorithm Type is DF.
  DIIS enabled.
  MOM disabled.
  Fractional occupation disabled.
  Guess Type is SAD.
  Energy threshold   = 1.00e-10
  Density threshold  = 1.00e-10
  Integral threshold = 1.00e-12

  ==> Primary Basis <==

  Basis Set: AUG-CC-PVTZ
    Blend: AUG-CC-PVTZ
    Number of shells: 267
    Number of basis functions: 805
    Number of Cartesian functions: 935
    Spherical Harmonics?: true
    Max angular momentum: 3

   => Loading Basis Set <=

    Name: (AUG-CC-PVTZ AUX)
    Role: JKFIT
    Keyword: DF_BASIS_SCF
    atoms 1     entry O          line   286 file /home1/07844/xy3866/miniconda3/envs/p4env/share/psi4/basis/aug-cc-pvtz-jkfit.gbs 
    atoms 2     entry N          line   224 file /home1/07844/xy3866/miniconda3/envs/p4env/share/psi4/basis/aug-cc-pvtz-jkfit.gbs 
    atoms 3-12  entry C          line   162 file /home1/07844/xy3866/miniconda3/envs/p4env/share/psi4/basis/aug-cc-pvtz-jkfit.gbs 
    atoms 13-23 entry H          line    70 file /home1/07844/xy3866/miniconda3/envs/p4env/share/psi4/basis/aug-cc-pvtz-jkfit.gbs 

  ==> Integral Setup <==

  DFHelper Memory: AOs need 7.992 GiB; user supplied 22.352 GiB. Using in-core AOs.

  ==> MemDFJK: Density-Fitted J/K Matrices <==

    J tasked:                   Yes
    K tasked:                   Yes
    wK tasked:                   No
    OpenMP threads:              32
    Memory [MiB]:             22888
    Algorithm:                 Core
    Schwarz Cutoff:           1E-12
    Mask sparsity (%):       9.2645
    Fitting Condition:        1E-10

   => Auxiliary Basis Set <=

  Basis Set: (AUG-CC-PVTZ AUX)
    Blend: AUG-CC-PVTZ-JKFIT
    Number of shells: 514
    Number of basis functions: 1754
    Number of Cartesian functions: 2177
    Spherical Harmonics?: true
    Max angular momentum: 4

  Minimum eigenvalue in the overlap matrix is 4.4865441141E-07.
  Reciprocal condition number of the overlap matrix is 1.9438505009E-08.
    Using symmetric orthogonalization.

  ==> Pre-Iterations <==

  SCF Guess: Superposition of Atomic Densities via on-the-fly atomic UHF (no occupation information).

   -------------------------
    Irrep   Nso     Nmo    
   -------------------------
     A        805     805 
   -------------------------
    Total     805     805
   -------------------------

  ==> Iterations <==

                           Total Energy        Delta E     RMS |[F,P]|

   @DF-RHF iter SAD:  -514.40221478477406   -5.14402e+02   0.00000e+00 
   @DF-RHF iter   1:  -514.23676564838047    1.65449e-01   9.86727e-04 DIIS
   @DF-RHF iter   2:  -514.51900977815774   -2.82244e-01   5.18110e-04 DIIS
   @DF-RHF iter   3:  -514.59069858711212   -7.16888e-02   1.04122e-04 DIIS
   @DF-RHF iter   4:  -514.59520867747801   -4.51009e-03   4.38715e-05 DIIS
   @DF-RHF iter   5:  -514.59585092144050   -6.42244e-04   1.00291e-05 DIIS
   @DF-RHF iter   6:  -514.59591474805336   -6.38266e-05   4.71070e-06 DIIS
   @DF-RHF iter   7:  -514.59592864967260   -1.39016e-05   1.87403e-06 DIIS
   @DF-RHF iter   8:  -514.59593228189033   -3.63222e-06   8.74738e-07 DIIS
   @DF-RHF iter   9:  -514.59593301183531   -7.29945e-07   3.32816e-07 DIIS
   @DF-RHF iter  10:  -514.59593313754158   -1.25706e-07   1.11333e-07 DIIS
   @DF-RHF iter  11:  -514.59593315310974   -1.55682e-08   4.56797e-08 DIIS
   @DF-RHF iter  12:  -514.59593315604866   -2.93892e-09   2.28729e-08 DIIS
   @DF-RHF iter  13:  -514.59593315684265   -7.93989e-10   1.03473e-08 DIIS
   @DF-RHF iter  14:  -514.59593315702875   -1.86105e-10   4.00110e-09 DIIS
   @DF-RHF iter  15:  -514.59593315704956   -2.08047e-11   1.64341e-09 DIIS
   @DF-RHF iter  16:  -514.59593315705388   -4.32010e-12   5.86402e-10 DIIS
   @DF-RHF iter  17:  -514.59593315705411   -2.27374e-13   1.76938e-10 DIIS
   @DF-RHF iter  18:  -514.59593315705365    4.54747e-13   7.12540e-11 DIIS
  Energy and wave function converged.


  ==> Post-Iterations <==

    Orbital Energies [Eh]
    ---------------------

    Doubly Occupied:                                                      

       1A    -20.514890     2A    -15.582192     3A    -11.351302  
       4A    -11.269855     5A    -11.258334     6A    -11.248869  
       7A    -11.247236     8A    -11.245589     9A    -11.241815  
      10A    -11.239881    11A    -11.239258    12A    -11.237498  
      13A     -1.368857    14A     -1.235069    15A     -1.164245  
      16A     -1.082409    17A     -1.037026    18A     -1.021288  
      19A     -0.940708    20A     -0.881521    21A     -0.842589  
      22A     -0.798791    23A     -0.777356    24A     -0.697619  
      25A     -0.687970    26A     -0.672520    27A     -0.652372  
      28A     -0.623983    29A     -0.616118    30A     -0.599846  
      31A     -0.587483    32A     -0.577340    33A     -0.557330  
      34A     -0.537811    35A     -0.519791    36A     -0.509800  
      37A     -0.492681    38A     -0.490119    39A     -0.478948  
      40A     -0.423182    41A     -0.389706    42A     -0.343973  
      43A     -0.336284  

    Virtual:                                                              

      44A      0.023509    45A      0.028622    46A      0.031397  
      47A      0.037602    48A      0.043120    49A      0.045615  
      50A      0.054878    51A      0.055808    52A      0.061962  
      53A      0.064801    54A      0.069018    55A      0.083705  
      56A      0.093376    57A      0.097309    58A      0.099110  
      59A      0.104329    60A      0.106265    61A      0.111510  
      62A      0.111933    63A      0.115035    64A      0.118143  
      65A      0.119102    66A      0.125278    67A      0.125537  
      68A      0.129561    69A      0.134094    70A      0.140404  
      71A      0.141093    72A      0.144399    73A      0.148395  
      74A      0.149141    75A      0.158127    76A      0.159816  
      77A      0.163386    78A      0.164329    79A      0.171741  
      80A      0.174387    81A      0.175544    82A      0.178439  
      83A      0.188686    84A      0.189107    85A      0.203973  
      86A      0.207840    87A      0.213384    88A      0.213499  
      89A      0.226140    90A      0.229418    91A      0.230519  
      92A      0.233592    93A      0.240888    94A      0.246413  
      95A      0.251232    96A      0.257224    97A      0.262779  
      98A      0.270715    99A      0.273915   100A      0.276987  
     101A      0.283019   102A      0.290122   103A      0.294355  
     104A      0.297701   105A      0.298616   106A      0.301030  
     107A      0.304040   108A      0.313904   109A      0.315097  
     110A      0.317894   111A      0.321766   112A      0.323968  
     113A      0.327698   114A      0.333378   115A      0.335634  
     116A      0.337939   117A      0.342970   118A      0.347472  
     119A      0.351352   120A      0.355664   121A      0.358700  
     122A      0.364233   123A      0.371400   124A      0.373115  
     125A      0.383579   126A      0.384386   127A      0.390981  
     128A      0.397279   129A      0.403651   130A      0.404898  
     131A      0.411125   132A      0.419847   133A      0.425519  
     134A      0.429048   135A      0.431600   136A      0.433545  
     137A      0.436262   138A      0.438749   139A      0.442264  
     140A      0.447547   141A      0.452035   142A      0.453362  
     143A      0.463263   144A      0.465840   145A      0.465995  
     146A      0.467913   147A      0.470994   148A      0.477612  
     149A      0.480598   150A      0.486235   151A      0.489243  
     152A      0.494443   153A      0.496793   154A      0.498476  
     155A      0.504296   156A      0.511288   157A      0.516444  
     158A      0.519344   159A      0.520994   160A      0.524105  
     161A      0.528786   162A      0.530220   163A      0.535992  
     164A      0.537139   165A      0.540430   166A      0.544982  
     167A      0.548919   168A      0.555263   169A      0.557717  
     170A      0.559859   171A      0.572766   172A      0.574393  
     173A      0.581215   174A      0.583394   175A      0.588945  
     176A      0.593568   177A      0.602347   178A      0.606963  
     179A      0.607791   180A      0.620043   181A      0.622306  
     182A      0.625171   183A      0.630035   184A      0.633897  
     185A      0.645022   186A      0.648855   187A      0.654925  
     188A      0.659039   189A      0.664295   190A      0.665503  
     191A      0.674198   192A      0.675392   193A      0.686860  
     194A      0.688787   195A      0.694550   196A      0.704630  
     197A      0.709169   198A      0.711047   199A      0.713877  
     200A      0.722923   201A      0.723974   202A      0.733140  
     203A      0.738259   204A      0.743896   205A      0.748730  
     206A      0.756877   207A      0.760325   208A      0.770125  
     209A      0.787476   210A      0.788834   211A      0.793828  
     212A      0.801838   213A      0.803320   214A      0.811019  
     215A      0.816816   216A      0.821401   217A      0.823491  
     218A      0.834392   219A      0.840051   220A      0.852198  
     221A      0.857241   222A      0.859560   223A      0.865853  
     224A      0.867758   225A      0.873005   226A      0.877797  
     227A      0.884190   228A      0.888776   229A      0.892767  
     230A      0.901250   231A      0.906212   232A      0.908784  
     233A      0.918787   234A      0.922781   235A      0.928170  
     236A      0.932497   237A      0.941076   238A      0.942052  
     239A      0.944378   240A      0.954640   241A      0.955637  
     242A      0.961760   243A      0.965177   244A      0.967520  
     245A      0.972279   246A      0.980650   247A      0.984043  
     248A      0.990268   249A      0.997958   250A      1.002240  
     251A      1.007740   252A      1.011663   253A      1.015447  
     254A      1.020416   255A      1.027151   256A      1.035270  
     257A      1.037521   258A      1.042627   259A      1.053417  
     260A      1.056232   261A      1.059752   262A      1.067719  
     263A      1.072359   264A      1.073428   265A      1.076959  
     266A      1.082262   267A      1.085906   268A      1.092321  
     269A      1.097378   270A      1.100564   271A      1.105583  
     272A      1.111167   273A      1.117140   274A      1.127428  
     275A      1.128848   276A      1.132682   277A      1.133852  
     278A      1.137218   279A      1.147403   280A      1.150804  
     281A      1.153803   282A      1.158623   283A      1.161568  
     284A      1.171433   285A      1.175866   286A      1.183057  
     287A      1.190111   288A      1.194326   289A      1.199188  
     290A      1.202202   291A      1.206600   292A      1.212245  
     293A      1.213990   294A      1.222613   295A      1.225629  
     296A      1.235046   297A      1.239905   298A      1.249726  
     299A      1.252463   300A      1.256818   301A      1.267283  
     302A      1.272061   303A      1.274600   304A      1.279492  
     305A      1.285168   306A      1.289529   307A      1.301685  
     308A      1.303651   309A      1.308828   310A      1.317015  
     311A      1.320043   312A      1.327139   313A      1.335851  
     314A      1.340575   315A      1.347582   316A      1.355184  
     317A      1.360607   318A      1.367376   319A      1.383571  
     320A      1.387588   321A      1.393957   322A      1.409047  
     323A      1.414144   324A      1.419305   325A      1.422116  
     326A      1.424621   327A      1.441070   328A      1.447893  
     329A      1.455012   330A      1.459568   331A      1.462221  
     332A      1.472143   333A      1.485537   334A      1.488513  
     335A      1.496487   336A      1.501168   337A      1.505330  
     338A      1.507751   339A      1.522138   340A      1.533631  
     341A      1.535379   342A      1.552366   343A      1.559586  
     344A      1.568669   345A      1.569498   346A      1.572307  
     347A      1.577635   348A      1.584123   349A      1.591622  
     350A      1.601644   351A      1.603413   352A      1.608873  
     353A      1.614796   354A      1.621873   355A      1.629361  
     356A      1.632270   357A      1.649506   358A      1.653325  
     359A      1.653735   360A      1.663368   361A      1.668078  
     362A      1.671606   363A      1.691778   364A      1.697874  
     365A      1.704034   366A      1.708142   367A      1.714269  
     368A      1.729701   369A      1.733832   370A      1.739428  
     371A      1.743660   372A      1.751942   373A      1.754660  
     374A      1.765734   375A      1.768689   376A      1.780952  
     377A      1.790972   378A      1.796736   379A      1.803919  
     380A      1.812193   381A      1.817703   382A      1.825748  
     383A      1.829197   384A      1.836793   385A      1.841375  
     386A      1.853816   387A      1.863025   388A      1.870625  
     389A      1.876259   390A      1.881512   391A      1.885774  
     392A      1.890472   393A      1.896684   394A      1.909933  
     395A      1.916997   396A      1.920335   397A      1.926033  
     398A      1.934537   399A      1.941619   400A      1.946324  
     401A      1.957627   402A      1.970006   403A      1.979346  
     404A      1.990176   405A      2.000408   406A      2.008146  
     407A      2.010381   408A      2.024031   409A      2.031266  
     410A      2.033001   411A      2.041069   412A      2.046365  
     413A      2.054590   414A      2.065287   415A      2.068634  
     416A      2.078985   417A      2.085980   418A      2.096172  
     419A      2.107928   420A      2.110051   421A      2.118253  
     422A      2.124260   423A      2.132440   424A      2.141905  
     425A      2.146421   426A      2.156848   427A      2.163429  
     428A      2.173298   429A      2.177782   430A      2.191068  
     431A      2.201949   432A      2.210758   433A      2.212531  
     434A      2.222655   435A      2.235728   436A      2.240563  
     437A      2.252414   438A      2.259038   439A      2.273910  
     440A      2.280058   441A      2.290822   442A      2.304605  
     443A      2.309811   444A      2.319565   445A      2.335461  
     446A      2.341577   447A      2.348045   448A      2.355802  
     449A      2.360909   450A      2.379654   451A      2.387905  
     452A      2.395216   453A      2.405149   454A      2.416677  
     455A      2.423892   456A      2.434177   457A      2.440668  
     458A      2.450318   459A      2.456419   460A      2.465953  
     461A      2.487241   462A      2.493047   463A      2.501523  
     464A      2.517007   465A      2.531066   466A      2.540211  
     467A      2.545852   468A      2.560051   469A      2.572737  
     470A      2.575800   471A      2.589074   472A      2.606083  
     473A      2.611987   474A      2.634936   475A      2.646551  
     476A      2.653049   477A      2.659105   478A      2.669428  
     479A      2.684260   480A      2.697291   481A      2.711308  
     482A      2.723527   483A      2.735633   484A      2.741270  
     485A      2.754307   486A      2.774515   487A      2.791952  
     488A      2.808198   489A      2.815829   490A      2.835404  
     491A      2.838960   492A      2.855376   493A      2.860631  
     494A      2.880289   495A      2.900274   496A      2.923233  
     497A      2.942382   498A      2.951130   499A      2.972950  
     500A      3.004313   501A      3.035713   502A      3.068187  
     503A      3.086933   504A      3.107122   505A      3.129504  
     506A      3.151938   507A      3.180027   508A      3.197729  
     509A      3.208933   510A      3.217136   511A      3.251870  
     512A      3.280989   513A      3.294765   514A      3.306055  
     515A      3.316137   516A      3.333237   517A      3.339325  
     518A      3.378417   519A      3.398345   520A      3.403221  
     521A      3.411769   522A      3.433203   523A      3.439882  
     524A      3.450901   525A      3.477665   526A      3.480324  
     527A      3.483638   528A      3.497523   529A      3.510816  
     530A      3.516669   531A      3.523463   532A      3.528930  
     533A      3.543697   534A      3.553416   535A      3.566854  
     536A      3.584994   537A      3.587051   538A      3.589321  
     539A      3.599614   540A      3.611690   541A      3.616486  
     542A      3.630294   543A      3.641581   544A      3.649904  
     545A      3.654816   546A      3.679231   547A      3.689237  
     548A      3.693727   549A      3.701440   550A      3.709481  
     551A      3.723650   552A      3.738331   553A      3.742600  
     554A      3.747219   555A      3.769656   556A      3.775507  
     557A      3.782274   558A      3.788889   559A      3.793097  
     560A      3.812016   561A      3.819807   562A      3.825661  
     563A      3.836800   564A      3.838951   565A      3.849038  
     566A      3.866040   567A      3.870239   568A      3.888747  
     569A      3.890385   570A      3.896612   571A      3.908452  
     572A      3.915468   573A      3.932781   574A      3.934905  
     575A      3.940479   576A      3.947527   577A      3.952805  
     578A      3.966965   579A      3.971272   580A      3.983792  
     581A      3.985539   582A      3.994090   583A      4.002462  
     584A      4.025247   585A      4.027815   586A      4.034170  
     587A      4.045140   588A      4.054154   589A      4.058495  
     590A      4.074587   591A      4.083099   592A      4.088419  
     593A      4.096052   594A      4.100706   595A      4.109007  
     596A      4.123779   597A      4.135772   598A      4.138100  
     599A      4.149852   600A      4.164422   601A      4.181076  
     602A      4.184918   603A      4.193735   604A      4.204731  
     605A      4.214148   606A      4.220870   607A      4.221787  
     608A      4.236276   609A      4.250561   610A      4.258259  
     611A      4.268259   612A      4.282298   613A      4.294071  
     614A      4.302735   615A      4.306475   616A      4.310644  
     617A      4.327440   618A      4.348805   619A      4.359054  
     620A      4.370110   621A      4.371724   622A      4.372095  
     623A      4.387620   624A      4.396202   625A      4.400058  
     626A      4.408625   627A      4.414946   628A      4.419305  
     629A      4.429074   630A      4.446159   631A      4.455575  
     632A      4.459517   633A      4.464760   634A      4.474998  
     635A      4.490891   636A      4.507374   637A      4.515683  
     638A      4.530014   639A      4.541889   640A      4.552171  
     641A      4.557660   642A      4.573238   643A      4.577751  
     644A      4.598975   645A      4.620744   646A      4.624754  
     647A      4.635091   648A      4.642045   649A      4.649911  
     650A      4.668276   651A      4.691187   652A      4.692700  
     653A      4.705508   654A      4.710573   655A      4.729109  
     656A      4.733963   657A      4.746179   658A      4.757280  
     659A      4.766875   660A      4.775019   661A      4.786725  
     662A      4.795126   663A      4.804042   664A      4.816382  
     665A      4.826866   666A      4.841450   667A      4.862726  
     668A      4.876057   669A      4.884141   670A      4.902061  
     671A      4.919463   672A      4.927077   673A      4.938088  
     674A      4.954424   675A      4.956898   676A      4.973383  
     677A      4.988435   678A      5.027108   679A      5.029064  
     680A      5.045536   681A      5.063037   682A      5.071910  
     683A      5.074144   684A      5.086088   685A      5.091724  
     686A      5.105182   687A      5.119883   688A      5.127713  
     689A      5.137637   690A      5.140660   691A      5.153935  
     692A      5.156965   693A      5.167141   694A      5.177115  
     695A      5.198539   696A      5.201826   697A      5.220085  
     698A      5.234376   699A      5.240842   700A      5.254323  
     701A      5.267182   702A      5.269759   703A      5.291158  
     704A      5.305165   705A      5.324722   706A      5.338033  
     707A      5.343517   708A      5.356968   709A      5.371270  
     710A      5.383265   711A      5.405184   712A      5.408633  
     713A      5.409676   714A      5.455090   715A      5.458052  
     716A      5.466818   717A      5.489087   718A      5.500899  
     719A      5.514947   720A      5.530041   721A      5.537670  
     722A      5.574855   723A      5.591407   724A      5.597811  
     725A      5.624569   726A      5.647969   727A      5.668422  
     728A      5.678448   729A      5.699441   730A      5.710821  
     731A      5.726451   732A      5.733272   733A      5.736265  
     734A      5.756998   735A      5.791678   736A      5.801973  
     737A      5.816946   738A      5.841880   739A      5.859270  
     740A      5.902705   741A      5.908727   742A      5.936958  
     743A      5.975557   744A      6.009014   745A      6.029812  
     746A      6.060839   747A      6.125268   748A      6.146338  
     749A      6.169382   750A      6.175634   751A      6.199360  
     752A      6.223473   753A      6.228588   754A      6.265596  
     755A      6.291487   756A      6.306882   757A      6.319231  
     758A      6.339195   759A      6.399923   760A      6.419616  
     761A      6.422073   762A      6.459461   763A      6.501369  
     764A      6.546687   765A      6.564352   766A      6.603705  
     767A      6.639751   768A      6.688921   769A      6.705256  
     770A      6.729341   771A      6.782360   772A      6.808096  
     773A      6.851622   774A      6.867819   775A      6.921866  
     776A      6.937488   777A      6.993760   778A      7.026075  
     779A      7.040185   780A      7.059369   781A      7.093884  
     782A      7.101635   783A      7.249548   784A      7.262783  
     785A      7.312265   786A      7.474010   787A      7.494377  
     788A      7.645392   789A      7.726379   790A      7.819833  
     791A      7.885073   792A      7.993837   793A      8.063476  
     794A     15.789287   795A     16.315969   796A     16.848205  
     797A     17.478858   798A     18.384241   799A     18.792734  
     800A     19.336855   801A     19.419319   802A     19.948579  
     803A     20.248628   804A     21.186772   805A     21.542439  

    Final Occupation by Irrep:
              A 
    DOCC [    43 ]

  @DF-RHF Final Energy:  -514.59593315705365

   => Energetics <=

    Nuclear Repulsion Energy =            685.3426614023284174
    One-Electron Energy =               -2058.6342887564346711
    Two-Electron Energy =                 858.6956941970527168
    Total Energy =                       -514.5959331570536506

Computation Completed

*** tstop() called on c446-001.stampede2.tacc.utexas.edu at Sat Mar 20 11:18:42 2021
Module time:
	user time   =    1136.77 seconds =      18.95 minutes
	system time =      60.20 seconds =       1.00 minutes
	total time  =         57 seconds =       0.95 minutes
Total time:
	user time   =    1136.77 seconds =      18.95 minutes
	system time =      60.20 seconds =       1.00 minutes
	total time  =         57 seconds =       0.95 minutes
   => Loading Basis Set <=

    Name: (AUG-CC-PVTZ AUX)
    Role: RIFIT
    Keyword: DF_BASIS_MP2
    atoms 1     entry O          line   264 file /home1/07844/xy3866/miniconda3/envs/p4env/share/psi4/basis/aug-cc-pvtz-ri.gbs 
    atoms 2     entry N          line   206 file /home1/07844/xy3866/miniconda3/envs/p4env/share/psi4/basis/aug-cc-pvtz-ri.gbs 
    atoms 3-12  entry C          line   148 file /home1/07844/xy3866/miniconda3/envs/p4env/share/psi4/basis/aug-cc-pvtz-ri.gbs 
    atoms 13-23 entry H          line    30 file /home1/07844/xy3866/miniconda3/envs/p4env/share/psi4/basis/aug-cc-pvtz-ri.gbs 


*** tstart() called on c446-001.stampede2.tacc.utexas.edu
*** at Sat Mar 20 11:18:43 2021


  //>>>>>>>>>>>>>>>>>>>>>>>>>>>>>>>>>>>//
  //               DFMP2               //
  //<<<<<<<<<<<<<<<<<<<<<<<<<<<<<<<<<<<//

	 --------------------------------------------------------
	                          DF-MP2                         
	      2nd-Order Density-Fitted Moller-Plesset Theory     
	              RMP2 Wavefunction,  32 Threads             
	                                                         
	        Rob Parrish, Justin Turney, Andy Simmonett,      
	           Ed Hohenstein, and C. David Sherrill          
	 --------------------------------------------------------

   => Auxiliary Basis Set <=

  Basis Set: (AUG-CC-PVTZ AUX)
    Blend: AUG-CC-PVTZ-RI
    Number of shells: 490
    Number of basis functions: 1778
    Number of Cartesian functions: 2237
    Spherical Harmonics?: true
    Max angular momentum: 4

	 --------------------------------------------------------
	                 NBF =   805, NAUX =  1778
	 --------------------------------------------------------
	   CLASS    FOCC     OCC    AOCC    AVIR     VIR    FVIR
	   PAIRS       0      43      43     762     762       0
	 --------------------------------------------------------

  DFHelper Memory: AOs need 8.321 GiB; user supplied 22.352 GiB. Using in-core AOs.


         ------------------------------------------------------------
                                     CPHF                           
                                  Rob Parrish                       
         ------------------------------------------------------------

  ==> Geometry <==

    Molecular point group: c1
    Full point group: C1

    Geometry (in Angstrom), charge = 0, multiplicity = 1:

       Center              X                  Y                   Z               Mass       
    ------------   -----------------  -----------------  -----------------  -----------------
         O            0.956487320236     2.466049052996    -0.646132051133    15.994914619570
         N            2.061121320236     0.649036052996     0.188501948867    14.003074004430
         C            0.771169320236    -1.603902947004    -0.859769051133    12.000000000000
         C            1.830508320236    -1.819994947004     0.229934948867    12.000000000000
         C           -0.435010679764    -0.841435947004    -0.370953051133    12.000000000000
         C            2.041436320236    -0.538589947004     1.036427948867    12.000000000000
         C           -0.350345679764     0.536191052996    -0.080827051133    12.000000000000
         C            0.926662320236     1.310529052996    -0.212531051133    12.000000000000
         C           -1.676625679764    -1.471993947004    -0.226341051133    12.000000000000
         C           -1.488852679764     1.254751052996     0.302135948867    12.000000000000
         C           -2.806474679764    -0.763209947004     0.185031948867    12.000000000000
         C           -2.713405679764     0.605904052996     0.446212948867    12.000000000000
         H            0.453086320236    -2.570503947004    -1.266442051133     1.007825032230
         H            1.231333320236    -1.049947947004    -1.685083051133     1.007825032230
         H            1.521278320236    -2.619318947004     0.914896948867     1.007825032230
         H            2.769109320236    -2.136679947004    -0.239888051133     1.007825032230
         H            1.280182320236    -0.441788947004     1.746289048867     1.007825032230
         H            2.987725320236    -0.574786947004     1.584028948867     1.007825032230
         H            2.894056320236     1.228549052996     0.166433948867     1.007825032230
         H           -1.760807679764    -2.533103947004    -0.456615051133     1.007825032230
         H           -1.393341679764     2.323264052996     0.477749948867     1.007825032230
         H           -3.759410679764    -1.276685947004     0.290833948867     1.007825032230
         H           -3.593490679764     1.165687052996     0.753261948867     1.007825032230

  Nuclear repulsion =  685.342661402328417
  Reference energy  = -514.595933157053651

  ==> Basis Set <==

  Basis Set: AUG-CC-PVTZ
    Blend: AUG-CC-PVTZ
    Number of shells: 267
    Number of basis functions: 805
    Number of Cartesian functions: 935
    Spherical Harmonics?: true
    Max angular momentum: 3

  ==> CGRSolver (by Rob Parrish) <==

   Number of roots    =         1
   Preconditioning    =    JACOBI
   Convergence cutoff =     1E-06
   Maximum iterations =       100

  ==> CPHFRHamiltonian (by Rob Parrish) <== 

  ==> MemDFJK: Density-Fitted J/K Matrices <==

    J tasked:                   Yes
    K tasked:                   Yes
    wK tasked:                   No
    OpenMP threads:              32
    Memory [MiB]:             22888
    Algorithm:                 Core
    Schwarz Cutoff:           1E-12
    Mask sparsity (%):       5.3773
    Fitting Condition:        1E-10

   => Auxiliary Basis Set <=

  Basis Set: (AUG-CC-PVTZ AUX)
    Blend: AUG-CC-PVTZ-JKFIT
    Number of shells: 514
    Number of basis functions: 1754
    Number of Cartesian functions: 2177
    Spherical Harmonics?: true
    Max angular momentum: 4

  ==> CPHF Iterations <==

  => Iterations <=

             Iter  Converged  Remaining    Residual
  CGR           1          0          1   1.180E-01
  CGR           2          0          1   3.645E-02
  CGR           3          0          1   1.770E-02
  CGR           4          0          1   7.743E-03
  CGR           5          0          1   3.747E-03
  CGR           6          0          1   1.674E-03
  CGR           7          0          1   5.279E-04
  CGR           8          0          1   1.838E-04
  CGR           9          0          1   5.866E-05
  CGR          10          0          1   1.930E-05
  CGR          11          0          1   8.190E-06
  CGR          12          0          1   3.328E-06
  CGR          13          0          1   1.502E-06
  CGR          14          1          0   5.396E-07

    CGRSolver converged.

	-----------------------------------------------------------
	 ==================> DF-MP2 Energies <==================== 
	-----------------------------------------------------------
	 Reference Energy          =    -514.5959331570536506 [Eh]
	 Singles Energy            =      -0.0000000000000000 [Eh]
	 Same-Spin Energy          =      -0.5585411220159932 [Eh]
	 Opposite-Spin Energy      =      -1.7439856085773027 [Eh]
	 Correlation Energy        =      -2.3025267305932959 [Eh]
	 Total Energy              =    -516.8984598876469363 [Eh]
	-----------------------------------------------------------
	 ================> DF-SCS-MP2 Energies <================== 
	-----------------------------------------------------------
	 SCS Same-Spin Scale       =       0.3333333333333333 [-]
	 SCS Opposite-Spin Scale   =       1.2000000000000000 [-]
	 SCS Same-Spin Energy      =      -0.1861803740053311 [Eh]
	 SCS Opposite-Spin Energy  =      -2.0927827302927633 [Eh]
	 SCS Correlation Energy    =      -2.2789631042980942 [Eh]
	 SCS Total Energy          =    -516.8748962613517506 [Eh]
	-----------------------------------------------------------



Properties will be evaluated at  -0.000000,  -0.000000,   0.000000 [a0]

Properties computed using the MP2 density matrix

  Nuclear Dipole Moment: [e a0]
     X:     2.4639      Y:    -7.9448      Z:     2.1389

  Electronic Dipole Moment: [e a0]
     X:    -2.2188      Y:     6.5203      Z:    -1.4336

  Dipole Moment: [e a0]
     X:     0.2451      Y:    -1.4245      Z:     0.7053     Total:     1.6083

  Dipole Moment: [D]
     X:     0.6229      Y:    -3.6206      Z:     1.7927     Total:     4.0878


*** tstop() called on c446-001.stampede2.tacc.utexas.edu at Sat Mar 20 11:24:34 2021
Module time:
	user time   =    3652.98 seconds =      60.88 minutes
	system time =      86.37 seconds =       1.44 minutes
	total time  =        351 seconds =       5.85 minutes
Total time:
	user time   =    4790.88 seconds =      79.85 minutes
	system time =     146.59 seconds =       2.44 minutes
	total time  =        409 seconds =       6.82 minutes

    Psi4 stopped on: Saturday, 20 March 2021 11:24AM
    Psi4 wall time for execution: 0:06:49.67

*** Psi4 exiting successfully. Buy a developer a beer!
