
    -----------------------------------------------------------------------
          Psi4: An Open-Source Ab Initio Electronic Structure Package
                               Psi4 1.3.2 release

                         Git: Rev {HEAD} ecbda83 


    R. M. Parrish, L. A. Burns, D. G. A. Smith, A. C. Simmonett,
    A. E. DePrince III, E. G. Hohenstein, U. Bozkaya, A. Yu. Sokolov,
    R. Di Remigio, R. M. Richard, J. F. Gonthier, A. M. James,
    H. R. McAlexander, A. Kumar, M. Saitow, X. Wang, B. P. Pritchard,
    P. Verma, H. F. Schaefer III, K. Patkowski, R. A. King, E. F. Valeev,
    F. A. Evangelista, J. M. Turney, T. D. Crawford, and C. D. Sherrill,
    J. Chem. Theory Comput. 13(7) pp 3185--3197 (2017).
    (doi: 10.1021/acs.jctc.7b00174)


                         Additional Contributions by
    P. Kraus, H. Kruse, M. H. Lechner, M. C. Schieber, R. A. Shaw,
    A. Alenaizan, R. Galvelis, Z. L. Glick, S. Lehtola, and J. P. Misiewicz

    -----------------------------------------------------------------------


    Psi4 started on: Sunday, 07 February 2021 10:37PM

    Process ID: 1829507
    Host:       node54.bme.utexas.edu
    PSIDATADIR: /home/xy3866/psi4conda/share/psi4
    Memory:     500.0 MiB
    Threads:    8
    
  ==> Input File <==

--------------------------------------------------------------------------
#psi4
#
memory 32 gb

molecule  {
0 1
  O        0.9417500     2.5148810    -0.6596880
  N        2.0463840     0.6978680     0.1749460
  C        0.7564320    -1.5550710    -0.8733250
  C        1.8157710    -1.7711630     0.2163790
  C       -0.3530887    -0.7911102    -0.4031080
  C        2.0266990    -0.4897580     1.0228720
  C       -0.3650830     0.5850230    -0.0943830
  C        0.9119250     1.3593610    -0.2260870
  C       -1.6913630    -1.4231620    -0.2398970
  C       -1.5035900     1.3035830     0.2885800
  C       -2.8212120    -0.7143780     0.1714760
  C       -2.7281430     0.6547360     0.4326570
  H        0.4383490    -2.5216720    -1.2799980
  H        1.2165960    -1.0011160    -1.6986390
  H        1.5065410    -2.5704870     0.9013410
  H        2.7543720    -2.0878480    -0.2534440
  H        1.2290340    -0.3883270     1.7666860
  H        2.9729880    -0.5259550     1.5704730
  H        2.8793190     1.2773810     0.1528780
  H       -1.7755450    -2.4842720    -0.4701710
  H       -1.4080790     2.3720960     0.4641940
  H       -3.7741480    -1.2278540     0.2772780
  H       -3.6082280     1.2145190     0.7397060
units angstrom
no_reorient  #important for SAPT in psi4, default
symmetry c1  #important for SAPT in psi4, default
}

set PROPERTIES_ORIGIN ["COM"]
properties('MP2/aug-cc-pvtz', properties = ['dipole'])
--------------------------------------------------------------------------

  Memory set to  29.802 GiB by Python driver.
    SCF Algorithm Type (re)set to DF.

*** tstart() called on node54.bme.utexas.edu
*** at Sun Feb  7 22:37:38 2021

   => Loading Basis Set <=

    Name: AUG-CC-PVTZ
    Role: ORBITAL
    Keyword: BASIS
    atoms 1     entry O          line   327 file /home/xy3866/psi4conda/share/psi4/basis/aug-cc-pvtz.gbs 
    atoms 2     entry N          line   281 file /home/xy3866/psi4conda/share/psi4/basis/aug-cc-pvtz.gbs 
    atoms 3-12  entry C          line   235 file /home/xy3866/psi4conda/share/psi4/basis/aug-cc-pvtz.gbs 
    atoms 13-23 entry H          line    36 file /home/xy3866/psi4conda/share/psi4/basis/aug-cc-pvtz.gbs 


         ---------------------------------------------------------
                                   SCF
               by Justin Turney, Rob Parrish, Andy Simmonett
                          and Daniel G. A. Smith
                              RHF Reference
                        8 Threads,  30517 MiB Core
         ---------------------------------------------------------

  ==> Geometry <==

    Molecular point group: c1
    Full point group: C1

    Geometry (in Angstrom), charge = 0, multiplicity = 1:

       Center              X                  Y                   Z               Mass       
    ------------   -----------------  -----------------  -----------------  -----------------
         O            0.949514466094     2.465908804300    -0.644958940567    15.994914619570
         N            2.054148466094     0.648895804300     0.189675059433    14.003074004430
         C            0.764196466094    -1.604043195700    -0.858595940567    12.000000000000
         C            1.823535466094    -1.820135195700     0.231108059433    12.000000000000
         C           -0.345324233906    -0.840082395700    -0.388378940567    12.000000000000
         C            2.034463466094    -0.538730195700     1.037601059433    12.000000000000
         C           -0.357318533906     0.536050804300    -0.079653940567    12.000000000000
         C            0.919689466094     1.310388804300    -0.211357940567    12.000000000000
         C           -1.683598533906    -1.472134195700    -0.225167940567    12.000000000000
         C           -1.495825533906     1.254610804300     0.303309059433    12.000000000000
         C           -2.813447533906    -0.763350195700     0.186205059433    12.000000000000
         C           -2.720378533906     0.605763804300     0.447386059433    12.000000000000
         H            0.446113466094    -2.570644195700    -1.265268940567     1.007825032230
         H            1.224360466094    -1.050088195700    -1.683909940567     1.007825032230
         H            1.514305466094    -2.619459195700     0.916070059433     1.007825032230
         H            2.762136466094    -2.136820195700    -0.238714940567     1.007825032230
         H            1.236798466094    -0.437299195700     1.781415059433     1.007825032230
         H            2.980752466094    -0.574927195700     1.585202059433     1.007825032230
         H            2.887083466094     1.228408804300     0.167607059433     1.007825032230
         H           -1.767780533906    -2.533244195700    -0.455441940567     1.007825032230
         H           -1.400314533906     2.323123804300     0.478923059433     1.007825032230
         H           -3.766383533906    -1.276826195700     0.292007059433     1.007825032230
         H           -3.600463533906     1.165546804300     0.754435059433     1.007825032230

  Running in c1 symmetry.

  Rotational constants: A =      0.04806  B =      0.03122  C =      0.02125 [cm^-1]
  Rotational constants: A =   1440.92990  B =    935.93557  C =    637.00341 [MHz]
  Nuclear repulsion =  685.335897559644877

  Charge       = 0
  Multiplicity = 1
  Electrons    = 86
  Nalpha       = 43
  Nbeta        = 43

  ==> Algorithm <==

  SCF Algorithm Type is DF.
  DIIS enabled.
  MOM disabled.
  Fractional occupation disabled.
  Guess Type is SAD.
  Energy threshold   = 1.00e-10
  Density threshold  = 1.00e-10
  Integral threshold = 0.00e+00

  ==> Primary Basis <==

  Basis Set: AUG-CC-PVTZ
    Blend: AUG-CC-PVTZ
    Number of shells: 267
    Number of basis function: 805
    Number of Cartesian functions: 935
    Spherical Harmonics?: true
    Max angular momentum: 3

   => Loading Basis Set <=

    Name: (AUG-CC-PVTZ AUX)
    Role: JKFIT
    Keyword: DF_BASIS_SCF
    atoms 1     entry O          line   286 file /home/xy3866/psi4conda/share/psi4/basis/aug-cc-pvtz-jkfit.gbs 
    atoms 2     entry N          line   224 file /home/xy3866/psi4conda/share/psi4/basis/aug-cc-pvtz-jkfit.gbs 
    atoms 3-12  entry C          line   162 file /home/xy3866/psi4conda/share/psi4/basis/aug-cc-pvtz-jkfit.gbs 
    atoms 13-23 entry H          line    70 file /home/xy3866/psi4conda/share/psi4/basis/aug-cc-pvtz-jkfit.gbs 

  ==> Pre-Iterations <==

   -------------------------------------------------------
    Irrep   Nso     Nmo     Nalpha   Nbeta   Ndocc  Nsocc
   -------------------------------------------------------
     A        805     805       0       0       0       0
   -------------------------------------------------------
    Total     805     805      43      43      43       0
   -------------------------------------------------------

  ==> Integral Setup <==

  DFHelper Memory: AOs need 8.206 GiB; user supplied 22.352 GiB. Using in-core AOs.

  ==> MemDFJK: Density-Fitted J/K Matrices <==

    J tasked:                   Yes
    K tasked:                   Yes
    wK tasked:                   No
    OpenMP threads:               8
    Memory [MiB]:             22888
    Algorithm:                 Disk
    Schwarz Cutoff:           1E-12
    Mask sparsity (%):       5.3708
    Fitting Condition:        1E-10

   => Auxiliary Basis Set <=

  Basis Set: (AUG-CC-PVTZ AUX)
    Blend: AUG-CC-PVTZ-JKFIT
    Number of shells: 514
    Number of basis function: 1754
    Number of Cartesian functions: 2177
    Spherical Harmonics?: true
    Max angular momentum: 4

  Minimum eigenvalue in the overlap matrix is 4.6318910213E-07.
  Using Symmetric Orthogonalization.

  SCF Guess: Superposition of Atomic Densities via on-the-fly atomic UHF.

  ==> Iterations <==

                           Total Energy        Delta E     RMS |[F,P]|

   @DF-RHF iter SAD:  -514.38173680977604   -5.14382e+02   0.00000e+00 
   @DF-RHF iter   1:  -514.22220420492590    1.59533e-01   9.84834e-04 DIIS
   @DF-RHF iter   2:  -514.50549900317844   -2.83295e-01   5.17497e-04 DIIS
   @DF-RHF iter   3:  -514.57699792587516   -7.14989e-02   1.03853e-04 DIIS
   @DF-RHF iter   4:  -514.58155839072981   -4.56046e-03   4.38503e-05 DIIS
   @DF-RHF iter   5:  -514.58220399100856   -6.45600e-04   9.99231e-06 DIIS
   @DF-RHF iter   6:  -514.58226879736060   -6.48064e-05   4.63407e-06 DIIS
   @DF-RHF iter   7:  -514.58228243172903   -1.36344e-05   1.87283e-06 DIIS
   @DF-RHF iter   8:  -514.58228591345028   -3.48172e-06   8.69418e-07 DIIS
   @DF-RHF iter   9:  -514.58228662097122   -7.07521e-07   3.36706e-07 DIIS
   @DF-RHF iter  10:  -514.58228674250665   -1.21535e-07   1.09147e-07 DIIS
   @DF-RHF iter  11:  -514.58228675744954   -1.49429e-08   4.59541e-08 DIIS
   @DF-RHF iter  12:  -514.58228676019314   -2.74360e-09   2.39301e-08 DIIS
   @DF-RHF iter  13:  -514.58228676103954   -8.46399e-10   1.07653e-08 DIIS
   @DF-RHF iter  14:  -514.58228676125759   -2.18051e-10   4.68410e-09 DIIS
   @DF-RHF iter  15:  -514.58228676128329   -2.56932e-11   1.91751e-09 DIIS
   @DF-RHF iter  16:  -514.58228676128738   -4.09273e-12   6.85497e-10 DIIS
   @DF-RHF iter  17:  -514.58228676128874   -1.36424e-12   2.30691e-10 DIIS
   @DF-RHF iter  18:  -514.58228676129170   -2.95586e-12   9.74337e-11 DIIS
  Energy and wave function converged.


  ==> Post-Iterations <==

    Orbital Energies [Eh]
    ---------------------

    Doubly Occupied:                                                      

       1A    -20.513623     2A    -15.582844     3A    -11.348619  
       4A    -11.276623     5A    -11.265071     6A    -11.250179  
       7A    -11.248133     8A    -11.247692     9A    -11.245271  
      10A    -11.240136    11A    -11.240017    12A    -11.237420  
      13A     -1.367968    14A     -1.235771    15A     -1.159636  
      16A     -1.092976    17A     -1.037726    18A     -1.014720  
      19A     -0.941564    20A     -0.880099    21A     -0.844875  
      22A     -0.797740    23A     -0.771535    24A     -0.695436  
      25A     -0.687879    26A     -0.674748    27A     -0.654773  
      28A     -0.626617    29A     -0.614512    30A     -0.598855  
      31A     -0.588811    32A     -0.574392    33A     -0.561026  
      34A     -0.538338    35A     -0.521068    36A     -0.506547  
      37A     -0.497676    38A     -0.486190    39A     -0.481228  
      40A     -0.418721    41A     -0.389635    42A     -0.345005  
      43A     -0.326157  

    Virtual:                                                              

      44A      0.023303    45A      0.028852    46A      0.031193  
      47A      0.037377    48A      0.043188    49A      0.045526  
      50A      0.054796    51A      0.055675    52A      0.061968  
      53A      0.064691    54A      0.068846    55A      0.086306  
      56A      0.092533    57A      0.094710    58A      0.099313  
      59A      0.104253    60A      0.106164    61A      0.110837  
      62A      0.112093    63A      0.114742    64A      0.117525  
      65A      0.119031    66A      0.125111    67A      0.126167  
      68A      0.129177    69A      0.134009    70A      0.140508  
      71A      0.141203    72A      0.143656    73A      0.147527  
      74A      0.148637    75A      0.156822    76A      0.159836  
      77A      0.162949    78A      0.164088    79A      0.171535  
      80A      0.173637    81A      0.175281    82A      0.178238  
      83A      0.188299    84A      0.190037    85A      0.202687  
      86A      0.208112    87A      0.213243    88A      0.215069  
      89A      0.225940    90A      0.229257    91A      0.230598  
      92A      0.233885    93A      0.240351    94A      0.245899  
      95A      0.251515    96A      0.257241    97A      0.263474  
      98A      0.270522    99A      0.273364   100A      0.278336  
     101A      0.282623   102A      0.290387   103A      0.294018  
     104A      0.296404   105A      0.296894   106A      0.299888  
     107A      0.303628   108A      0.313089   109A      0.315775  
     110A      0.318135   111A      0.321206   112A      0.323232  
     113A      0.325376   114A      0.331542   115A      0.334049  
     116A      0.337583   117A      0.343018   118A      0.346416  
     119A      0.351933   120A      0.354699   121A      0.358063  
     122A      0.363995   123A      0.369635   124A      0.372185  
     125A      0.384019   126A      0.384844   127A      0.390666  
     128A      0.397076   129A      0.403405   130A      0.404733  
     131A      0.408395   132A      0.420900   133A      0.428532  
     134A      0.429964   135A      0.430809   136A      0.433109  
     137A      0.434804   138A      0.438395   139A      0.443227  
     140A      0.447220   141A      0.451345   142A      0.455248  
     143A      0.461460   144A      0.463420   145A      0.465182  
     146A      0.468306   147A      0.471441   148A      0.477633  
     149A      0.480780   150A      0.484704   151A      0.487969  
     152A      0.492560   153A      0.497435   154A      0.497687  
     155A      0.504041   156A      0.510557   157A      0.516212  
     158A      0.519211   159A      0.521401   160A      0.523660  
     161A      0.527948   162A      0.530240   163A      0.535207  
     164A      0.535573   165A      0.540151   166A      0.546394  
     167A      0.547168   168A      0.553858   169A      0.557146  
     170A      0.559566   171A      0.573672   172A      0.574549  
     173A      0.581308   174A      0.585201   175A      0.587710  
     176A      0.592707   177A      0.602558   178A      0.606639  
     179A      0.607017   180A      0.619277   181A      0.622749  
     182A      0.624567   183A      0.631591   184A      0.634218  
     185A      0.647845   186A      0.649592   187A      0.652935  
     188A      0.657536   189A      0.663738   190A      0.666039  
     191A      0.671760   192A      0.675489   193A      0.684645  
     194A      0.689228   195A      0.694363   196A      0.705220  
     197A      0.709121   198A      0.712519   199A      0.713266  
     200A      0.718043   201A      0.724629   202A      0.735525  
     203A      0.738660   204A      0.741815   205A      0.748546  
     206A      0.758436   207A      0.764643   208A      0.767079  
     209A      0.788205   210A      0.789905   211A      0.794978  
     212A      0.797927   213A      0.804364   214A      0.807701  
     215A      0.811808   216A      0.820669   217A      0.825204  
     218A      0.832847   219A      0.838487   220A      0.851977  
     221A      0.854925   222A      0.859951   223A      0.866798  
     224A      0.868407   225A      0.876957   226A      0.880595  
     227A      0.883605   228A      0.890231   229A      0.892620  
     230A      0.903224   231A      0.905440   232A      0.913740  
     233A      0.920406   234A      0.923879   235A      0.927556  
     236A      0.930982   237A      0.937559   238A      0.942103  
     239A      0.944993   240A      0.950451   241A      0.952455  
     242A      0.957910   243A      0.962754   244A      0.964864  
     245A      0.972996   246A      0.978114   247A      0.983752  
     248A      0.990950   249A      0.997502   250A      0.999013  
     251A      1.007788   252A      1.011740   253A      1.017741  
     254A      1.023193   255A      1.026875   256A      1.032887  
     257A      1.038289   258A      1.044978   259A      1.052036  
     260A      1.056808   261A      1.061901   262A      1.067412  
     263A      1.072118   264A      1.074305   265A      1.075209  
     266A      1.082802   267A      1.083321   268A      1.092191  
     269A      1.096550   270A      1.099597   271A      1.104751  
     272A      1.109001   273A      1.114552   274A      1.127316  
     275A      1.128705   276A      1.131148   277A      1.131529  
     278A      1.140708   279A      1.147697   280A      1.152364  
     281A      1.153186   282A      1.157537   283A      1.163135  
     284A      1.170204   285A      1.174123   286A      1.183450  
     287A      1.187377   288A      1.193751   289A      1.198233  
     290A      1.203071   291A      1.210767   292A      1.211049  
     293A      1.213580   294A      1.224662   295A      1.225908  
     296A      1.231588   297A      1.240100   298A      1.247662  
     299A      1.250097   300A      1.255942   301A      1.267020  
     302A      1.269872   303A      1.273709   304A      1.275777  
     305A      1.283773   306A      1.289113   307A      1.297202  
     308A      1.305935   309A      1.307556   310A      1.315415  
     311A      1.320944   312A      1.326535   313A      1.340428  
     314A      1.341445   315A      1.347509   316A      1.356921  
     317A      1.361512   318A      1.366820   319A      1.381161  
     320A      1.387611   321A      1.393910   322A      1.403167  
     323A      1.410852   324A      1.421921   325A      1.423352  
     326A      1.426652   327A      1.438988   328A      1.448376  
     329A      1.455137   330A      1.461458   331A      1.463837  
     332A      1.473695   333A      1.482905   334A      1.490134  
     335A      1.496350   336A      1.499172   337A      1.503990  
     338A      1.507118   339A      1.519611   340A      1.534099  
     341A      1.536953   342A      1.549973   343A      1.556548  
     344A      1.564176   345A      1.567702   346A      1.575671  
     347A      1.578990   348A      1.586139   349A      1.590565  
     350A      1.600548   351A      1.604080   352A      1.608772  
     353A      1.614231   354A      1.622880   355A      1.625427  
     356A      1.631482   357A      1.649806   358A      1.651871  
     359A      1.655376   360A      1.663140   361A      1.668006  
     362A      1.672073   363A      1.687646   364A      1.699986  
     365A      1.703898   366A      1.713119   367A      1.717167  
     368A      1.730534   369A      1.733058   370A      1.738375  
     371A      1.742480   372A      1.753605   373A      1.756247  
     374A      1.760708   375A      1.767466   376A      1.778842  
     377A      1.791753   378A      1.794416   379A      1.805197  
     380A      1.811616   381A      1.815596   382A      1.821420  
     383A      1.830225   384A      1.837199   385A      1.839560  
     386A      1.851801   387A      1.862133   388A      1.870777  
     389A      1.873689   390A      1.878177   391A      1.882585  
     392A      1.887122   393A      1.897404   394A      1.908780  
     395A      1.911975   396A      1.916333   397A      1.925047  
     398A      1.938953   399A      1.941867   400A      1.950122  
     401A      1.959511   402A      1.965045   403A      1.978006  
     404A      1.985593   405A      2.000723   406A      2.004390  
     407A      2.009409   408A      2.020061   409A      2.027336  
     410A      2.033072   411A      2.043377   412A      2.044702  
     413A      2.051282   414A      2.063895   415A      2.068323  
     416A      2.073481   417A      2.079728   418A      2.091338  
     419A      2.100788   420A      2.107439   421A      2.116755  
     422A      2.129253   423A      2.133756   424A      2.136341  
     425A      2.145813   426A      2.156013   427A      2.160611  
     428A      2.169912   429A      2.178562   430A      2.191770  
     431A      2.202673   432A      2.208904   433A      2.211979  
     434A      2.220398   435A      2.234247   436A      2.239110  
     437A      2.247346   438A      2.262137   439A      2.272142  
     440A      2.283314   441A      2.295722   442A      2.298216  
     443A      2.310501   444A      2.319963   445A      2.332823  
     446A      2.342255   447A      2.349112   448A      2.351862  
     449A      2.362986   450A      2.379095   451A      2.381700  
     452A      2.395764   453A      2.403536   454A      2.418009  
     455A      2.427781   456A      2.434469   457A      2.436982  
     458A      2.443047   459A      2.453461   460A      2.471255  
     461A      2.484610   462A      2.491547   463A      2.502019  
     464A      2.513852   465A      2.521120   466A      2.536529  
     467A      2.541818   468A      2.562227   469A      2.567083  
     470A      2.574205   471A      2.585444   472A      2.607097  
     473A      2.610652   474A      2.634461   475A      2.640359  
     476A      2.652813   477A      2.657229   478A      2.667652  
     479A      2.689252   480A      2.692271   481A      2.708125  
     482A      2.718254   483A      2.736115   484A      2.742048  
     485A      2.749502   486A      2.778394   487A      2.798224  
     488A      2.804022   489A      2.818437   490A      2.822497  
     491A      2.844247   492A      2.848175   493A      2.868197  
     494A      2.884668   495A      2.903556   496A      2.921049  
     497A      2.944770   498A      2.954737   499A      2.985677  
     500A      2.999328   501A      3.042243   502A      3.070227  
     503A      3.091496   504A      3.124320   505A      3.138379  
     506A      3.148827   507A      3.184319   508A      3.193679  
     509A      3.197259   510A      3.219771   511A      3.259793  
     512A      3.278722   513A      3.291346   514A      3.294793  
     515A      3.316477   516A      3.334220   517A      3.347723  
     518A      3.379119   519A      3.397782   520A      3.401754  
     521A      3.409643   522A      3.425407   523A      3.443719  
     524A      3.465220   525A      3.480991   526A      3.489745  
     527A      3.493976   528A      3.498932   529A      3.516036  
     530A      3.517273   531A      3.522715   532A      3.527386  
     533A      3.546141   534A      3.555846   535A      3.560110  
     536A      3.579946   537A      3.589738   538A      3.593531  
     539A      3.597730   540A      3.609545   541A      3.615232  
     542A      3.625602   543A      3.636666   544A      3.644025  
     545A      3.660000   546A      3.678027   547A      3.685967  
     548A      3.693985   549A      3.701364   550A      3.711193  
     551A      3.722655   552A      3.733162   553A      3.736118  
     554A      3.748572   555A      3.762542   556A      3.764259  
     557A      3.784351   558A      3.789083   559A      3.794458  
     560A      3.801868   561A      3.810508   562A      3.821048  
     563A      3.833445   564A      3.843316   565A      3.853994  
     566A      3.862401   567A      3.873739   568A      3.889174  
     569A      3.891487   570A      3.899346   571A      3.905962  
     572A      3.909443   573A      3.925028   574A      3.928654  
     575A      3.936274   576A      3.946181   577A      3.952411  
     578A      3.966014   579A      3.972060   580A      3.984961  
     581A      3.989873   582A      3.996146   583A      4.011871  
     584A      4.018240   585A      4.031299   586A      4.034957  
     587A      4.041706   588A      4.044573   589A      4.062879  
     590A      4.071337   591A      4.077627   592A      4.079119  
     593A      4.088795   594A      4.102489   595A      4.115671  
     596A      4.119985   597A      4.131249   598A      4.142806  
     599A      4.156088   600A      4.166629   601A      4.174934  
     602A      4.181317   603A      4.190941   604A      4.204942  
     605A      4.213770   606A      4.219427   607A      4.226887  
     608A      4.237005   609A      4.244927   610A      4.257410  
     611A      4.269762   612A      4.279663   613A      4.288943  
     614A      4.296751   615A      4.306530   616A      4.311887  
     617A      4.323232   618A      4.347007   619A      4.349053  
     620A      4.359474   621A      4.361980   622A      4.375485  
     623A      4.381471   624A      4.389476   625A      4.400823  
     626A      4.405143   627A      4.409892   628A      4.418816  
     629A      4.425668   630A      4.446808   631A      4.447971  
     632A      4.456851   633A      4.462743   634A      4.479483  
     635A      4.491219   636A      4.497740   637A      4.523514  
     638A      4.536002   639A      4.537739   640A      4.551696  
     641A      4.556916   642A      4.565101   643A      4.579387  
     644A      4.599961   645A      4.611472   646A      4.618352  
     647A      4.627105   648A      4.640409   649A      4.653795  
     650A      4.660335   651A      4.682765   652A      4.692580  
     653A      4.694437   654A      4.710675   655A      4.725885  
     656A      4.734818   657A      4.742177   658A      4.755318  
     659A      4.761875   660A      4.769791   661A      4.773904  
     662A      4.793132   663A      4.807165   664A      4.821119  
     665A      4.825905   666A      4.839119   667A      4.855003  
     668A      4.867912   669A      4.880547   670A      4.894769  
     671A      4.919479   672A      4.923170   673A      4.943732  
     674A      4.947775   675A      4.953049   676A      4.978397  
     677A      4.983312   678A      5.016460   679A      5.025734  
     680A      5.030991   681A      5.061305   682A      5.068819  
     683A      5.080309   684A      5.083178   685A      5.086855  
     686A      5.094788   687A      5.108837   688A      5.123046  
     689A      5.132329   690A      5.136178   691A      5.150231  
     692A      5.154659   693A      5.164826   694A      5.177753  
     695A      5.183765   696A      5.189601   697A      5.212899  
     698A      5.236349   699A      5.239982   700A      5.251607  
     701A      5.263975   702A      5.277125   703A      5.283610  
     704A      5.303464   705A      5.318304   706A      5.322611  
     707A      5.343899   708A      5.349535   709A      5.373689  
     710A      5.390889   711A      5.398862   712A      5.403032  
     713A      5.410091   714A      5.445710   715A      5.456239  
     716A      5.465984   717A      5.487004   718A      5.491708  
     719A      5.512485   720A      5.515719   721A      5.550689  
     722A      5.555175   723A      5.586735   724A      5.591192  
     725A      5.630338   726A      5.630790   727A      5.655989  
     728A      5.676233   729A      5.691723   730A      5.706360  
     731A      5.710494   732A      5.721819   733A      5.731947  
     734A      5.748773   735A      5.781924   736A      5.800101  
     737A      5.804530   738A      5.833176   739A      5.858399  
     740A      5.870285   741A      5.892456   742A      5.937093  
     743A      5.979016   744A      6.005186   745A      6.028029  
     746A      6.041953   747A      6.102865   748A      6.122740  
     749A      6.165559   750A      6.167193   751A      6.184398  
     752A      6.220451   753A      6.225641   754A      6.253145  
     755A      6.278889   756A      6.285595   757A      6.317369  
     758A      6.324085   759A      6.359136   760A      6.404526  
     761A      6.438360   762A      6.466985   763A      6.496621  
     764A      6.535856   765A      6.595682   766A      6.632972  
     767A      6.636766   768A      6.679682   769A      6.700301  
     770A      6.735942   771A      6.779022   772A      6.810382  
     773A      6.825173   774A      6.859812   775A      6.913965  
     776A      6.920619   777A      6.954271   778A      7.022411  
     779A      7.037026   780A      7.056545   781A      7.089476  
     782A      7.096746   783A      7.207540   784A      7.250707  
     785A      7.312431   786A      7.475002   787A      7.495208  
     788A      7.643781   789A      7.721998   790A      7.820175  
     791A      7.888362   792A      7.994692   793A      8.065675  
     794A     15.810733   795A     16.258288   796A     16.917315  
     797A     17.419383   798A     18.373860   799A     18.763070  
     800A     19.194729   801A     19.383002   802A     19.833403  
     803A     20.021672   804A     21.322998   805A     21.426962  

    Final Occupation by Irrep:
              A 
    DOCC [    43 ]

  @DF-RHF Final Energy:  -514.58228676129170

   => Energetics <=

    Nuclear Repulsion Energy =            685.3358975596448772
    One-Electron Energy =               -2058.5806697214284213
    Two-Electron Energy =                 858.6624854004919598
    Total Energy =                       -514.5822867612916980

Computation Completed

*** tstop() called on node54.bme.utexas.edu at Sun Feb  7 22:40:02 2021
Module time:
	user time   =     591.15 seconds =       9.85 minutes
	system time =      83.46 seconds =       1.39 minutes
	total time  =        144 seconds =       2.40 minutes
Total time:
	user time   =     591.15 seconds =       9.85 minutes
	system time =      83.46 seconds =       1.39 minutes
	total time  =        144 seconds =       2.40 minutes
   => Loading Basis Set <=

    Name: (AUG-CC-PVTZ AUX)
    Role: RIFIT
    Keyword: DF_BASIS_MP2
    atoms 1     entry O          line   264 file /home/xy3866/psi4conda/share/psi4/basis/aug-cc-pvtz-ri.gbs 
    atoms 2     entry N          line   206 file /home/xy3866/psi4conda/share/psi4/basis/aug-cc-pvtz-ri.gbs 
    atoms 3-12  entry C          line   148 file /home/xy3866/psi4conda/share/psi4/basis/aug-cc-pvtz-ri.gbs 
    atoms 13-23 entry H          line    30 file /home/xy3866/psi4conda/share/psi4/basis/aug-cc-pvtz-ri.gbs 


*** tstart() called on node54.bme.utexas.edu
*** at Sun Feb  7 22:40:02 2021


  //>>>>>>>>>>>>>>>>>>>>>>>>>>>>>>>>>>>//
  //               DFMP2               //
  //<<<<<<<<<<<<<<<<<<<<<<<<<<<<<<<<<<<//

	 --------------------------------------------------------
	                          DF-MP2                         
	      2nd-Order Density-Fitted Moller-Plesset Theory     
	              RMP2 Wavefunction,   8 Threads             
	                                                         
	        Rob Parrish, Justin Turney, Andy Simmonett,      
	           Ed Hohenstein, and C. David Sherrill          
	 --------------------------------------------------------

   => Auxiliary Basis Set <=

  Basis Set: (AUG-CC-PVTZ AUX)
    Blend: AUG-CC-PVTZ-RI
    Number of shells: 490
    Number of basis function: 1778
    Number of Cartesian functions: 2237
    Spherical Harmonics?: true
    Max angular momentum: 4

	 --------------------------------------------------------
	                 NBF =   805, NAUX =  1778
	 --------------------------------------------------------
	   CLASS    FOCC     OCC    AOCC    AVIR     VIR    FVIR
	   PAIRS       0      43      43     762     762       0
	 --------------------------------------------------------

  DFHelper Memory: AOs need 8.206 GiB; user supplied 22.352 GiB. Using in-core AOs.


         ------------------------------------------------------------
                                     CPHF                           
                                  Rob Parrish                       
         ------------------------------------------------------------

  ==> Geometry <==

    Molecular point group: c1
    Full point group: C1

    Geometry (in Angstrom), charge = 0, multiplicity = 1:

       Center              X                  Y                   Z               Mass       
    ------------   -----------------  -----------------  -----------------  -----------------
         O            0.949514466094     2.465908804300    -0.644958940567    15.994914619570
         N            2.054148466094     0.648895804300     0.189675059433    14.003074004430
         C            0.764196466094    -1.604043195700    -0.858595940567    12.000000000000
         C            1.823535466094    -1.820135195700     0.231108059433    12.000000000000
         C           -0.345324233906    -0.840082395700    -0.388378940567    12.000000000000
         C            2.034463466094    -0.538730195700     1.037601059433    12.000000000000
         C           -0.357318533906     0.536050804300    -0.079653940567    12.000000000000
         C            0.919689466094     1.310388804300    -0.211357940567    12.000000000000
         C           -1.683598533906    -1.472134195700    -0.225167940567    12.000000000000
         C           -1.495825533906     1.254610804300     0.303309059433    12.000000000000
         C           -2.813447533906    -0.763350195700     0.186205059433    12.000000000000
         C           -2.720378533906     0.605763804300     0.447386059433    12.000000000000
         H            0.446113466094    -2.570644195700    -1.265268940567     1.007825032230
         H            1.224360466094    -1.050088195700    -1.683909940567     1.007825032230
         H            1.514305466094    -2.619459195700     0.916070059433     1.007825032230
         H            2.762136466094    -2.136820195700    -0.238714940567     1.007825032230
         H            1.236798466094    -0.437299195700     1.781415059433     1.007825032230
         H            2.980752466094    -0.574927195700     1.585202059433     1.007825032230
         H            2.887083466094     1.228408804300     0.167607059433     1.007825032230
         H           -1.767780533906    -2.533244195700    -0.455441940567     1.007825032230
         H           -1.400314533906     2.323123804300     0.478923059433     1.007825032230
         H           -3.766383533906    -1.276826195700     0.292007059433     1.007825032230
         H           -3.600463533906     1.165546804300     0.754435059433     1.007825032230

  Nuclear repulsion =  685.335897559644877
  Reference energy  = -514.582286761291698

  ==> Basis Set <==

  Basis Set: AUG-CC-PVTZ
    Blend: AUG-CC-PVTZ
    Number of shells: 267
    Number of basis function: 805
    Number of Cartesian functions: 935
    Spherical Harmonics?: true
    Max angular momentum: 3

  ==> CGRSolver (by Rob Parrish) <==

   Number of roots    =         1
   Preconditioning    =    JACOBI
   Convergence cutoff =     1E-06
   Maximum iterations =       100

  ==> CPHFRHamiltonian (by Rob Parrish) <== 

  ==> MemDFJK: Density-Fitted J/K Matrices <==

    J tasked:                   Yes
    K tasked:                   Yes
    wK tasked:                   No
    OpenMP threads:               8
    Memory [MiB]:             22888
    Algorithm:                 Disk
    Schwarz Cutoff:           1E-12
    Mask sparsity (%):       5.3708
    Fitting Condition:        1E-10

   => Auxiliary Basis Set <=

  Basis Set: (AUG-CC-PVTZ AUX)
    Blend: AUG-CC-PVTZ-JKFIT
    Number of shells: 514
    Number of basis function: 1754
    Number of Cartesian functions: 2177
    Spherical Harmonics?: true
    Max angular momentum: 4

  ==> CPHF Iterations <==

  => Iterations <=

             Iter  Converged  Remaining    Residual
  CGR           1          0          1   1.182E-01
  CGR           2          0          1   3.630E-02
  CGR           3          0          1   1.703E-02
  CGR           4          0          1   7.710E-03
  CGR           5          0          1   3.800E-03
  CGR           6          0          1   1.756E-03
  CGR           7          0          1   5.685E-04
  CGR           8          0          1   2.002E-04
  CGR           9          0          1   6.717E-05
  CGR          10          0          1   2.537E-05
  CGR          11          0          1   1.248E-05
  CGR          12          0          1   5.450E-06
  CGR          13          0          1   2.324E-06
  CGR          14          1          0   7.355E-07

    CGRSolver converged.

	-----------------------------------------------------------
	 ==================> DF-MP2 Energies <==================== 
	-----------------------------------------------------------
	 Reference Energy          =    -514.5822867612916980 [Eh]
	 Singles Energy            =      -0.0000000000000000 [Eh]
	 Same-Spin Energy          =      -0.5600100587543568 [Eh]
	 Opposite-Spin Energy      =      -1.7465487144236962 [Eh]
	 Correlation Energy        =      -2.3065587731780530 [Eh]
	 Total Energy              =    -516.8888455344697377 [Eh]
	-----------------------------------------------------------
	 ================> DF-SCS-MP2 Energies <================== 
	-----------------------------------------------------------
	 SCS Same-Spin Scale       =       0.3333333333333333 [-]
	 SCS Opposite-Spin Scale   =       1.2000000000000000 [-]
	 SCS Same-Spin Energy      =      -0.1866700195847856 [Eh]
	 SCS Opposite-Spin Energy  =      -2.0958584573084353 [Eh]
	 SCS Correlation Energy    =      -2.2825284768932210 [Eh]
	 SCS Total Energy          =    -516.8648152381849741 [Eh]
	-----------------------------------------------------------



Properties will be evaluated at  -0.000000,  -0.000000,   0.000000 [a0]

Properties computed using the MP2 density matrix

  Nuclear Dipole Moment: [e a0]
     X:     2.3578      Y:    -7.9419      Z:     2.1828

  Electronic Dipole Moment: [e a0]
     X:    -2.0818      Y:     6.4943      Z:    -1.4971

  Dipole Moment: [e a0]
     X:     0.2761      Y:    -1.4476      Z:     0.6857     Total:     1.6254

  Dipole Moment: [D]
     X:     0.7017      Y:    -3.6794      Z:     1.7429     Total:     4.1313


*** tstop() called on node54.bme.utexas.edu at Sun Feb  7 22:46:29 2021
Module time:
	user time   =    2065.19 seconds =      34.42 minutes
	system time =     188.57 seconds =       3.14 minutes
	total time  =        387 seconds =       6.45 minutes
Total time:
	user time   =    2656.53 seconds =      44.28 minutes
	system time =     272.03 seconds =       4.53 minutes
	total time  =        531 seconds =       8.85 minutes

    Psi4 stopped on: Sunday, 07 February 2021 10:46PM
    Psi4 wall time for execution: 0:08:51.94

*** Psi4 exiting successfully. Buy a developer a beer!
