
    -----------------------------------------------------------------------
          Psi4: An Open-Source Ab Initio Electronic Structure Package
                               Psi4 1.3.2 release

                         Git: Rev {HEAD} ecbda83 


    R. M. Parrish, L. A. Burns, D. G. A. Smith, A. C. Simmonett,
    A. E. DePrince III, E. G. Hohenstein, U. Bozkaya, A. Yu. Sokolov,
    R. Di Remigio, R. M. Richard, J. F. Gonthier, A. M. James,
    H. R. McAlexander, A. Kumar, M. Saitow, X. Wang, B. P. Pritchard,
    P. Verma, H. F. Schaefer III, K. Patkowski, R. A. King, E. F. Valeev,
    F. A. Evangelista, J. M. Turney, T. D. Crawford, and C. D. Sherrill,
    J. Chem. Theory Comput. 13(7) pp 3185--3197 (2017).
    (doi: 10.1021/acs.jctc.7b00174)


                         Additional Contributions by
    P. Kraus, H. Kruse, M. H. Lechner, M. C. Schieber, R. A. Shaw,
    A. Alenaizan, R. Galvelis, Z. L. Glick, S. Lehtola, and J. P. Misiewicz

    -----------------------------------------------------------------------


    Psi4 started on: Sunday, 07 February 2021 11:22AM

    Process ID: 1772472
    Host:       node54.bme.utexas.edu
    PSIDATADIR: /home/xy3866/psi4conda/share/psi4
    Memory:     500.0 MiB
    Threads:    8
    
  ==> Input File <==

--------------------------------------------------------------------------
#psi4
#
memory 32 gb

molecule  {
0 1
  O        0.9417500     2.5148810    -0.6596880
  N        2.0463840     0.6978680     0.1749460
  C        0.7564320    -1.5550710    -0.8733250
  C        1.8157710    -1.7711630     0.2163790
  C       -0.4497480    -0.7926040    -0.3845090
  C        2.0266990    -0.4897580     1.0228720
  C       -0.3650830     0.5850230    -0.0943830
  C        0.9119250     1.3593610    -0.2260870
  C       -1.6913630    -1.4231620    -0.2398970
  C       -1.5035900     1.3035830     0.2885800
  C       -2.8212120    -0.7143780     0.1714760
  C       -2.7281430     0.6547360     0.4326570
  H        0.4383490    -2.5216720    -1.2799980
  H        1.2586072    -0.9505420    -1.7739870
  H        1.5065410    -2.5704870     0.9013410
  H        2.7543720    -2.0878480    -0.2534440
  H        1.2290340    -0.3883270     1.7666860
  H        2.9729880    -0.5259550     1.5704730
  H        2.8793190     1.2773810     0.1528780
  H       -1.7755450    -2.4842720    -0.4701710
  H       -1.4080790     2.3720960     0.4641940
  H       -3.7741480    -1.2278540     0.2772780
  H       -3.6082280     1.2145190     0.7397060
units angstrom
no_reorient  #important for SAPT in psi4, default
symmetry c1  #important for SAPT in psi4, default
}

set PROPERTIES_ORIGIN ["COM"]
properties('MP2/aug-cc-pvtz', properties = ['dipole'])
--------------------------------------------------------------------------

  Memory set to  29.802 GiB by Python driver.
    SCF Algorithm Type (re)set to DF.

*** tstart() called on node54.bme.utexas.edu
*** at Sun Feb  7 11:22:58 2021

   => Loading Basis Set <=

    Name: AUG-CC-PVTZ
    Role: ORBITAL
    Keyword: BASIS
    atoms 1     entry O          line   327 file /home/xy3866/psi4conda/share/psi4/basis/aug-cc-pvtz.gbs 
    atoms 2     entry N          line   281 file /home/xy3866/psi4conda/share/psi4/basis/aug-cc-pvtz.gbs 
    atoms 3-12  entry C          line   235 file /home/xy3866/psi4conda/share/psi4/basis/aug-cc-pvtz.gbs 
    atoms 13-23 entry H          line    36 file /home/xy3866/psi4conda/share/psi4/basis/aug-cc-pvtz.gbs 


         ---------------------------------------------------------
                                   SCF
               by Justin Turney, Rob Parrish, Andy Simmonett
                          and Daniel G. A. Smith
                              RHF Reference
                        8 Threads,  30517 MiB Core
         ---------------------------------------------------------

  ==> Geometry <==

    Molecular point group: c1
    Full point group: C1

    Geometry (in Angstrom), charge = 0, multiplicity = 1:

       Center              X                  Y                   Z               Mass       
    ------------   -----------------  -----------------  -----------------  -----------------
         O            0.956452282495     2.465703668284    -0.645873062025    15.994914619570
         N            2.061086282495     0.648690668284     0.188760937975    14.003074004430
         C            0.771134282495    -1.604248331716    -0.859510062025    12.000000000000
         C            1.830473282495    -1.820340331716     0.230193937975    12.000000000000
         C           -0.435045717505    -0.841781331716    -0.370694062025    12.000000000000
         C            2.041401282495    -0.538935331716     1.036686937975    12.000000000000
         C           -0.350380717505     0.535845668284    -0.080568062025    12.000000000000
         C            0.926627282495     1.310183668284    -0.212272062025    12.000000000000
         C           -1.676660717505    -1.472339331716    -0.226082062025    12.000000000000
         C           -1.488887717505     1.254405668284     0.302394937975    12.000000000000
         C           -2.806509717505    -0.763555331716     0.185290937975    12.000000000000
         C           -2.713440717505     0.605558668284     0.446471937975    12.000000000000
         H            0.453051282495    -2.570849331716    -1.266183062025     1.007825032230
         H            1.273309482495    -0.999719331716    -1.760172062025     1.007825032230
         H            1.521243282495    -2.619664331716     0.915155937975     1.007825032230
         H            2.769074282495    -2.137025331716    -0.239629062025     1.007825032230
         H            1.243736282495    -0.437504331716     1.780500937975     1.007825032230
         H            2.987690282495    -0.575132331716     1.584287937975     1.007825032230
         H            2.894021282495     1.228203668284     0.166692937975     1.007825032230
         H           -1.760842717505    -2.533449331716    -0.456356062025     1.007825032230
         H           -1.393376717505     2.322918668284     0.478008937975     1.007825032230
         H           -3.759445717505    -1.277031331716     0.291092937975     1.007825032230
         H           -3.593525717505     1.165341668284     0.753520937975     1.007825032230

  Running in c1 symmetry.

  Rotational constants: A =      0.04807  B =      0.03115  C =      0.02122 [cm^-1]
  Rotational constants: A =   1441.21191  B =    933.88683  C =    636.24840 [MHz]
  Nuclear repulsion =  684.664949085314333

  Charge       = 0
  Multiplicity = 1
  Electrons    = 86
  Nalpha       = 43
  Nbeta        = 43

  ==> Algorithm <==

  SCF Algorithm Type is DF.
  DIIS enabled.
  MOM disabled.
  Fractional occupation disabled.
  Guess Type is SAD.
  Energy threshold   = 1.00e-10
  Density threshold  = 1.00e-10
  Integral threshold = 0.00e+00

  ==> Primary Basis <==

  Basis Set: AUG-CC-PVTZ
    Blend: AUG-CC-PVTZ
    Number of shells: 267
    Number of basis function: 805
    Number of Cartesian functions: 935
    Spherical Harmonics?: true
    Max angular momentum: 3

   => Loading Basis Set <=

    Name: (AUG-CC-PVTZ AUX)
    Role: JKFIT
    Keyword: DF_BASIS_SCF
    atoms 1     entry O          line   286 file /home/xy3866/psi4conda/share/psi4/basis/aug-cc-pvtz-jkfit.gbs 
    atoms 2     entry N          line   224 file /home/xy3866/psi4conda/share/psi4/basis/aug-cc-pvtz-jkfit.gbs 
    atoms 3-12  entry C          line   162 file /home/xy3866/psi4conda/share/psi4/basis/aug-cc-pvtz-jkfit.gbs 
    atoms 13-23 entry H          line    70 file /home/xy3866/psi4conda/share/psi4/basis/aug-cc-pvtz-jkfit.gbs 

  ==> Pre-Iterations <==

   -------------------------------------------------------
    Irrep   Nso     Nmo     Nalpha   Nbeta   Ndocc  Nsocc
   -------------------------------------------------------
     A        805     805       0       0       0       0
   -------------------------------------------------------
    Total     805     805      43      43      43       0
   -------------------------------------------------------

  ==> Integral Setup <==

  DFHelper Memory: AOs need 8.204 GiB; user supplied 22.352 GiB. Using in-core AOs.

  ==> MemDFJK: Density-Fitted J/K Matrices <==

    J tasked:                   Yes
    K tasked:                   Yes
    wK tasked:                   No
    OpenMP threads:               8
    Memory [MiB]:             22888
    Algorithm:                 Disk
    Schwarz Cutoff:           1E-12
    Mask sparsity (%):       5.3865
    Fitting Condition:        1E-10

   => Auxiliary Basis Set <=

  Basis Set: (AUG-CC-PVTZ AUX)
    Blend: AUG-CC-PVTZ-JKFIT
    Number of shells: 514
    Number of basis function: 1754
    Number of Cartesian functions: 2177
    Spherical Harmonics?: true
    Max angular momentum: 4

  Minimum eigenvalue in the overlap matrix is 4.4867912851E-07.
  Using Symmetric Orthogonalization.

  SCF Guess: Superposition of Atomic Densities via on-the-fly atomic UHF.

  ==> Iterations <==

                           Total Energy        Delta E     RMS |[F,P]|

   @DF-RHF iter SAD:  -514.32824073694997   -5.14328e+02   0.00000e+00 
   @DF-RHF iter   1:  -514.22906315335706    9.91776e-02   9.85420e-04 DIIS
   @DF-RHF iter   2:  -514.51176440864594   -2.82701e-01   5.21176e-04 DIIS
   @DF-RHF iter   3:  -514.58462294832123   -7.28585e-02   1.03726e-04 DIIS
   @DF-RHF iter   4:  -514.58918497522825   -4.56203e-03   4.38190e-05 DIIS
   @DF-RHF iter   5:  -514.58983177240407   -6.46797e-04   1.00217e-05 DIIS
   @DF-RHF iter   6:  -514.58989652917751   -6.47568e-05   4.71618e-06 DIIS
   @DF-RHF iter   7:  -514.58991045798984   -1.39288e-05   1.87598e-06 DIIS
   @DF-RHF iter   8:  -514.58991405203301   -3.59404e-06   8.73802e-07 DIIS
   @DF-RHF iter   9:  -514.58991475309108   -7.01058e-07   3.25763e-07 DIIS
   @DF-RHF iter  10:  -514.58991486729713   -1.14206e-07   1.06874e-07 DIIS
   @DF-RHF iter  11:  -514.58991488056893   -1.32718e-08   4.25232e-08 DIIS
   @DF-RHF iter  12:  -514.58991488292315   -2.35423e-09   2.08426e-08 DIIS
   @DF-RHF iter  13:  -514.58991488356389   -6.40739e-10   9.64400e-09 DIIS
   @DF-RHF iter  14:  -514.58991488372794   -1.64050e-10   4.03718e-09 DIIS
   @DF-RHF iter  15:  -514.58991488374852   -2.05773e-11   1.70214e-09 DIIS
   @DF-RHF iter  16:  -514.58991488375159   -3.06954e-12   6.09207e-10 DIIS
   @DF-RHF iter  17:  -514.58991488375591   -4.32010e-12   1.85213e-10 DIIS
   @DF-RHF iter  18:  -514.58991488375204    3.86535e-12   7.42932e-11 DIIS
  Energy and wave function converged.


  ==> Post-Iterations <==

    Orbital Energies [Eh]
    ---------------------

    Doubly Occupied:                                                      

       1A    -20.515101     2A    -15.582454     3A    -11.351378  
       4A    -11.275977     5A    -11.259040     6A    -11.250663  
       7A    -11.249114     8A    -11.247423     9A    -11.245733  
      10A    -11.242351    11A    -11.240148    12A    -11.238903  
      13A     -1.368965    14A     -1.234622    15A     -1.164316  
      16A     -1.080411    17A     -1.036979    18A     -1.021047  
      19A     -0.934866    20A     -0.881771    21A     -0.841183  
      22A     -0.795301    23A     -0.775696    24A     -0.696100  
      25A     -0.685827    26A     -0.671136    27A     -0.649307  
      28A     -0.623519    29A     -0.615619    30A     -0.600207  
      31A     -0.587149    32A     -0.572854    33A     -0.557405  
      34A     -0.532959    35A     -0.518177    36A     -0.509841  
      37A     -0.493516    38A     -0.485516    39A     -0.476376  
      40A     -0.423289    41A     -0.389135    42A     -0.344091  
      43A     -0.335849  

    Virtual:                                                              

      44A      0.023521    45A      0.028549    46A      0.031384  
      47A      0.037540    48A      0.043069    49A      0.045623  
      50A      0.055023    51A      0.055720    52A      0.061989  
      53A      0.064861    54A      0.068926    55A      0.083129  
      56A      0.093223    57A      0.096991    58A      0.099108  
      59A      0.104332    60A      0.106372    61A      0.111192  
      62A      0.111702    63A      0.114938    64A      0.118102  
      65A      0.118969    66A      0.125280    67A      0.125401  
      68A      0.129540    69A      0.133847    70A      0.140404  
      71A      0.141144    72A      0.144343    73A      0.148134  
      74A      0.148688    75A      0.158056    76A      0.159769  
      77A      0.163194    78A      0.164253    79A      0.171600  
      80A      0.174091    81A      0.175027    82A      0.178212  
      83A      0.188479    84A      0.188891    85A      0.203760  
      86A      0.207402    87A      0.213263    88A      0.213379  
      89A      0.225932    90A      0.228758    91A      0.230589  
      92A      0.233513    93A      0.240382    94A      0.246105  
      95A      0.250968    96A      0.256660    97A      0.262672  
      98A      0.270146    99A      0.273779   100A      0.276664  
     101A      0.282812   102A      0.289987   103A      0.293794  
     104A      0.296756   105A      0.298478   106A      0.299792  
     107A      0.303626   108A      0.313673   109A      0.314731  
     110A      0.316437   111A      0.321253   112A      0.322655  
     113A      0.327201   114A      0.332963   115A      0.335195  
     116A      0.337458   117A      0.342739   118A      0.347141  
     119A      0.351224   120A      0.354592   121A      0.357964  
     122A      0.362388   123A      0.370182   124A      0.372331  
     125A      0.382702   126A      0.383927   127A      0.390876  
     128A      0.396139   129A      0.402575   130A      0.404171  
     131A      0.409152   132A      0.419035   133A      0.425413  
     134A      0.428596   135A      0.430819   136A      0.432467  
     137A      0.436077   138A      0.438207   139A      0.441248  
     140A      0.447242   141A      0.450722   142A      0.453711  
     143A      0.463138   144A      0.464577   145A      0.466076  
     146A      0.467553   147A      0.470352   148A      0.477717  
     149A      0.480490   150A      0.485580   151A      0.489265  
     152A      0.493014   153A      0.496643   154A      0.498703  
     155A      0.504094   156A      0.509699   157A      0.516148  
     158A      0.518051   159A      0.519691   160A      0.523201  
     161A      0.527542   162A      0.530186   163A      0.535657  
     164A      0.536258   165A      0.539960   166A      0.544138  
     167A      0.548427   168A      0.554693   169A      0.556748  
     170A      0.558439   171A      0.572813   172A      0.573980  
     173A      0.580960   174A      0.582891   175A      0.587027  
     176A      0.592976   177A      0.601968   178A      0.605689  
     179A      0.606715   180A      0.618438   181A      0.620264  
     182A      0.623886   183A      0.627211   184A      0.632744  
     185A      0.644520   186A      0.648077   187A      0.654085  
     188A      0.657490   189A      0.662070   190A      0.664166  
     191A      0.672688   192A      0.675035   193A      0.685471  
     194A      0.687889   195A      0.692778   196A      0.703857  
     197A      0.708703   198A      0.710591   199A      0.712915  
     200A      0.722305   201A      0.723845   202A      0.729070  
     203A      0.736757   204A      0.742744   205A      0.748730  
     206A      0.757260   207A      0.759600   208A      0.769457  
     209A      0.786762   210A      0.787982   211A      0.793108  
     212A      0.801189   213A      0.802942   214A      0.806660  
     215A      0.815985   216A      0.821508   217A      0.822930  
     218A      0.834635   219A      0.839030   220A      0.852012  
     221A      0.856097   222A      0.859172   223A      0.864315  
     224A      0.866861   225A      0.872380   226A      0.877587  
     227A      0.882096   228A      0.888282   229A      0.892462  
     230A      0.901357   231A      0.906508   232A      0.909311  
     233A      0.917574   234A      0.921825   235A      0.927197  
     236A      0.931638   237A      0.939929   238A      0.940756  
     239A      0.941816   240A      0.952044   241A      0.954759  
     242A      0.961106   243A      0.963751   244A      0.966640  
     245A      0.970279   246A      0.980670   247A      0.983390  
     248A      0.989213   249A      0.996154   250A      1.001576  
     251A      1.007108   252A      1.010294   253A      1.015084  
     254A      1.020296   255A      1.027820   256A      1.033693  
     257A      1.036288   258A      1.040316   259A      1.052664  
     260A      1.056445   261A      1.059533   262A      1.067201  
     263A      1.070167   264A      1.070548   265A      1.075411  
     266A      1.079959   267A      1.086290   268A      1.091003  
     269A      1.094412   270A      1.099537   271A      1.104579  
     272A      1.109849   273A      1.116984   274A      1.126414  
     275A      1.128681   276A      1.130502   277A      1.132011  
     278A      1.136610   279A      1.145818   280A      1.148267  
     281A      1.154803   282A      1.157729   283A      1.161389  
     284A      1.171382   285A      1.174550   286A      1.179787  
     287A      1.188958   288A      1.193687   289A      1.196808  
     290A      1.200461   291A      1.205606   292A      1.210192  
     293A      1.212195   294A      1.220936   295A      1.225659  
     296A      1.232365   297A      1.239897   298A      1.248354  
     299A      1.250565   300A      1.254680   301A      1.265883  
     302A      1.270962   303A      1.274078   304A      1.279308  
     305A      1.283554   306A      1.288289   307A      1.299898  
     308A      1.302270   309A      1.308205   310A      1.317273  
     311A      1.320015   312A      1.325417   313A      1.335234  
     314A      1.338690   315A      1.340430   316A      1.353218  
     317A      1.360804   318A      1.366179   319A      1.383544  
     320A      1.385985   321A      1.393491   322A      1.409878  
     323A      1.412853   324A      1.420348   325A      1.421638  
     326A      1.423647   327A      1.440881   328A      1.447375  
     329A      1.453044   330A      1.458271   331A      1.460639  
     332A      1.472926   333A      1.483486   334A      1.488757  
     335A      1.495645   336A      1.500216   337A      1.502171  
     338A      1.504930   339A      1.518782   340A      1.533522  
     341A      1.535047   342A      1.550727   343A      1.558280  
     344A      1.564311   345A      1.566375   346A      1.572578  
     347A      1.576227   348A      1.580751   349A      1.591866  
     350A      1.600117   351A      1.600779   352A      1.607270  
     353A      1.614054   354A      1.618448   355A      1.625266  
     356A      1.629974   357A      1.645586   358A      1.648409  
     359A      1.649332   360A      1.660643   361A      1.665638  
     362A      1.670233   363A      1.689217   364A      1.697145  
     365A      1.702186   366A      1.705676   367A      1.713448  
     368A      1.729002   369A      1.730134   370A      1.737087  
     371A      1.742135   372A      1.749011   373A      1.752194  
     374A      1.762791   375A      1.767204   376A      1.781198  
     377A      1.781599   378A      1.790224   379A      1.802102  
     380A      1.809073   381A      1.816569   382A      1.823715  
     383A      1.827108   384A      1.832687   385A      1.838064  
     386A      1.849060   387A      1.861202   388A      1.868962  
     389A      1.871192   390A      1.879324   391A      1.883235  
     392A      1.886377   393A      1.895310   394A      1.907828  
     395A      1.912480   396A      1.913137   397A      1.925696  
     398A      1.934092   399A      1.940044   400A      1.945559  
     401A      1.951006   402A      1.968230   403A      1.973817  
     404A      1.978257   405A      1.997034   406A      2.001621  
     407A      2.005777   408A      2.021912   409A      2.023068  
     410A      2.028085   411A      2.031180   412A      2.045030  
     413A      2.047909   414A      2.064065   415A      2.065353  
     416A      2.077741   417A      2.083364   418A      2.085663  
     419A      2.098439   420A      2.106224   421A      2.111852  
     422A      2.119878   423A      2.129329   424A      2.141656  
     425A      2.143181   426A      2.153462   427A      2.155316  
     428A      2.170481   429A      2.177006   430A      2.188345  
     431A      2.200153   432A      2.206577   433A      2.210404  
     434A      2.221070   435A      2.231347   436A      2.235944  
     437A      2.243720   438A      2.255492   439A      2.265558  
     440A      2.271627   441A      2.289763   442A      2.302171  
     443A      2.307355   444A      2.312989   445A      2.330393  
     446A      2.338085   447A      2.341509   448A      2.349410  
     449A      2.354292   450A      2.373472   451A      2.383081  
     452A      2.392165   453A      2.401287   454A      2.411341  
     455A      2.420285   456A      2.427864   457A      2.435279  
     458A      2.448429   459A      2.450274   460A      2.462060  
     461A      2.483368   462A      2.489378   463A      2.498191  
     464A      2.516992   465A      2.528301   466A      2.535595  
     467A      2.545108   468A      2.557240   469A      2.568233  
     470A      2.574102   471A      2.586446   472A      2.600462  
     473A      2.610318   474A      2.633157   475A      2.644283  
     476A      2.651128   477A      2.658911   478A      2.670182  
     479A      2.685476   480A      2.693358   481A      2.705012  
     482A      2.722012   483A      2.732888   484A      2.738706  
     485A      2.753772   486A      2.772822   487A      2.788357  
     488A      2.804132   489A      2.812292   490A      2.835454  
     491A      2.838162   492A      2.852730   493A      2.856529  
     494A      2.878558   495A      2.899920   496A      2.917328  
     497A      2.940207   498A      2.950997   499A      2.972667  
     500A      3.004129   501A      3.031205   502A      3.065136  
     503A      3.086287   504A      3.106126   505A      3.128004  
     506A      3.151288   507A      3.181043   508A      3.195578  
     509A      3.207036   510A      3.214501   511A      3.246745  
     512A      3.280462   513A      3.293974   514A      3.301330  
     515A      3.318581   516A      3.327319   517A      3.335072  
     518A      3.378730   519A      3.396074   520A      3.404486  
     521A      3.410023   522A      3.434222   523A      3.439937  
     524A      3.448570   525A      3.477448   526A      3.479952  
     527A      3.482171   528A      3.493275   529A      3.506990  
     530A      3.512745   531A      3.521604   532A      3.528633  
     533A      3.542963   534A      3.550887   535A      3.569252  
     536A      3.578360   537A      3.584934   538A      3.588268  
     539A      3.598871   540A      3.604383   541A      3.612443  
     542A      3.628729   543A      3.640978   544A      3.646019  
     545A      3.653508   546A      3.672456   547A      3.684413  
     548A      3.695134   549A      3.698620   550A      3.707231  
     551A      3.716798   552A      3.735333   553A      3.736432  
     554A      3.741267   555A      3.764336   556A      3.774579  
     557A      3.779180   558A      3.784923   559A      3.793709  
     560A      3.807927   561A      3.820052   562A      3.827638  
     563A      3.836456   564A      3.841234   565A      3.844571  
     566A      3.866333   567A      3.872776   568A      3.884799  
     569A      3.889237   570A      3.901949   571A      3.909846  
     572A      3.918564   573A      3.930463   574A      3.932049  
     575A      3.936080   576A      3.945230   577A      3.949376  
     578A      3.956909   579A      3.965081   580A      3.976634  
     581A      3.983659   582A      3.991142   583A      4.002882  
     584A      4.020846   585A      4.023122   586A      4.033894  
     587A      4.036264   588A      4.051012   589A      4.056416  
     590A      4.065549   591A      4.081738   592A      4.087197  
     593A      4.090263   594A      4.098452   595A      4.114004  
     596A      4.117185   597A      4.125520   598A      4.135977  
     599A      4.148526   600A      4.158621   601A      4.176510  
     602A      4.183687   603A      4.192724   604A      4.202136  
     605A      4.209962   606A      4.212703   607A      4.220663  
     608A      4.234586   609A      4.248949   610A      4.250139  
     611A      4.269207   612A      4.280952   613A      4.290648  
     614A      4.298262   615A      4.302176   616A      4.308241  
     617A      4.323889   618A      4.337712   619A      4.348058  
     620A      4.358941   621A      4.363754   622A      4.368413  
     623A      4.384248   624A      4.387773   625A      4.395294  
     626A      4.404565   627A      4.411892   628A      4.412090  
     629A      4.422208   630A      4.430856   631A      4.439677  
     632A      4.454832   633A      4.458455   634A      4.466153  
     635A      4.482114   636A      4.493157   637A      4.506296  
     638A      4.514008   639A      4.535142   640A      4.549935  
     641A      4.551199   642A      4.564838   643A      4.568469  
     644A      4.587682   645A      4.608871   646A      4.612425  
     647A      4.623553   648A      4.637577   649A      4.647282  
     650A      4.660803   651A      4.673081   652A      4.686443  
     653A      4.699341   654A      4.704372   655A      4.719381  
     656A      4.726870   657A      4.740538   658A      4.749059  
     659A      4.757339   660A      4.766405   661A      4.778766  
     662A      4.788576   663A      4.790678   664A      4.796505  
     665A      4.811770   666A      4.834154   667A      4.840154  
     668A      4.864712   669A      4.876148   670A      4.893536  
     671A      4.902058   672A      4.914055   673A      4.930619  
     674A      4.947639   675A      4.951360   676A      4.967830  
     677A      4.982099   678A      4.999044   679A      5.023642  
     680A      5.036025   681A      5.046611   682A      5.050950  
     683A      5.061898   684A      5.074625   685A      5.081476  
     686A      5.086156   687A      5.100860   688A      5.111909  
     689A      5.125105   690A      5.135161   691A      5.139618  
     692A      5.151545   693A      5.156079   694A      5.161339  
     695A      5.183265   696A      5.194774   697A      5.209277  
     698A      5.216008   699A      5.222211   700A      5.242813  
     701A      5.254483   702A      5.257955   703A      5.272652  
     704A      5.283382   705A      5.306012   706A      5.314150  
     707A      5.323107   708A      5.325458   709A      5.353059  
     710A      5.363348   711A      5.382590   712A      5.386806  
     713A      5.401717   714A      5.418204   715A      5.427689  
     716A      5.452602   717A      5.462265   718A      5.482102  
     719A      5.491984   720A      5.502489   721A      5.516988  
     722A      5.548391   723A      5.561389   724A      5.570656  
     725A      5.588593   726A      5.627253   727A      5.647088  
     728A      5.650660   729A      5.674527   730A      5.690536  
     731A      5.697482   732A      5.709320   733A      5.715236  
     734A      5.746929   735A      5.757592   736A      5.779218  
     737A      5.797007   738A      5.822780   739A      5.857104  
     740A      5.882217   741A      5.893460   742A      5.915980  
     743A      5.929026   744A      5.981342   745A      6.004750  
     746A      6.016560   747A      6.049525   748A      6.103000  
     749A      6.137272   750A      6.142054   751A      6.190099  
     752A      6.199632   753A      6.219277   754A      6.248105  
     755A      6.262845   756A      6.286421   757A      6.311752  
     758A      6.319201   759A      6.348391   760A      6.397235  
     761A      6.422384   762A      6.451189   763A      6.491865  
     764A      6.538623   765A      6.549975   766A      6.598239  
     767A      6.631853   768A      6.686236   769A      6.701188  
     770A      6.744051   771A      6.781924   772A      6.807667  
     773A      6.849442   774A      6.856468   775A      6.918394  
     776A      6.933550   777A      6.982679   778A      6.995640  
     779A      7.020565   780A      7.046316   781A      7.093117  
     782A      7.100396   783A      7.246745   784A      7.260770  
     785A      7.311229   786A      7.473488   787A      7.493354  
     788A      7.641625   789A      7.725994   790A      7.818644  
     791A      7.883910   792A      7.993717   793A      8.062888  
     794A     15.777243   795A     16.309493   796A     16.814437  
     797A     17.393512   798A     18.207488   799A     18.671231  
     800A     19.169897   801A     19.344860   802A     19.873703  
     803A     20.180922   804A     21.052177   805A     21.527205  

    Final Occupation by Irrep:
              A 
    DOCC [    43 ]

  @DF-RHF Final Energy:  -514.58991488375204

   => Energetics <=

    Nuclear Repulsion Energy =            684.6649490853143334
    One-Electron Energy =               -2057.3070943722104857
    Two-Electron Energy =                 858.0522304031442218
    Total Energy =                       -514.5899148837520443

Computation Completed

*** tstop() called on node54.bme.utexas.edu at Sun Feb  7 11:25:32 2021
Module time:
	user time   =     603.10 seconds =      10.05 minutes
	system time =      95.15 seconds =       1.59 minutes
	total time  =        154 seconds =       2.57 minutes
Total time:
	user time   =     603.10 seconds =      10.05 minutes
	system time =      95.15 seconds =       1.59 minutes
	total time  =        154 seconds =       2.57 minutes
   => Loading Basis Set <=

    Name: (AUG-CC-PVTZ AUX)
    Role: RIFIT
    Keyword: DF_BASIS_MP2
    atoms 1     entry O          line   264 file /home/xy3866/psi4conda/share/psi4/basis/aug-cc-pvtz-ri.gbs 
    atoms 2     entry N          line   206 file /home/xy3866/psi4conda/share/psi4/basis/aug-cc-pvtz-ri.gbs 
    atoms 3-12  entry C          line   148 file /home/xy3866/psi4conda/share/psi4/basis/aug-cc-pvtz-ri.gbs 
    atoms 13-23 entry H          line    30 file /home/xy3866/psi4conda/share/psi4/basis/aug-cc-pvtz-ri.gbs 


*** tstart() called on node54.bme.utexas.edu
*** at Sun Feb  7 11:25:32 2021


  //>>>>>>>>>>>>>>>>>>>>>>>>>>>>>>>>>>>//
  //               DFMP2               //
  //<<<<<<<<<<<<<<<<<<<<<<<<<<<<<<<<<<<//

	 --------------------------------------------------------
	                          DF-MP2                         
	      2nd-Order Density-Fitted Moller-Plesset Theory     
	              RMP2 Wavefunction,   8 Threads             
	                                                         
	        Rob Parrish, Justin Turney, Andy Simmonett,      
	           Ed Hohenstein, and C. David Sherrill          
	 --------------------------------------------------------

   => Auxiliary Basis Set <=

  Basis Set: (AUG-CC-PVTZ AUX)
    Blend: AUG-CC-PVTZ-RI
    Number of shells: 490
    Number of basis function: 1778
    Number of Cartesian functions: 2237
    Spherical Harmonics?: true
    Max angular momentum: 4

	 --------------------------------------------------------
	                 NBF =   805, NAUX =  1778
	 --------------------------------------------------------
	   CLASS    FOCC     OCC    AOCC    AVIR     VIR    FVIR
	   PAIRS       0      43      43     762     762       0
	 --------------------------------------------------------

  DFHelper Memory: AOs need 8.204 GiB; user supplied 22.352 GiB. Using in-core AOs.


         ------------------------------------------------------------
                                     CPHF                           
                                  Rob Parrish                       
         ------------------------------------------------------------

  ==> Geometry <==

    Molecular point group: c1
    Full point group: C1

    Geometry (in Angstrom), charge = 0, multiplicity = 1:

       Center              X                  Y                   Z               Mass       
    ------------   -----------------  -----------------  -----------------  -----------------
         O            0.956452282495     2.465703668284    -0.645873062025    15.994914619570
         N            2.061086282495     0.648690668284     0.188760937975    14.003074004430
         C            0.771134282495    -1.604248331716    -0.859510062025    12.000000000000
         C            1.830473282495    -1.820340331716     0.230193937975    12.000000000000
         C           -0.435045717505    -0.841781331716    -0.370694062025    12.000000000000
         C            2.041401282495    -0.538935331716     1.036686937975    12.000000000000
         C           -0.350380717505     0.535845668284    -0.080568062025    12.000000000000
         C            0.926627282495     1.310183668284    -0.212272062025    12.000000000000
         C           -1.676660717505    -1.472339331716    -0.226082062025    12.000000000000
         C           -1.488887717505     1.254405668284     0.302394937975    12.000000000000
         C           -2.806509717505    -0.763555331716     0.185290937975    12.000000000000
         C           -2.713440717505     0.605558668284     0.446471937975    12.000000000000
         H            0.453051282495    -2.570849331716    -1.266183062025     1.007825032230
         H            1.273309482495    -0.999719331716    -1.760172062025     1.007825032230
         H            1.521243282495    -2.619664331716     0.915155937975     1.007825032230
         H            2.769074282495    -2.137025331716    -0.239629062025     1.007825032230
         H            1.243736282495    -0.437504331716     1.780500937975     1.007825032230
         H            2.987690282495    -0.575132331716     1.584287937975     1.007825032230
         H            2.894021282495     1.228203668284     0.166692937975     1.007825032230
         H           -1.760842717505    -2.533449331716    -0.456356062025     1.007825032230
         H           -1.393376717505     2.322918668284     0.478008937975     1.007825032230
         H           -3.759445717505    -1.277031331716     0.291092937975     1.007825032230
         H           -3.593525717505     1.165341668284     0.753520937975     1.007825032230

  Nuclear repulsion =  684.664949085314333
  Reference energy  = -514.589914883752044

  ==> Basis Set <==

  Basis Set: AUG-CC-PVTZ
    Blend: AUG-CC-PVTZ
    Number of shells: 267
    Number of basis function: 805
    Number of Cartesian functions: 935
    Spherical Harmonics?: true
    Max angular momentum: 3

  ==> CGRSolver (by Rob Parrish) <==

   Number of roots    =         1
   Preconditioning    =    JACOBI
   Convergence cutoff =     1E-06
   Maximum iterations =       100

  ==> CPHFRHamiltonian (by Rob Parrish) <== 

  ==> MemDFJK: Density-Fitted J/K Matrices <==

    J tasked:                   Yes
    K tasked:                   Yes
    wK tasked:                   No
    OpenMP threads:               8
    Memory [MiB]:             22888
    Algorithm:                 Disk
    Schwarz Cutoff:           1E-12
    Mask sparsity (%):       5.3865
    Fitting Condition:        1E-10

   => Auxiliary Basis Set <=

  Basis Set: (AUG-CC-PVTZ AUX)
    Blend: AUG-CC-PVTZ-JKFIT
    Number of shells: 514
    Number of basis function: 1754
    Number of Cartesian functions: 2177
    Spherical Harmonics?: true
    Max angular momentum: 4

  ==> CPHF Iterations <==

  => Iterations <=

             Iter  Converged  Remaining    Residual
  CGR           1          0          1   1.181E-01
  CGR           2          0          1   3.649E-02
  CGR           3          0          1   1.754E-02
  CGR           4          0          1   7.631E-03
  CGR           5          0          1   3.712E-03
  CGR           6          0          1   1.674E-03
  CGR           7          0          1   5.310E-04
  CGR           8          0          1   1.848E-04
  CGR           9          0          1   5.907E-05
  CGR          10          0          1   1.968E-05
  CGR          11          0          1   8.428E-06
  CGR          12          0          1   3.460E-06
  CGR          13          0          1   1.563E-06
  CGR          14          1          0   5.572E-07

    CGRSolver converged.

	-----------------------------------------------------------
	 ==================> DF-MP2 Energies <==================== 
	-----------------------------------------------------------
	 Reference Energy          =    -514.5899148837520443 [Eh]
	 Singles Energy            =      -0.0000000000000000 [Eh]
	 Same-Spin Energy          =      -0.5588235852942528 [Eh]
	 Opposite-Spin Energy      =      -1.7452842248035547 [Eh]
	 Correlation Energy        =      -2.3041078100978076 [Eh]
	 Total Energy              =    -516.8940226938498199 [Eh]
	-----------------------------------------------------------
	 ================> DF-SCS-MP2 Energies <================== 
	-----------------------------------------------------------
	 SCS Same-Spin Scale       =       0.3333333333333333 [-]
	 SCS Opposite-Spin Scale   =       1.2000000000000000 [-]
	 SCS Same-Spin Energy      =      -0.1862745284314176 [Eh]
	 SCS Opposite-Spin Energy  =      -2.0943410697642655 [Eh]
	 SCS Correlation Energy    =      -2.2806155981956833 [Eh]
	 SCS Total Energy          =    -516.8705304819477533 [Eh]
	-----------------------------------------------------------



Properties will be evaluated at   0.000000,   0.000000,   0.000000 [a0]

Properties computed using the MP2 density matrix

  Nuclear Dipole Moment: [e a0]
     X:     2.4688      Y:    -7.8966      Z:     2.1028

  Electronic Dipole Moment: [e a0]
     X:    -2.2292      Y:     6.4718      Z:    -1.3891

  Dipole Moment: [e a0]
     X:     0.2396      Y:    -1.4248      Z:     0.7136     Total:     1.6114

  Dipole Moment: [D]
     X:     0.6090      Y:    -3.6214      Z:     1.8139     Total:     4.0958


*** tstop() called on node54.bme.utexas.edu at Sun Feb  7 11:31:48 2021
Module time:
	user time   =    2062.74 seconds =      34.38 minutes
	system time =     216.99 seconds =       3.62 minutes
	total time  =        376 seconds =       6.27 minutes
Total time:
	user time   =    2666.04 seconds =      44.43 minutes
	system time =     312.15 seconds =       5.20 minutes
	total time  =        530 seconds =       8.83 minutes

    Psi4 stopped on: Sunday, 07 February 2021 11:31AM
    Psi4 wall time for execution: 0:08:50.31

*** Psi4 exiting successfully. Buy a developer a beer!
