116_2-OxobutanoicAcid Gaussian SP Calculation on g2-node38.bme.utexas.ed
Freq      RMP2-FC                                                     6-31G(d)            
Number of atoms                            I               13
Info1-9                                    I   N=           9
          24          23        1002           0           0         100
           6           2           1
Charge                                     I                0
Multiplicity                               I                1
Number of electrons                        I               54
Number of alpha electrons                  I               27
Number of beta electrons                   I               27
Number of basis functions                  I              117
Number of independent functions            I              117
Number of point charges in /Mol/           I                0
Number of translation vectors              I                0
Atomic numbers                             I   N=          13
           8           8           8           6           6           6
           6           1           1           1           1           1
           1
Nuclear charges                            R   N=          13
  8.00000000E+00  8.00000000E+00  8.00000000E+00  6.00000000E+00  6.00000000E+00
  6.00000000E+00  6.00000000E+00  1.00000000E+00  1.00000000E+00  1.00000000E+00
  1.00000000E+00  1.00000000E+00  1.00000000E+00
Current cartesian coordinates              R   N=          39
 -7.40746566E-01  2.89015441E+00 -9.12114244E-06  4.07587569E+00  1.39779848E+00
  7.45552202E-06  2.80029897E+00 -2.70756372E+00  1.34589579E-06 -2.43858873E+00
 -1.35767736E+00 -1.38512211E-05 -5.06423415E+00 -1.87192831E-01  1.51596553E-05
 -3.77587469E-01  6.04792780E-01 -5.60105148E-06  2.32571527E+00 -4.49066734E-01
  2.35899940E-06 -2.14143046E+00 -2.58812302E+00  1.64200921E+00 -2.14145175E+00
 -2.58808059E+00 -1.64207357E+00 -5.34034206E+00  9.99662305E-01  1.66521363E+00
 -5.34035330E+00  9.99719062E-01 -1.66514067E+00 -6.50635768E+00 -1.66493241E+00
 -4.20583088E-06  5.71468097E+00  5.33506224E-01  9.76806915E-06
Force Field                                I                0
Int Atom Types                             I   N=          13
           0           0           0           0           0           0
           0           0           0           0           0           0
           0
MM charges                                 R   N=          13
  0.00000000E+00  0.00000000E+00  0.00000000E+00  0.00000000E+00  0.00000000E+00
  0.00000000E+00  0.00000000E+00  0.00000000E+00  0.00000000E+00  0.00000000E+00
  0.00000000E+00  0.00000000E+00  0.00000000E+00
Integer atomic weights                     I   N=          13
          16          16          16          12          12          12
          12           1           1           1           1           1
           1
Real atomic weights                        R   N=          13
  1.59949146E+01  1.59949146E+01  1.59949146E+01  1.20000000E+01  1.20000000E+01
  1.20000000E+01  1.20000000E+01  1.00782504E+00  1.00782504E+00  1.00782504E+00
  1.00782504E+00  1.00782504E+00  1.00782504E+00
Atom fragment info                         I   N=          13
           0           0           0           0           0           0
           0           0           0           0           0           0
           0
Atom residue num                           I   N=          13
           0           0           0           0           0           0
           0           0           0           0           0           0
           0
Nuclear spins                              I   N=          13
           0           0           0           0           0           0
           0           1           1           1           1           1
           1
Nuclear ZEff                               R   N=          13
 -5.60000000E+00 -5.60000000E+00 -5.60000000E+00 -3.60000000E+00 -3.60000000E+00
 -3.60000000E+00 -3.60000000E+00 -1.00000000E+00 -1.00000000E+00 -1.00000000E+00
 -1.00000000E+00 -1.00000000E+00 -1.00000000E+00
Nuclear QMom                               R   N=          13
  0.00000000E+00  0.00000000E+00  0.00000000E+00  0.00000000E+00  0.00000000E+00
  0.00000000E+00  0.00000000E+00  0.00000000E+00  0.00000000E+00  0.00000000E+00
  0.00000000E+00  0.00000000E+00  0.00000000E+00
Nuclear GFac                               R   N=          13
  0.00000000E+00  0.00000000E+00  0.00000000E+00  0.00000000E+00  0.00000000E+00
  0.00000000E+00  0.00000000E+00  2.79284600E+00  2.79284600E+00  2.79284600E+00
  2.79284600E+00  2.79284600E+00  2.79284600E+00
MicOpt                                     I   N=          13
          -1          -1          -1          -1          -1          -1
          -1          -1          -1          -1          -1          -1
          -1
Number of contracted shells                I               40
Number of primitive shells                 I              101
Pure/Cartesian d shells                    I                1
Pure/Cartesian f shells                    I                0
Highest angular momentum                   I                2
Largest degree of contraction              I                6
Shell types                                I   N=          40
           0          -1          -1           2           0          -1
          -1           2           0          -1          -1           2
           0          -1          -1           2           0          -1
          -1           2           0          -1          -1           2
           0          -1          -1           2           0           0
           0           0           0           0           0           0
           0           0           0           0
Number of primitives per shell             I   N=          40
           6           3           1           1           6           3
           1           1           6           3           1           1
           6           3           1           1           6           3
           1           1           6           3           1           1
           6           3           1           1           3           1
           3           1           3           1           3           1
           3           1           3           1
Shell to atom map                          I   N=          40
           1           1           1           1           2           2
           2           2           3           3           3           3
           4           4           4           4           5           5
           5           5           6           6           6           6
           7           7           7           7           8           8
           9           9          10          10          11          11
          12          12          13          13
Primitive exponents                        R   N=         101
  5.48467166E+03  8.25234946E+02  1.88046958E+02  5.29645000E+01  1.68975704E+01
  5.79963534E+00  1.55396162E+01  3.59993359E+00  1.01376175E+00  2.70005823E-01
  8.00000000E-01  5.48467166E+03  8.25234946E+02  1.88046958E+02  5.29645000E+01
  1.68975704E+01  5.79963534E+00  1.55396162E+01  3.59993359E+00  1.01376175E+00
  2.70005823E-01  8.00000000E-01  5.48467166E+03  8.25234946E+02  1.88046958E+02
  5.29645000E+01  1.68975704E+01  5.79963534E+00  1.55396162E+01  3.59993359E+00
  1.01376175E+00  2.70005823E-01  8.00000000E-01  3.04752488E+03  4.57369518E+02
  1.03948685E+02  2.92101553E+01  9.28666296E+00  3.16392696E+00  7.86827235E+00
  1.88128854E+00  5.44249258E-01  1.68714478E-01  8.00000000E-01  3.04752488E+03
  4.57369518E+02  1.03948685E+02  2.92101553E+01  9.28666296E+00  3.16392696E+00
  7.86827235E+00  1.88128854E+00  5.44249258E-01  1.68714478E-01  8.00000000E-01
  3.04752488E+03  4.57369518E+02  1.03948685E+02  2.92101553E+01  9.28666296E+00
  3.16392696E+00  7.86827235E+00  1.88128854E+00  5.44249258E-01  1.68714478E-01
  8.00000000E-01  3.04752488E+03  4.57369518E+02  1.03948685E+02  2.92101553E+01
  9.28666296E+00  3.16392696E+00  7.86827235E+00  1.88128854E+00  5.44249258E-01
  1.68714478E-01  8.00000000E-01  1.87311370E+01  2.82539436E+00  6.40121692E-01
  1.61277759E-01  1.87311370E+01  2.82539436E+00  6.40121692E-01  1.61277759E-01
  1.87311370E+01  2.82539436E+00  6.40121692E-01  1.61277759E-01  1.87311370E+01
  2.82539436E+00  6.40121692E-01  1.61277759E-01  1.87311370E+01  2.82539436E+00
  6.40121692E-01  1.61277759E-01  1.87311370E+01  2.82539436E+00  6.40121692E-01
  1.61277759E-01
Contraction coefficients                   R   N=         101
  1.83107443E-03  1.39501722E-02  6.84450781E-02  2.32714336E-01  4.70192898E-01
  3.58520853E-01 -1.10777550E-01 -1.48026263E-01  1.13076702E+00  1.00000000E+00
  1.00000000E+00  1.83107443E-03  1.39501722E-02  6.84450781E-02  2.32714336E-01
  4.70192898E-01  3.58520853E-01 -1.10777550E-01 -1.48026263E-01  1.13076702E+00
  1.00000000E+00  1.00000000E+00  1.83107443E-03  1.39501722E-02  6.84450781E-02
  2.32714336E-01  4.70192898E-01  3.58520853E-01 -1.10777550E-01 -1.48026263E-01
  1.13076702E+00  1.00000000E+00  1.00000000E+00  1.83473713E-03  1.40373228E-02
  6.88426223E-02  2.32184443E-01  4.67941348E-01  3.62311985E-01 -1.19332420E-01
 -1.60854152E-01  1.14345644E+00  1.00000000E+00  1.00000000E+00  1.83473713E-03
  1.40373228E-02  6.88426223E-02  2.32184443E-01  4.67941348E-01  3.62311985E-01
 -1.19332420E-01 -1.60854152E-01  1.14345644E+00  1.00000000E+00  1.00000000E+00
  1.83473713E-03  1.40373228E-02  6.88426223E-02  2.32184443E-01  4.67941348E-01
  3.62311985E-01 -1.19332420E-01 -1.60854152E-01  1.14345644E+00  1.00000000E+00
  1.00000000E+00  1.83473713E-03  1.40373228E-02  6.88426223E-02  2.32184443E-01
  4.67941348E-01  3.62311985E-01 -1.19332420E-01 -1.60854152E-01  1.14345644E+00
  1.00000000E+00  1.00000000E+00  3.34946043E-02  2.34726953E-01  8.13757326E-01
  1.00000000E+00  3.34946043E-02  2.34726953E-01  8.13757326E-01  1.00000000E+00
  3.34946043E-02  2.34726953E-01  8.13757326E-01  1.00000000E+00  3.34946043E-02
  2.34726953E-01  8.13757326E-01  1.00000000E+00  3.34946043E-02  2.34726953E-01
  8.13757326E-01  1.00000000E+00  3.34946043E-02  2.34726953E-01  8.13757326E-01
  1.00000000E+00
P(S=P) Contraction coefficients            R   N=         101
  0.00000000E+00  0.00000000E+00  0.00000000E+00  0.00000000E+00  0.00000000E+00
  0.00000000E+00  7.08742682E-02  3.39752839E-01  7.27158577E-01  1.00000000E+00
  0.00000000E+00  0.00000000E+00  0.00000000E+00  0.00000000E+00  0.00000000E+00
  0.00000000E+00  0.00000000E+00  7.08742682E-02  3.39752839E-01  7.27158577E-01
  1.00000000E+00  0.00000000E+00  0.00000000E+00  0.00000000E+00  0.00000000E+00
  0.00000000E+00  0.00000000E+00  0.00000000E+00  7.08742682E-02  3.39752839E-01
  7.27158577E-01  1.00000000E+00  0.00000000E+00  0.00000000E+00  0.00000000E+00
  0.00000000E+00  0.00000000E+00  0.00000000E+00  0.00000000E+00  6.89990666E-02
  3.16423961E-01  7.44308291E-01  1.00000000E+00  0.00000000E+00  0.00000000E+00
  0.00000000E+00  0.00000000E+00  0.00000000E+00  0.00000000E+00  0.00000000E+00
  6.89990666E-02  3.16423961E-01  7.44308291E-01  1.00000000E+00  0.00000000E+00
  0.00000000E+00  0.00000000E+00  0.00000000E+00  0.00000000E+00  0.00000000E+00
  0.00000000E+00  6.89990666E-02  3.16423961E-01  7.44308291E-01  1.00000000E+00
  0.00000000E+00  0.00000000E+00  0.00000000E+00  0.00000000E+00  0.00000000E+00
  0.00000000E+00  0.00000000E+00  6.89990666E-02  3.16423961E-01  7.44308291E-01
  1.00000000E+00  0.00000000E+00  0.00000000E+00  0.00000000E+00  0.00000000E+00
  0.00000000E+00  0.00000000E+00  0.00000000E+00  0.00000000E+00  0.00000000E+00
  0.00000000E+00  0.00000000E+00  0.00000000E+00  0.00000000E+00  0.00000000E+00
  0.00000000E+00  0.00000000E+00  0.00000000E+00  0.00000000E+00  0.00000000E+00
  0.00000000E+00  0.00000000E+00  0.00000000E+00  0.00000000E+00  0.00000000E+00
  0.00000000E+00
Coordinates of each shell                  R   N=         120
 -7.40746566E-01  2.89015441E+00 -9.12114244E-06 -7.40746566E-01  2.89015441E+00
 -9.12114244E-06 -7.40746566E-01  2.89015441E+00 -9.12114244E-06 -7.40746566E-01
  2.89015441E+00 -9.12114244E-06  4.07587569E+00  1.39779848E+00  7.45552202E-06
  4.07587569E+00  1.39779848E+00  7.45552202E-06  4.07587569E+00  1.39779848E+00
  7.45552202E-06  4.07587569E+00  1.39779848E+00  7.45552202E-06  2.80029897E+00
 -2.70756372E+00  1.34589579E-06  2.80029897E+00 -2.70756372E+00  1.34589579E-06
  2.80029897E+00 -2.70756372E+00  1.34589579E-06  2.80029897E+00 -2.70756372E+00
  1.34589579E-06 -2.43858873E+00 -1.35767736E+00 -1.38512211E-05 -2.43858873E+00
 -1.35767736E+00 -1.38512211E-05 -2.43858873E+00 -1.35767736E+00 -1.38512211E-05
 -2.43858873E+00 -1.35767736E+00 -1.38512211E-05 -5.06423415E+00 -1.87192831E-01
  1.51596553E-05 -5.06423415E+00 -1.87192831E-01  1.51596553E-05 -5.06423415E+00
 -1.87192831E-01  1.51596553E-05 -5.06423415E+00 -1.87192831E-01  1.51596553E-05
 -3.77587469E-01  6.04792780E-01 -5.60105148E-06 -3.77587469E-01  6.04792780E-01
 -5.60105148E-06 -3.77587469E-01  6.04792780E-01 -5.60105148E-06 -3.77587469E-01
  6.04792780E-01 -5.60105148E-06  2.32571527E+00 -4.49066734E-01  2.35899940E-06
  2.32571527E+00 -4.49066734E-01  2.35899940E-06  2.32571527E+00 -4.49066734E-01
  2.35899940E-06  2.32571527E+00 -4.49066734E-01  2.35899940E-06 -2.14143046E+00
 -2.58812302E+00  1.64200921E+00 -2.14143046E+00 -2.58812302E+00  1.64200921E+00
 -2.14145175E+00 -2.58808059E+00 -1.64207357E+00 -2.14145175E+00 -2.58808059E+00
 -1.64207357E+00 -5.34034206E+00  9.99662305E-01  1.66521363E+00 -5.34034206E+00
  9.99662305E-01  1.66521363E+00 -5.34035330E+00  9.99719062E-01 -1.66514067E+00
 -5.34035330E+00  9.99719062E-01 -1.66514067E+00 -6.50635768E+00 -1.66493241E+00
 -4.20583088E-06 -6.50635768E+00 -1.66493241E+00 -4.20583088E-06  5.71468097E+00
  5.33506224E-01  9.76806915E-06  5.71468097E+00  5.33506224E-01  9.76806915E-06
Constraint Structure                       R   N=          39
 -7.40746566E-01  2.89015441E+00 -9.12114244E-06  4.07587569E+00  1.39779848E+00
  7.45552202E-06  2.80029897E+00 -2.70756372E+00  1.34589579E-06 -2.43858873E+00
 -1.35767736E+00 -1.38512211E-05 -5.06423415E+00 -1.87192831E-01  1.51596553E-05
 -3.77587469E-01  6.04792780E-01 -5.60105148E-06  2.32571527E+00 -4.49066734E-01
  2.35899940E-06 -2.14143046E+00 -2.58812302E+00  1.64200921E+00 -2.14145175E+00
 -2.58808059E+00 -1.64207357E+00 -5.34034206E+00  9.99662305E-01  1.66521363E+00
 -5.34035330E+00  9.99719062E-01 -1.66514067E+00 -6.50635768E+00 -1.66493241E+00
 -4.20583088E-06  5.71468097E+00  5.33506224E-01  9.76806915E-06
Num ILSW                                   I              100
ILSW                                       I   N=         100
           0           1           0           0           2           0
           0           0           0           0           0          -1
           0           0           0           0           0           0
           0           0           0           0           1           0
           1           0           0           0           0           0
           0           0      100000           0          -1           0
           0           0           0           0           0           0
           0           0           0           1           1           0
           0           0           1           0           0           0
           0           0           4          40           0           0
           0           0           0           0           0           0
           0           0           0           0           0           0
           0           0           0           0           0           0
           0           0           0           0           0           0
           0           0           0           0           0           0
           0           0           0           0           0           0
           0           0           0           0
Num RLSW                                   I               40
RLSW                                       R   N=          40
  1.00000000E+00  1.00000000E+00  1.00000000E+00  1.00000000E+00  1.00000000E+00
  0.00000000E+00  0.00000000E+00  1.00000000E+00  0.00000000E+00  0.00000000E+00
  0.00000000E+00  0.00000000E+00  1.00000000E+00  0.00000000E+00  0.00000000E+00
  0.00000000E+00  0.00000000E+00  1.00000000E+00  0.00000000E+00  0.00000000E+00
  0.00000000E+00  0.00000000E+00  1.00000000E+00  0.00000000E+00  0.00000000E+00
  0.00000000E+00  0.00000000E+00  1.00000000E+00  0.00000000E+00  0.00000000E+00
  0.00000000E+00  0.00000000E+00  0.00000000E+00  0.00000000E+00  0.00000000E+00
  0.00000000E+00  0.00000000E+00  0.00000000E+00  1.00000000E+00  1.00000000E+00
MxBond                                     I                4
NBond                                      I   N=          13
           1           2           1           4           4           3
           3           1           1           1           1           1
           1
IBond                                      I   N=          52
           6           0           0           0           7          13
           0           0           7           0           0           0
           5           6           8           9           4          10
          11          12           1           4           7           0
           2           3           6           0           4           0
           0           0           4           0           0           0
           5           0           0           0           5           0
           0           0           5           0           0           0
           2           0           0           0
RBond                                      R   N=          52
  2.00000000E+00  0.00000000E+00  0.00000000E+00  0.00000000E+00  1.50000000E+00
  1.00000000E+00  0.00000000E+00  0.00000000E+00  2.00000000E+00  0.00000000E+00
  0.00000000E+00  0.00000000E+00  1.00000000E+00  1.00000000E+00  1.00000000E+00
  1.00000000E+00  1.00000000E+00  1.00000000E+00  1.00000000E+00  1.00000000E+00
  2.00000000E+00  1.00000000E+00  1.00000000E+00  0.00000000E+00  1.50000000E+00
  2.00000000E+00  1.00000000E+00  0.00000000E+00  1.00000000E+00  0.00000000E+00
  0.00000000E+00  0.00000000E+00  1.00000000E+00  0.00000000E+00  0.00000000E+00
  0.00000000E+00  1.00000000E+00  0.00000000E+00  0.00000000E+00  0.00000000E+00
  1.00000000E+00  0.00000000E+00  0.00000000E+00  0.00000000E+00  1.00000000E+00
  0.00000000E+00  0.00000000E+00  0.00000000E+00  1.00000000E+00  0.00000000E+00
  0.00000000E+00  0.00000000E+00
Virial Ratio                               R      2.003150022997622E+00
SCF Energy                                 R     -3.795570501653041E+02
MP2 Energy                                 R     -3.806023389065811E+02
Total Energy                               R     -3.806023389065811E+02
Post-SCF wavefunction norm                 R      1.627912861865199E+00
RMS Force                                  R      6.908273973851468E-07
RMS Density                                R      2.068925291097674E-09
External E-field                           R   N=          35
  0.00000000E+00  0.00000000E+00  0.00000000E+00  0.00000000E+00  0.00000000E+00
  0.00000000E+00  0.00000000E+00  0.00000000E+00  0.00000000E+00  0.00000000E+00
  0.00000000E+00  0.00000000E+00  0.00000000E+00  0.00000000E+00  0.00000000E+00
  0.00000000E+00  0.00000000E+00  0.00000000E+00  0.00000000E+00  0.00000000E+00
  0.00000000E+00  0.00000000E+00  0.00000000E+00  0.00000000E+00  0.00000000E+00
  0.00000000E+00  0.00000000E+00  0.00000000E+00  0.00000000E+00  0.00000000E+00
  0.00000000E+00  0.00000000E+00  0.00000000E+00  0.00000000E+00  0.00000000E+00
IOpCl                                      I                0
IROHF                                      I                0
Alpha Orbital Energies                     R   N=         117
 -2.06411642E+01 -2.05960366E+01 -2.05906447E+01 -1.14176594E+01 -1.13658545E+01
 -1.12529509E+01 -1.12281300E+01 -1.48377717E+00 -1.40846970E+00 -1.38091524E+00
 -1.07390852E+00 -9.63048045E-01 -8.78230939E-01 -7.66787855E-01 -7.24179061E-01
 -7.08351860E-01 -6.61114494E-01 -6.50807764E-01 -6.28029063E-01 -6.14099594E-01
 -5.45233472E-01 -5.35987141E-01 -5.27221380E-01 -5.15210892E-01 -4.98478721E-01
 -4.95102227E-01 -4.32083848E-01  7.26140038E-02  2.11269751E-01  2.33309409E-01
  2.37986931E-01  2.88455860E-01  3.02962483E-01  3.11936632E-01  3.49775680E-01
  3.75672385E-01  4.08414624E-01  4.42813415E-01  4.54460205E-01  5.15323944E-01
  5.67700321E-01  7.22905840E-01  7.28662729E-01  7.35061324E-01  7.77460035E-01
  7.91657107E-01  8.41183318E-01  8.47562125E-01  8.95339961E-01  9.25057787E-01
  9.51348797E-01  9.81813894E-01  9.86111976E-01  1.02104934E+00  1.06669032E+00
  1.09163951E+00  1.10689970E+00  1.14800016E+00  1.15817091E+00  1.17302646E+00
  1.19134040E+00  1.19499433E+00  1.22905359E+00  1.23275524E+00  1.25992244E+00
  1.28590009E+00  1.30366407E+00  1.36109985E+00  1.38186126E+00  1.42272220E+00
  1.56491243E+00  1.59081562E+00  1.61286152E+00  1.67690301E+00  1.73912919E+00
  1.80352176E+00  1.82889594E+00  1.91708667E+00  1.94831640E+00  1.97807372E+00
  2.03303754E+00  2.04529556E+00  2.06573942E+00  2.06652200E+00  2.13833483E+00
  2.15105257E+00  2.16778964E+00  2.22797364E+00  2.24112700E+00  2.27881365E+00
  2.31814682E+00  2.37839969E+00  2.40733721E+00  2.50894150E+00  2.60920901E+00
  2.61402763E+00  2.64806359E+00  2.66347791E+00  2.70979635E+00  2.72690116E+00
  2.84413536E+00  2.90669003E+00  2.96350905E+00  2.98392396E+00  3.03604075E+00
  3.12183593E+00  3.25840964E+00  3.31707038E+00  3.43013042E+00  3.51827720E+00
  4.16470209E+00  4.41487321E+00  4.43145387E+00  4.60692727E+00  4.83427274E+00
  4.86076059E+00  5.05876411E+00
Alpha MO coefficients                      R   N=       13689
 -4.74421802E-05 -4.40783684E-06  3.35019173E-05  4.68322162E-06  1.35466338E-10
  1.58414996E-04 -7.59319255E-05 -4.61256993E-05 -2.30142391E-10 -3.53074952E-06
  1.75641678E-05  3.24973280E-05  8.62761769E-06 -1.15696566E-10  5.62459088E-11
  9.94646950E-01  2.11967516E-02  1.59919568E-04 -1.33901812E-03 -6.70875046E-10
  3.88760393E-03 -2.23945603E-04  6.60051886E-04 -3.83507504E-11 -4.12832121E-03
 -4.05313792E-03 -3.93430552E-03  1.22807167E-05 -3.50159505E-10 -9.76870109E-11
 -3.49191048E-04  5.14193067E-06 -1.95724266E-05 -3.21859927E-05 -6.17685303E-11
 -1.36331929E-04 -1.27202898E-04 -4.75581687E-05 -3.56565313E-10  2.30675800E-05
 -4.72440881E-05 -2.19926573E-05 -7.61302994E-05  3.14469552E-11 -1.89332942E-10
  7.26341525E-06  4.39492847E-05 -1.02607440E-05 -4.01144930E-06  1.03454291E-10
 -4.63396514E-04 -2.17879066E-04 -1.05238866E-04 -2.16064570E-09 -1.39271137E-05
  1.95920077E-05  4.12332303E-06 -1.00857078E-05 -1.71679696E-10  6.11582713E-11
 -1.48590190E-06 -9.90571111E-06  2.33058681E-06 -2.21252912E-06 -6.03556022E-12
  2.94935623E-05  3.34116353E-05  4.07949033E-05  6.72802788E-10  5.25546142E-06
 -7.00796431E-06  1.80536817E-06  2.48258337E-07  1.91072181E-11 -2.06679972E-10
 -1.05615397E-05 -2.05882332E-05  4.83890698E-06  2.93362682E-05  4.74227131E-11
  7.04210717E-04  7.41882923E-05 -5.64063326E-04  4.44497290E-10 -5.60688700E-05
 -1.09909065E-05 -2.51123687E-05  6.72825751E-07 -1.03032967E-10  2.62546201E-11
  1.35699446E-06  4.39823169E-04  2.09430194E-04  2.29462077E-04  6.65535977E-10
 -4.16634672E-04  5.43124757E-04 -2.57767335E-04  1.09227425E-09 -8.04037132E-05
 -8.12146180E-05 -5.02161328E-05 -8.37050623E-05 -1.61345705E-10 -2.18376748E-10
  1.99964267E-05  8.77999715E-06  1.99959678E-05  8.77848245E-06 -5.51019167E-06
 -6.27163034E-06 -5.51009745E-06 -6.27166743E-06  5.32594946E-06  3.67081168E-06
  4.42180293E-04 -2.62598612E-04  9.94706720E-01  2.08832433E-02  2.38745949E-04
 -1.51833493E-03  2.27007268E-09  4.63033749E-03  6.91269247E-06 -4.60103828E-06
  2.18999472E-10 -3.86610109E-03 -3.59483954E-03 -4.20231690E-03 -5.03613473E-05
  1.23971815E-09 -8.80793124E-10  5.66210095E-05  2.80234878E-05 -9.17937230E-06
  1.06889794E-05 -4.40922727E-11 -1.47612751E-04  6.30677507E-05 -3.79703580E-06
  2.62545024E-10  1.23527299E-05  1.11709124E-05  2.45030407E-05 -1.61036924E-06
 -7.68584912E-11 -5.27805288E-12  1.28555297E-04 -4.73041473E-06 -5.34558311E-06
  1.46530240E-05  8.70614103E-12  1.69040905E-04  7.20159869E-06  4.42352664E-05
  1.46145359E-10 -2.82642582E-05  1.19042422E-05 -5.77189495E-06  1.39890979E-05
 -4.82528169E-11  9.59569972E-11 -1.93054855E-06 -1.84908342E-06 -3.11267025E-06
 -2.17088021E-05  1.90249459E-10 -1.62725581E-04 -1.67176847E-04 -4.37277027E-05
 -4.24491314E-10  4.02370814E-05 -5.12249733E-05 -2.14592095E-05 -4.96458098E-06
  1.30833179E-10  7.82706156E-11  2.19591718E-06  1.51581582E-05  9.80878392E-06
  1.65831852E-05  5.88342781E-10 -2.87405288E-05 -7.99316642E-05 -1.89386671E-05
 -2.07289909E-09 -4.32088593E-07 -8.57863478E-06  1.84068766E-06  1.04416299E-05
  3.39003871E-10 -1.76851021E-10 -8.36992360E-06  4.47304633E-04  2.08827766E-05
 -4.82961438E-05  1.88177328E-10 -2.08813372E-04  7.50236035E-06 -7.44880442E-04
  3.35015763E-10 -7.34926490E-05 -7.59173836E-04 -4.38108866E-05  1.26263416E-04
 -2.53410986E-10  1.30511216E-09 -1.07189451E-06  9.17536095E-06  1.99742139E-05
 -8.65878639E-06  1.17683595E-10 -1.38612170E-04  8.00278968E-05  2.10060315E-04
  1.39110648E-10  3.04556916E-06 -4.53870053E-05 -1.58359445E-05  5.59923255E-05
  1.98908216E-11  1.65372055E-10  7.36213454E-06 -2.19936272E-05  7.36234640E-06
 -2.19949058E-05  2.17227196E-05 -2.99983855E-05  2.17234650E-05 -3.00039551E-05
 -4.36751206E-06 -4.77012523E-05 -7.24451567E-06 -1.42677475E-05 -1.31886338E-04
  9.14726863E-06  7.85569562E-06 -1.54872040E-05 -1.90731616E-11  5.01478910E-05
 -3.39958694E-05 -2.24051602E-05  3.90380461E-10 -1.49575444E-05  2.69190554E-05
  8.58418113E-06  2.12099662E-05 -1.00015823E-10 -5.77395336E-11  3.40152583E-04
 -5.60197231E-05 -5.63135333E-07  3.39397209E-05  3.76193650E-11  2.56920517E-04
 -9.17546101E-05 -9.56708977E-05 -3.48773249E-10  6.56962008E-05 -1.04951306E-04
 -8.09942474E-05  3.94516934E-05  3.80248843E-10  7.77025485E-11  9.94699793E-01
  2.09666623E-02 -2.91367752E-04  1.54915576E-03  8.33136657E-10  4.44725078E-03
  9.87453416E-06 -3.01207809E-05 -4.59040915E-11 -3.88329969E-03 -3.59498864E-03
 -4.13374767E-03 -7.86831844E-05  5.32698558E-10  3.11275003E-10 -3.40702428E-07
  6.85703389E-06  1.97564826E-05 -1.40595213E-05 -5.47501018E-10  5.58070336E-05
 -2.34832202E-04  3.56101148E-05  3.94159189E-09  7.32936998E-07 -1.25161523E-05
 -7.03433236E-06 -1.90163274E-05 -3.69818476E-10  1.39508593E-10  4.30606692E-06
  2.32303710E-05 -7.02540651E-06  4.47415536E-06 -4.90037916E-11 -2.19936455E-04
 -7.86737864E-05  4.52968807E-05  1.03540720E-09 -2.07021742E-06  2.59885794E-06
  7.88040552E-06  6.87320224E-06  4.19988720E-11 -7.30129886E-11 -2.48979211E-06
 -9.62685113E-06 -3.83784636E-06  1.81635902E-05  4.22674848E-11 -1.79089624E-05
 -4.05532993E-05 -1.35359347E-04 -1.48840834E-09  2.61099914E-05 -5.10049921E-05
 -1.46491638E-05  6.96253653E-05  3.29906258E-10  2.86247711E-10 -4.36681721E-06
  4.94175955E-04 -1.36794711E-05  4.74776541E-05  2.30011102E-11 -5.10263026E-04
 -2.33646568E-04  3.68661376E-04  1.89119461E-10 -8.54433954E-05 -8.02343833E-04
 -3.34823825E-05  1.43187258E-04 -2.68281273E-11 -4.59703465E-10  2.72904780E-05
 -3.55995897E-05  2.72897087E-05 -3.55937103E-05  6.12594506E-06  8.26431530E-06
  6.12609353E-06  8.26426532E-06  8.15710950E-06  6.77103097E-06 -1.61799432E-05
 -7.03265287E-07 -3.92527424E-06 -6.27594101E-05 -4.30255612E-05  1.64866138E-05
  2.06558189E-10 -5.24900923E-04 -3.32221569E-04 -2.43303974E-05 -2.75863438E-09
  4.30326681E-05  8.30605484E-05 -1.41475017E-04  2.32073506E-05  5.30193751E-10
  6.33967536E-11 -1.03507266E-04  6.00173011E-04 -3.33174733E-05 -1.73852868E-04
 -1.11025594E-10 -1.24161436E-03  2.83476147E-04  1.74392517E-03  1.27398657E-09
 -1.95577774E-04 -3.52286569E-04  5.18860886E-04 -4.70750831E-04 -2.07447351E-09
 -1.49347638E-09 -2.33692912E-04  8.12251504E-04 -1.06689834E-05  3.18876545E-04
  3.30348956E-10 -4.22687015E-03 -3.21801108E-04 -2.07707495E-03 -3.83444253E-09
  3.46780596E-04  9.95686253E-05  5.26020488E-04 -1.00210099E-04 -6.41757484E-10
 -1.05793044E-09 -7.74323498E-05 -2.47773284E-04 -7.77981942E-05  3.54355858E-05
  6.02454137E-10  1.31030493E-03  1.06053369E-03  4.11731945E-04 -7.54147868E-09
 -1.31712562E-05  3.43834256E-05 -6.80214420E-05  7.58903767E-05  1.32475834E-09
 -3.74231311E-10 -2.93126211E-05 -1.35842488E-04 -2.38547042E-05 -2.28117262E-05
  1.68757672E-10  7.48480528E-04  4.20942801E-04  2.87499193E-05 -1.18979569E-09
 -5.31671173E-06 -2.77880281E-05 -5.63782039E-05 -5.83317804E-06 -5.46939848E-10
 -1.39357719E-10  5.19873499E-03  1.91311660E-04 -1.24989849E-04 -8.45776868E-05
 -1.38878723E-10  4.13495518E-03  3.64065321E-03  6.50328828E-04  1.39494300E-08
 -5.07011377E-04 -2.93482298E-04 -2.05177543E-04  7.51278726E-05 -1.31528251E-09
 -9.71959107E-11  9.95882857E-01  2.61316923E-02  8.20345063E-04  2.10621234E-04
  1.73699082E-09 -6.42558015E-03  4.13373046E-03 -3.47535001E-03  9.69751058E-09
 -1.27100022E-03 -4.95450743E-04 -2.27931026E-03  1.38157094E-04  2.79442615E-09
  1.83675704E-09 -1.03947336E-04  1.22766058E-05 -1.03946174E-04  1.22665611E-05
 -3.58974113E-05 -6.21836431E-05 -3.58988737E-05 -6.21796294E-05 -2.15665553E-05
  1.56187079E-04  3.12677998E-04 -2.40535343E-05 -1.85943135E-04  1.03459576E-03
  2.84099166E-05 -2.76555673E-04  3.79636040E-10 -5.87206757E-03 -4.57083688E-04
  2.39329640E-03 -4.53722372E-09  4.35028616E-04  1.12428630E-04  6.81802120E-04
  1.24476108E-04 -1.19740376E-09  1.30526706E-09 -7.28718570E-05 -4.32858877E-04
  6.17113588E-05  3.51780132E-05  2.50765691E-10  2.38838540E-03 -5.35161155E-04