12566                                                                   
Freq      RMP2-FC                                                     6-31G(d)            
Number of atoms                            I               25
Info1-9                                    I   N=           9
          37          35        1002           0           0         100
           6           2           1
Charge                                     I                0
Multiplicity                               I                1
Number of electrons                        I               90
Number of alpha electrons                  I               45
Number of beta electrons                   I               45
Number of basis functions                  I              219
Number of independent functions            I              219
Number of point charges in /Mol/           I                0
Number of translation vectors              I                0
Atomic numbers                             I   N=          25
           6           6           6           6           6           6
           6           6           6           6           6           6
           6           1           1           1           1           1
           1           1           1           1           1           1
           1
Nuclear charges                            R   N=          25
  6.00000000E+00  6.00000000E+00  6.00000000E+00  6.00000000E+00  6.00000000E+00
  6.00000000E+00  6.00000000E+00  6.00000000E+00  6.00000000E+00  6.00000000E+00
  6.00000000E+00  6.00000000E+00  6.00000000E+00  1.00000000E+00  1.00000000E+00
  1.00000000E+00  1.00000000E+00  1.00000000E+00  1.00000000E+00  1.00000000E+00
  1.00000000E+00  1.00000000E+00  1.00000000E+00  1.00000000E+00  1.00000000E+00
Current cartesian coordinates              R   N=          75
 -5.03394783E-01  1.69831420E-03 -2.63839107E-03  2.28776701E+00  2.09401268E-04
  1.44049498E-04 -5.85969613E+00  1.06304613E-02 -2.59243072E-02 -1.86250619E+00
 -2.10514896E+00 -8.66796727E-01 -1.86291120E+00  2.11431857E+00  8.46571736E-01
 -4.49679626E+00 -2.09731710E+00 -8.67006745E-01 -4.49712487E+00  2.11144019E+00
  8.33354785E-01  3.63631193E+00 -2.11827489E+00  8.55869374E-01  3.64252254E+00
  2.11633562E+00 -8.51493594E-01 -8.70573732E+00 -1.48876767E-02  3.74558955E-02
  6.27250998E+00 -2.12179101E+00  8.54682479E-01  6.27874729E+00  2.11521904E+00
 -8.42135394E-01  7.60246701E+00 -4.36489538E-03  8.41643177E-03 -8.42905732E-01
 -3.73804414E+00 -1.59094680E+00 -8.43875741E-01  3.74940694E+00  1.56659570E+00
 -5.51306188E+00 -3.74451666E+00 -1.56763823E+00 -5.51379757E+00  3.76931413E+00
  1.50782222E+00  2.60518665E+00 -3.74823852E+00  1.56908143E+00  2.61656752E+00
  3.74787368E+00 -1.56846386E+00 -9.47260973E+00  1.88782740E+00 -2.15562892E-01
 -9.47170636E+00 -1.21957297E+00 -1.45734315E+00 -9.40731504E+00 -7.37958517E-01
  1.84630622E+00  7.29106515E+00 -3.77213048E+00  1.53571720E+00  7.30223802E+00
  3.76375247E+00 -1.52013636E+00  9.65726064E+00 -6.11559465E-03  1.15709503E-02
Force Field                                I                0
Int Atom Types                             I   N=          25
           0           0           0           0           0           0
           0           0           0           0           0           0
           0           0           0           0           0           0
           0           0           0           0           0           0
           0
MM charges                                 R   N=          25
  0.00000000E+00  0.00000000E+00  0.00000000E+00  0.00000000E+00  0.00000000E+00
  0.00000000E+00  0.00000000E+00  0.00000000E+00  0.00000000E+00  0.00000000E+00
  0.00000000E+00  0.00000000E+00  0.00000000E+00  0.00000000E+00  0.00000000E+00
  0.00000000E+00  0.00000000E+00  0.00000000E+00  0.00000000E+00  0.00000000E+00
  0.00000000E+00  0.00000000E+00  0.00000000E+00  0.00000000E+00  0.00000000E+00
Integer atomic weights                     I   N=          25
          12          12          12          12          12          12
          12          12          12          12          12          12
          12           1           1           1           1           1
           1           1           1           1           1           1
           1
Real atomic weights                        R   N=          25
  1.20000000E+01  1.20000000E+01  1.20000000E+01  1.20000000E+01  1.20000000E+01
  1.20000000E+01  1.20000000E+01  1.20000000E+01  1.20000000E+01  1.20000000E+01
  1.20000000E+01  1.20000000E+01  1.20000000E+01  1.00782504E+00  1.00782504E+00
  1.00782504E+00  1.00782504E+00  1.00782504E+00  1.00782504E+00  1.00782504E+00
  1.00782504E+00  1.00782504E+00  1.00782504E+00  1.00782504E+00  1.00782504E+00
Atom fragment info                         I   N=          25
           0           0           0           0           0           0
           0           0           0           0           0           0
           0           0           0           0           0           0
           0           0           0           0           0           0
           0
Atom residue num                           I   N=          25
           0           0           0           0           0           0
           0           0           0           0           0           0
           0           0           0           0           0           0
           0           0           0           0           0           0
           0
Nuclear spins                              I   N=          25
           0           0           0           0           0           0
           0           0           0           0           0           0
           0           1           1           1           1           1
           1           1           1           1           1           1
           1
Nuclear ZEff                               R   N=          25
 -3.60000000E+00 -3.60000000E+00 -3.60000000E+00 -3.60000000E+00 -3.60000000E+00
 -3.60000000E+00 -3.60000000E+00 -3.60000000E+00 -3.60000000E+00 -3.60000000E+00
 -3.60000000E+00 -3.60000000E+00 -3.60000000E+00 -1.00000000E+00 -1.00000000E+00
 -1.00000000E+00 -1.00000000E+00 -1.00000000E+00 -1.00000000E+00 -1.00000000E+00
 -1.00000000E+00 -1.00000000E+00 -1.00000000E+00 -1.00000000E+00 -1.00000000E+00
Nuclear QMom                               R   N=          25
  0.00000000E+00  0.00000000E+00  0.00000000E+00  0.00000000E+00  0.00000000E+00
  0.00000000E+00  0.00000000E+00  0.00000000E+00  0.00000000E+00  0.00000000E+00
  0.00000000E+00  0.00000000E+00  0.00000000E+00  0.00000000E+00  0.00000000E+00
  0.00000000E+00  0.00000000E+00  0.00000000E+00  0.00000000E+00  0.00000000E+00
  0.00000000E+00  0.00000000E+00  0.00000000E+00  0.00000000E+00  0.00000000E+00
Nuclear GFac                               R   N=          25
  0.00000000E+00  0.00000000E+00  0.00000000E+00  0.00000000E+00  0.00000000E+00
  0.00000000E+00  0.00000000E+00  0.00000000E+00  0.00000000E+00  0.00000000E+00
  0.00000000E+00  0.00000000E+00  0.00000000E+00  2.79284600E+00  2.79284600E+00
  2.79284600E+00  2.79284600E+00  2.79284600E+00  2.79284600E+00  2.79284600E+00
  2.79284600E+00  2.79284600E+00  2.79284600E+00  2.79284600E+00  2.79284600E+00
MicOpt                                     I   N=          25
          -1          -1          -1          -1          -1          -1
          -1          -1          -1          -1          -1          -1
          -1          -1          -1          -1          -1          -1
          -1          -1          -1          -1          -1          -1
          -1
Number of contracted shells                I               76
Number of primitive shells                 I              191
Pure/Cartesian d shells                    I                1
Pure/Cartesian f shells                    I                0
Highest angular momentum                   I                2
Largest degree of contraction              I                6
Shell types                                I   N=          76
           0          -1          -1           2           0          -1
          -1           2           0          -1          -1           2
           0          -1          -1           2           0          -1
          -1           2           0          -1          -1           2
           0          -1          -1           2           0          -1
          -1           2           0          -1          -1           2
           0          -1          -1           2           0          -1
          -1           2           0          -1          -1           2
           0          -1          -1           2           0           0
           0           0           0           0           0           0
           0           0           0           0           0           0
           0           0           0           0           0           0
           0           0           0           0
Number of primitives per shell             I   N=          76
           6           3           1           1           6           3
           1           1           6           3           1           1
           6           3           1           1           6           3
           1           1           6           3           1           1
           6           3           1           1           6           3
           1           1           6           3           1           1
           6           3           1           1           6           3
           1           1           6           3           1           1
           6           3           1           1           3           1
           3           1           3           1           3           1
           3           1           3           1           3           1
           3           1           3           1           3           1
           3           1           3           1
Shell to atom map                          I   N=          76
           1           1           1           1           2           2
           2           2           3           3           3           3
           4           4           4           4           5           5
           5           5           6           6           6           6
           7           7           7           7           8           8
           8           8           9           9           9           9
          10          10          10          10          11          11
          11          11          12          12          12          12
          13          13          13          13          14          14
          15          15          16          16          17          17
          18          18          19          19          20          20
          21          21          22          22          23          23
          24          24          25          25
Primitive exponents                        R   N=         191
  3.04752488E+03  4.57369518E+02  1.03948685E+02  2.92101553E+01  9.28666296E+00
  3.16392696E+00  7.86827235E+00  1.88128854E+00  5.44249258E-01  1.68714478E-01
  8.00000000E-01  3.04752488E+03  4.57369518E+02  1.03948685E+02  2.92101553E+01
  9.28666296E+00  3.16392696E+00  7.86827235E+00  1.88128854E+00  5.44249258E-01
  1.68714478E-01  8.00000000E-01  3.04752488E+03  4.57369518E+02  1.03948685E+02
  2.92101553E+01  9.28666296E+00  3.16392696E+00  7.86827235E+00  1.88128854E+00
  5.44249258E-01  1.68714478E-01  8.00000000E-01  3.04752488E+03  4.57369518E+02
  1.03948685E+02  2.92101553E+01  9.28666296E+00  3.16392696E+00  7.86827235E+00
  1.88128854E+00  5.44249258E-01  1.68714478E-01  8.00000000E-01  3.04752488E+03
  4.57369518E+02  1.03948685E+02  2.92101553E+01  9.28666296E+00  3.16392696E+00
  7.86827235E+00  1.88128854E+00  5.44249258E-01  1.68714478E-01  8.00000000E-01
  3.04752488E+03  4.57369518E+02  1.03948685E+02  2.92101553E+01  9.28666296E+00
  3.16392696E+00  7.86827235E+00  1.88128854E+00  5.44249258E-01  1.68714478E-01
  8.00000000E-01  3.04752488E+03  4.57369518E+02  1.03948685E+02  2.92101553E+01
  9.28666296E+00  3.16392696E+00  7.86827235E+00  1.88128854E+00  5.44249258E-01
  1.68714478E-01  8.00000000E-01  3.04752488E+03  4.57369518E+02  1.03948685E+02
  2.92101553E+01  9.28666296E+00  3.16392696E+00  7.86827235E+00  1.88128854E+00
  5.44249258E-01  1.68714478E-01  8.00000000E-01  3.04752488E+03  4.57369518E+02
  1.03948685E+02  2.92101553E+01  9.28666296E+00  3.16392696E+00  7.86827235E+00
  1.88128854E+00  5.44249258E-01  1.68714478E-01  8.00000000E-01  3.04752488E+03
  4.57369518E+02  1.03948685E+02  2.92101553E+01  9.28666296E+00  3.16392696E+00
  7.86827235E+00  1.88128854E+00  5.44249258E-01  1.68714478E-01  8.00000000E-01
  3.04752488E+03  4.57369518E+02  1.03948685E+02  2.92101553E+01  9.28666296E+00
  3.16392696E+00  7.86827235E+00  1.88128854E+00  5.44249258E-01  1.68714478E-01
  8.00000000E-01  3.04752488E+03  4.57369518E+02  1.03948685E+02  2.92101553E+01
  9.28666296E+00  3.16392696E+00  7.86827235E+00  1.88128854E+00  5.44249258E-01
  1.68714478E-01  8.00000000E-01  3.04752488E+03  4.57369518E+02  1.03948685E+02
  2.92101553E+01  9.28666296E+00  3.16392696E+00  7.86827235E+00  1.88128854E+00
  5.44249258E-01  1.68714478E-01  8.00000000E-01  1.87311370E+01  2.82539436E+00
  6.40121692E-01  1.61277759E-01  1.87311370E+01  2.82539436E+00  6.40121692E-01
  1.61277759E-01  1.87311370E+01  2.82539436E+00  6.40121692E-01  1.61277759E-01
  1.87311370E+01  2.82539436E+00  6.40121692E-01  1.61277759E-01  1.87311370E+01
  2.82539436E+00  6.40121692E-01  1.61277759E-01  1.87311370E+01  2.82539436E+00
  6.40121692E-01  1.61277759E-01  1.87311370E+01  2.82539436E+00  6.40121692E-01
  1.61277759E-01  1.87311370E+01  2.82539436E+00  6.40121692E-01  1.61277759E-01
  1.87311370E+01  2.82539436E+00  6.40121692E-01  1.61277759E-01  1.87311370E+01
  2.82539436E+00  6.40121692E-01  1.61277759E-01  1.87311370E+01  2.82539436E+00
  6.40121692E-01  1.61277759E-01  1.87311370E+01  2.82539436E+00  6.40121692E-01
  1.61277759E-01
Contraction coefficients                   R   N=         191
  1.83473713E-03  1.40373228E-02  6.88426223E-02  2.32184443E-01  4.67941348E-01
  3.62311985E-01 -1.19332420E-01 -1.60854152E-01  1.14345644E+00  1.00000000E+00
  1.00000000E+00  1.83473713E-03  1.40373228E-02  6.88426223E-02  2.32184443E-01
  4.67941348E-01  3.62311985E-01 -1.19332420E-01 -1.60854152E-01  1.14345644E+00
  1.00000000E+00  1.00000000E+00  1.83473713E-03  1.40373228E-02  6.88426223E-02
  2.32184443E-01  4.67941348E-01  3.62311985E-01 -1.19332420E-01 -1.60854152E-01
  1.14345644E+00  1.00000000E+00  1.00000000E+00  1.83473713E-03  1.40373228E-02
  6.88426223E-02  2.32184443E-01  4.67941348E-01  3.62311985E-01 -1.19332420E-01
 -1.60854152E-01  1.14345644E+00  1.00000000E+00  1.00000000E+00  1.83473713E-03
  1.40373228E-02  6.88426223E-02  2.32184443E-01  4.67941348E-01  3.62311985E-01
 -1.19332420E-01 -1.60854152E-01  1.14345644E+00  1.00000000E+00  1.00000000E+00
  1.83473713E-03  1.40373228E-02  6.88426223E-02  2.32184443E-01  4.67941348E-01
  3.62311985E-01 -1.19332420E-01 -1.60854152E-01  1.14345644E+00  1.00000000E+00
  1.00000000E+00  1.83473713E-03  1.40373228E-02  6.88426223E-02  2.32184443E-01
  4.67941348E-01  3.62311985E-01 -1.19332420E-01 -1.60854152E-01  1.14345644E+00
  1.00000000E+00  1.00000000E+00  1.83473713E-03  1.40373228E-02  6.88426223E-02
  2.32184443E-01  4.67941348E-01  3.62311985E-01 -1.19332420E-01 -1.60854152E-01
  1.14345644E+00  1.00000000E+00  1.00000000E+00  1.83473713E-03  1.40373228E-02
  6.88426223E-02  2.32184443E-01  4.67941348E-01  3.62311985E-01 -1.19332420E-01
 -1.60854152E-01  1.14345644E+00  1.00000000E+00  1.00000000E+00  1.83473713E-03
  1.40373228E-02  6.88426223E-02  2.32184443E-01  4.67941348E-01  3.62311985E-01
 -1.19332420E-01 -1.60854152E-01  1.14345644E+00  1.00000000E+00  1.00000000E+00
  1.83473713E-03  1.40373228E-02  6.88426223E-02  2.32184443E-01  4.67941348E-01
  3.62311985E-01 -1.19332420E-01 -1.60854152E-01  1.14345644E+00  1.00000000E+00
  1.00000000E+00  1.83473713E-03  1.40373228E-02  6.88426223E-02  2.32184443E-01
  4.67941348E-01  3.62311985E-01 -1.19332420E-01 -1.60854152E-01  1.14345644E+00
  1.00000000E+00  1.00000000E+00  1.83473713E-03  1.40373228E-02  6.88426223E-02
  2.32184443E-01  4.67941348E-01  3.62311985E-01 -1.19332420E-01 -1.60854152E-01
  1.14345644E+00  1.00000000E+00  1.00000000E+00  3.34946043E-02  2.34726953E-01
  8.13757326E-01  1.00000000E+00  3.34946043E-02  2.34726953E-01  8.13757326E-01
  1.00000000E+00  3.34946043E-02  2.34726953E-01  8.13757326E-01  1.00000000E+00
  3.34946043E-02  2.34726953E-01  8.13757326E-01  1.00000000E+00  3.34946043E-02
  2.34726953E-01  8.13757326E-01  1.00000000E+00  3.34946043E-02  2.34726953E-01
  8.13757326E-01  1.00000000E+00  3.34946043E-02  2.34726953E-01  8.13757326E-01
  1.00000000E+00  3.34946043E-02  2.34726953E-01  8.13757326E-01  1.00000000E+00
  3.34946043E-02  2.34726953E-01  8.13757326E-01  1.00000000E+00  3.34946043E-02
  2.34726953E-01  8.13757326E-01  1.00000000E+00  3.34946043E-02  2.34726953E-01
  8.13757326E-01  1.00000000E+00  3.34946043E-02  2.34726953E-01  8.13757326E-01
  1.00000000E+00
P(S=P) Contraction coefficients            R   N=         191
  0.00000000E+00  0.00000000E+00  0.00000000E+00  0.00000000E+00  0.00000000E+00
  0.00000000E+00  6.89990666E-02  3.16423961E-01  7.44308291E-01  1.00000000E+00
  0.00000000E+00  0.00000000E+00  0.00000000E+00  0.00000000E+00  0.00000000E+00
  0.00000000E+00  0.00000000E+00  6.89990666E-02  3.16423961E-01  7.44308291E-01
  1.00000000E+00  0.00000000E+00  0.00000000E+00  0.00000000E+00  0.00000000E+00
  0.00000000E+00  0.00000000E+00  0.00000000E+00  6.89990666E-02  3.16423961E-01
  7.44308291E-01  1.00000000E+00  0.00000000E+00  0.00000000E+00  0.00000000E+00
  0.00000000E+00  0.00000000E+00  0.00000000E+00  0.00000000E+00  6.89990666E-02
  3.16423961E-01  7.44308291E-01  1.00000000E+00  0.00000000E+00  0.00000000E+00
  0.00000000E+00  0.00000000E+00  0.00000000E+00  0.00000000E+00  0.00000000E+00
  6.89990666E-02  3.16423961E-01  7.44308291E-01  1.00000000E+00  0.00000000E+00
  0.00000000E+00  0.00000000E+00  0.00000000E+00  0.00000000E+00  0.00000000E+00
  0.00000000E+00  6.89990666E-02  3.16423961E-01  7.44308291E-01  1.00000000E+00
  0.00000000E+00  0.00000000E+00  0.00000000E+00  0.00000000E+00  0.00000000E+00
  0.00000000E+00  0.00000000E+00  6.89990666E-02  3.16423961E-01  7.44308291E-01
  1.00000000E+00  0.00000000E+00  0.00000000E+00  0.00000000E+00  0.00000000E+00
  0.00000000E+00  0.00000000E+00  0.00000000E+00  6.89990666E-02  3.16423961E-01
  7.44308291E-01  1.00000000E+00  0.00000000E+00  0.00000000E+00  0.00000000E+00
  0.00000000E+00  0.00000000E+00  0.00000000E+00  0.00000000E+00  6.89990666E-02
  3.16423961E-01  7.44308291E-01  1.00000000E+00  0.00000000E+00  0.00000000E+00
  0.00000000E+00  0.00000000E+00  0.00000000E+00  0.00000000E+00  0.00000000E+00
  6.89990666E-02  3.16423961E-01  7.44308291E-01  1.00000000E+00  0.00000000E+00
  0.00000000E+00  0.00000000E+00  0.00000000E+00  0.00000000E+00  0.00000000E+00
  0.00000000E+00  6.89990666E-02  3.16423961E-01  7.44308291E-01  1.00000000E+00
  0.00000000E+00  0.00000000E+00  0.00000000E+00  0.00000000E+00  0.00000000E+00
  0.00000000E+00  0.00000000E+00  6.89990666E-02  3.16423961E-01  7.44308291E-01
  1.00000000E+00  0.00000000E+00  0.00000000E+00  0.00000000E+00  0.00000000E+00
  0.00000000E+00  0.00000000E+00  0.00000000E+00  6.89990666E-02  3.16423961E-01
  7.44308291E-01  1.00000000E+00  0.00000000E+00  0.00000000E+00  0.00000000E+00
  0.00000000E+00  0.00000000E+00  0.00000000E+00  0.00000000E+00  0.00000000E+00
  0.00000000E+00  0.00000000E+00  0.00000000E+00  0.00000000E+00  0.00000000E+00
  0.00000000E+00  0.00000000E+00  0.00000000E+00  0.00000000E+00  0.00000000E+00
  0.00000000E+00  0.00000000E+00  0.00000000E+00  0.00000000E+00  0.00000000E+00
  0.00000000E+00  0.00000000E+00  0.00000000E+00  0.00000000E+00  0.00000000E+00
  0.00000000E+00  0.00000000E+00  0.00000000E+00  0.00000000E+00  0.00000000E+00
  0.00000000E+00  0.00000000E+00  0.00000000E+00  0.00000000E+00  0.00000000E+00
  0.00000000E+00  0.00000000E+00  0.00000000E+00  0.00000000E+00  0.00000000E+00
  0.00000000E+00  0.00000000E+00  0.00000000E+00  0.00000000E+00  0.00000000E+00
  0.00000000E+00
Coordinates of each shell                  R   N=         228
 -5.03394783E-01  1.69831420E-03 -2.63839107E-03 -5.03394783E-01  1.69831420E-03
 -2.63839107E-03 -5.03394783E-01  1.69831420E-03 -2.63839107E-03 -5.03394783E-01
  1.69831420E-03 -2.63839107E-03  2.28776701E+00  2.09401268E-04  1.44049498E-04
  2.28776701E+00  2.09401268E-04  1.44049498E-04  2.28776701E+00  2.09401268E-04
  1.44049498E-04  2.28776701E+00  2.09401268E-04  1.44049498E-04 -5.85969613E+00
  1.06304613E-02 -2.59243072E-02 -5.85969613E+00  1.06304613E-02 -2.59243072E-02
 -5.85969613E+00  1.06304613E-02 -2.59243072E-02 -5.85969613E+00  1.06304613E-02
 -2.59243072E-02 -1.86250619E+00 -2.10514896E+00 -8.66796727E-01 -1.86250619E+00
 -2.10514896E+00 -8.66796727E-01 -1.86250619E+00 -2.10514896E+00 -8.66796727E-01
 -1.86250619E+00 -2.10514896E+00 -8.66796727E-01 -1.86291120E+00  2.11431857E+00
  8.46571736E-01 -1.86291120E+00  2.11431857E+00  8.46571736E-01 -1.86291120E+00
  2.11431857E+00  8.46571736E-01 -1.86291120E+00  2.11431857E+00  8.46571736E-01
 -4.49679626E+00 -2.09731710E+00 -8.67006745E-01 -4.49679626E+00 -2.09731710E+00
 -8.67006745E-01 -4.49679626E+00 -2.09731710E+00 -8.67006745E-01 -4.49679626E+00
 -2.09731710E+00 -8.67006745E-01 -4.49712487E+00  2.11144019E+00  8.33354785E-01
 -4.49712487E+00  2.11144019E+00  8.33354785E-01 -4.49712487E+00  2.11144019E+00
  8.33354785E-01 -4.49712487E+00  2.11144019E+00  8.33354785E-01  3.63631193E+00
 -2.11827489E+00  8.55869374E-01  3.63631193E+00 -2.11827489E+00  8.55869374E-01
  3.63631193E+00 -2.11827489E+00  8.55869374E-01  3.63631193E+00 -2.11827489E+00
  8.55869374E-01  3.64252254E+00  2.11633562E+00 -8.51493594E-01  3.64252254E+00
  2.11633562E+00 -8.51493594E-01  3.64252254E+00  2.11633562E+00 -8.51493594E-01
  3.64252254E+00  2.11633562E+00 -8.51493594E-01 -8.70573732E+00 -1.48876767E-02
  3.74558955E-02 -8.70573732E+00 -1.48876767E-02  3.74558955E-02 -8.70573732E+00
 -1.48876767E-02  3.74558955E-02 -8.70573732E+00 -1.48876767E-02  3.74558955E-02
  6.27250998E+00 -2.12179101E+00  8.54682479E-01  6.27250998E+00 -2.12179101E+00
  8.54682479E-01  6.27250998E+00 -2.12179101E+00  8.54682479E-01  6.27250998E+00
 -2.12179101E+00  8.54682479E-01  6.27874729E+00  2.11521904E+00 -8.42135394E-01
  6.27874729E+00  2.11521904E+00 -8.42135394E-01  6.27874729E+00  2.11521904E+00
 -8.42135394E-01  6.27874729E+00  2.11521904E+00 -8.42135394E-01  7.60246701E+00
 -4.36489538E-03  8.41643177E-03  7.60246701E+00 -4.36489538E-03  8.41643177E-03
  7.60246701E+00 -4.36489538E-03  8.41643177E-03  7.60246701E+00 -4.36489538E-03
  8.41643177E-03 -8.42905732E-01 -3.73804414E+00 -1.59094680E+00 -8.42905732E-01
 -3.73804414E+00 -1.59094680E+00 -8.43875741E-01  3.74940694E+00  1.56659570E+00
 -8.43875741E-01  3.74940694E+00  1.56659570E+00 -5.51306188E+00 -3.74451666E+00
 -1.56763823E+00 -5.51306188E+00 -3.74451666E+00 -1.56763823E+00 -5.51379757E+00
  3.76931413E+00  1.50782222E+00 -5.51379757E+00  3.76931413E+00  1.50782222E+00
  2.60518665E+00 -3.74823852E+00  1.56908143E+00  2.60518665E+00 -3.74823852E+00
  1.56908143E+00  2.61656752E+00  3.74787368E+00 -1.56846386E+00  2.61656752E+00
  3.74787368E+00 -1.56846386E+00 -9.47260973E+00  1.88782740E+00 -2.15562892E-01
 -9.47260973E+00  1.88782740E+00 -2.15562892E-01 -9.47170636E+00 -1.21957297E+00
 -1.45734315E+00 -9.47170636E+00 -1.21957297E+00 -1.45734315E+00 -9.40731504E+00
 -7.37958517E-01  1.84630622E+00 -9.40731504E+00 -7.37958517E-01  1.84630622E+00
  7.29106515E+00 -3.77213048E+00  1.53571720E+00  7.29106515E+00 -3.77213048E+00
  1.53571720E+00  7.30223802E+00  3.76375247E+00 -1.52013636E+00  7.30223802E+00
  3.76375247E+00 -1.52013636E+00  9.65726064E+00 -6.11559465E-03  1.15709503E-02
  9.65726064E+00 -6.11559465E-03  1.15709503E-02
Constraint Structure                       R   N=          75
 -5.03394783E-01  1.69831420E-03 -2.63839107E-03  2.28776701E+00  2.09401268E-04
  1.44049498E-04 -5.85969613E+00  1.06304613E-02 -2.59243072E-02 -1.86250619E+00
 -2.10514896E+00 -8.66796727E-01 -1.86291120E+00  2.11431857E+00  8.46571736E-01
 -4.49679626E+00 -2.09731710E+00 -8.67006745E-01 -4.49712487E+00  2.11144019E+00
  8.33354785E-01  3.63631193E+00 -2.11827489E+00  8.55869374E-01  3.64252254E+00
  2.11633562E+00 -8.51493594E-01 -8.70573732E+00 -1.48876767E-02  3.74558955E-02
  6.27250998E+00 -2.12179101E+00  8.54682479E-01  6.27874729E+00  2.11521904E+00
 -8.42135394E-01  7.60246701E+00 -4.36489538E-03  8.41643177E-03 -8.42905732E-01
 -3.73804414E+00 -1.59094680E+00 -8.43875741E-01  3.74940694E+00  1.56659570E+00
 -5.51306188E+00 -3.74451666E+00 -1.56763823E+00 -5.51379757E+00  3.76931413E+00
  1.50782222E+00  2.60518665E+00 -3.74823852E+00  1.56908143E+00  2.61656752E+00
  3.74787368E+00 -1.56846386E+00 -9.47260973E+00  1.88782740E+00 -2.15562892E-01
 -9.47170636E+00 -1.21957297E+00 -1.45734315E+00 -9.40731504E+00 -7.37958517E-01
  1.84630622E+00  7.29106515E+00 -3.77213048E+00  1.53571720E+00  7.30223802E+00
  3.76375247E+00 -1.52013636E+00  9.65726064E+00 -6.11559465E-03  1.15709503E-02
Num ILSW                                   I              100
ILSW                                       I   N=         100
           0           1           0           0           2           0
           0           0           0           0           0          -1
           0           0           0           0           0           0
           0           0           0           0           1           0
           1           0           0           0           0           0
           0           0      100000           0          -1           0
           0           0           0           0           0           0
           0           0           0           1           1           0
           0           0           1           0           0           0
           0           0           4          40           0           0
           0           0           0           0           0           0
           0           0           0           0           0           0
           0           0           0           0           0           0
           0           0           0           0           0           0
           0           0           0           0           0           0
           0           0           0           0           0           0
           0           0           0           0
Num RLSW                                   I               40
RLSW                                       R   N=          40
  1.00000000E+00  1.00000000E+00  1.00000000E+00  1.00000000E+00  1.00000000E+00
  0.00000000E+00  0.00000000E+00  1.00000000E+00  0.00000000E+00  0.00000000E+00
  0.00000000E+00  0.00000000E+00  1.00000000E+00  0.00000000E+00  0.00000000E+00
  0.00000000E+00  0.00000000E+00  1.00000000E+00  0.00000000E+00  0.00000000E+00
  0.00000000E+00  0.00000000E+00  1.00000000E+00  0.00000000E+00  0.00000000E+00
  0.00000000E+00  0.00000000E+00  1.00000000E+00  0.00000000E+00  0.00000000E+00
  0.00000000E+00  0.00000000E+00  0.00000000E+00  0.00000000E+00  0.00000000E+00
  0.00000000E+00  0.00000000E+00  0.00000000E+00  1.00000000E+00  1.00000000E+00
MxBond                                     I                4
NBond                                      I   N=          25
           3           3           3           3           3           3
           3           3           3           4           3           3
           3           1           1           1           1           1
           1           1           1           1           1           1
           1
IBond                                      I   N=         100
           2           4           5           0           1           8
           9           0           6           7          10           0
           1           6          14           0           1           7
          15           0           3           4          16           0
           3           5          17           0           2          11
          18           0           2          12          19           0
           3          20          21          22           8          13
          23           0           9          13          24           0
          11          12          25           0           4           0
           0           0           5           0           0           0
           6           0           0           0           7           0
           0           0           8           0           0           0
           9           0           0           0          10           0
           0           0          10           0           0           0
          10           0           0           0          11           0
           0           0          12           0           0           0
          13           0           0           0
RBond                                      R   N=         100
  1.00000000E+00  1.50000000E+00  1.50000000E+00  0.00000000E+00  1.00000000E+00
  1.50000000E+00  1.50000000E+00  0.00000000E+00  1.50000000E+00  1.50000000E+00
  1.00000000E+00  0.00000000E+00  1.50000000E+00  1.50000000E+00  1.00000000E+00
  0.00000000E+00  1.50000000E+00  1.50000000E+00  1.00000000E+00  0.00000000E+00
  1.50000000E+00  1.50000000E+00  1.00000000E+00  0.00000000E+00  1.50000000E+00
  1.50000000E+00  1.00000000E+00  0.00000000E+00  1.50000000E+00  1.50000000E+00
  1.00000000E+00  0.00000000E+00  1.50000000E+00  1.50000000E+00  1.00000000E+00