opt=Tight                                                               
Freq      RMP2-FC                                                     6-31G(d)            
Number of atoms                            I               16
Info1-9                                    I   N=           9
          25          25        1002           0           0         100
           6           2           1
Charge                                     I                0
Multiplicity                               I                1
Number of electrons                        I               58
Number of alpha electrons                  I               29
Number of beta electrons                   I               29
Number of basis functions                  I              136
Number of independent functions            I              136
Number of point charges in /Mol/           I                0
Number of translation vectors              I                0
Atomic numbers                             I   N=          16
           6           6           6           6           6           6
           6           8           1           1           1           1
           1           1           1           1
Nuclear charges                            R   N=          16
  6.00000000E+00  6.00000000E+00  6.00000000E+00  6.00000000E+00  6.00000000E+00
  6.00000000E+00  6.00000000E+00  8.00000000E+00  1.00000000E+00  1.00000000E+00
  1.00000000E+00  1.00000000E+00  1.00000000E+00  1.00000000E+00  1.00000000E+00
  1.00000000E+00
Current cartesian coordinates              R   N=          48
 -5.45355876E+00  2.62993186E-02  3.03773476E-02  2.71509993E+00 -2.82986488E-02
  8.14094018E-03  1.41088087E+00  2.26510511E+00 -5.81468731E-03  1.37657667E+00
 -2.30424512E+00 -5.10226056E-03 -1.22798562E+00  2.26857843E+00 -1.69187181E-02
 -1.25420368E+00 -2.26515991E+00 -1.70906831E-02 -2.60654272E+00  1.38592515E-02
 -3.12787470E-02  5.31045925E+00 -1.83050212E-01  1.73193400E-02  2.44469712E+00
  4.04591499E+00 -6.43073803E-03  5.98967406E+00  1.52615605E+00  2.28637965E-02
  2.42341503E+00 -4.07057780E+00 -4.64683656E-03 -2.22367854E+00  4.06915295E+00
 -3.32308340E-02 -2.27912877E+00 -4.04956783E+00 -3.37221628E-02 -6.22798742E+00
 -1.54289336E+00 -1.07039001E+00 -6.20527481E+00  1.78542648E+00 -7.52167693E-01
 -6.16698328E+00 -1.56030907E-01  1.96530573E+00
Force Field                                I                0
Int Atom Types                             I   N=          16
           0           0           0           0           0           0
           0           0           0           0           0           0
           0           0           0           0
MM charges                                 R   N=          16
  0.00000000E+00  0.00000000E+00  0.00000000E+00  0.00000000E+00  0.00000000E+00
  0.00000000E+00  0.00000000E+00  0.00000000E+00  0.00000000E+00  0.00000000E+00
  0.00000000E+00  0.00000000E+00  0.00000000E+00  0.00000000E+00  0.00000000E+00
  0.00000000E+00
Integer atomic weights                     I   N=          16
          12          12          12          12          12          12
          12          16           1           1           1           1
           1           1           1           1
Real atomic weights                        R   N=          16
  1.20000000E+01  1.20000000E+01  1.20000000E+01  1.20000000E+01  1.20000000E+01
  1.20000000E+01  1.20000000E+01  1.59949146E+01  1.00782504E+00  1.00782504E+00
  1.00782504E+00  1.00782504E+00  1.00782504E+00  1.00782504E+00  1.00782504E+00
  1.00782504E+00
Atom fragment info                         I   N=          16
           0           0           0           0           0           0
           0           0           0           0           0           0
           0           0           0           0
Atom residue num                           I   N=          16
           0           0           0           0           0           0
           0           0           0           0           0           0
           0           0           0           0
Nuclear spins                              I   N=          16
           0           0           0           0           0           0
           0           0           1           1           1           1
           1           1           1           1
Nuclear ZEff                               R   N=          16
 -3.60000000E+00 -3.60000000E+00 -3.60000000E+00 -3.60000000E+00 -3.60000000E+00
 -3.60000000E+00 -3.60000000E+00 -5.60000000E+00 -1.00000000E+00 -1.00000000E+00
 -1.00000000E+00 -1.00000000E+00 -1.00000000E+00 -1.00000000E+00 -1.00000000E+00
 -1.00000000E+00
Nuclear QMom                               R   N=          16
  0.00000000E+00  0.00000000E+00  0.00000000E+00  0.00000000E+00  0.00000000E+00
  0.00000000E+00  0.00000000E+00  0.00000000E+00  0.00000000E+00  0.00000000E+00
  0.00000000E+00  0.00000000E+00  0.00000000E+00  0.00000000E+00  0.00000000E+00
  0.00000000E+00
Nuclear GFac                               R   N=          16
  0.00000000E+00  0.00000000E+00  0.00000000E+00  0.00000000E+00  0.00000000E+00
  0.00000000E+00  0.00000000E+00  0.00000000E+00  2.79284600E+00  2.79284600E+00
  2.79284600E+00  2.79284600E+00  2.79284600E+00  2.79284600E+00  2.79284600E+00
  2.79284600E+00
MicOpt                                     I   N=          16
          -1          -1          -1          -1          -1          -1
          -1          -1          -1          -1          -1          -1
          -1          -1          -1          -1
Number of contracted shells                I               48
Number of primitive shells                 I              120
Pure/Cartesian d shells                    I                1
Pure/Cartesian f shells                    I                0
Highest angular momentum                   I                2
Largest degree of contraction              I                6
Shell types                                I   N=          48
           0          -1          -1           2           0          -1
          -1           2           0          -1          -1           2
           0          -1          -1           2           0          -1
          -1           2           0          -1          -1           2
           0          -1          -1           2           0          -1
          -1           2           0           0           0           0
           0           0           0           0           0           0
           0           0           0           0           0           0
Number of primitives per shell             I   N=          48
           6           3           1           1           6           3
           1           1           6           3           1           1
           6           3           1           1           6           3
           1           1           6           3           1           1
           6           3           1           1           6           3
           1           1           3           1           3           1
           3           1           3           1           3           1
           3           1           3           1           3           1
Shell to atom map                          I   N=          48
           1           1           1           1           2           2
           2           2           3           3           3           3
           4           4           4           4           5           5
           5           5           6           6           6           6
           7           7           7           7           8           8
           8           8           9           9          10          10
          11          11          12          12          13          13
          14          14          15          15          16          16
Primitive exponents                        R   N=         120
  3.04752488E+03  4.57369518E+02  1.03948685E+02  2.92101553E+01  9.28666296E+00
  3.16392696E+00  7.86827235E+00  1.88128854E+00  5.44249258E-01  1.68714478E-01
  8.00000000E-01  3.04752488E+03  4.57369518E+02  1.03948685E+02  2.92101553E+01
  9.28666296E+00  3.16392696E+00  7.86827235E+00  1.88128854E+00  5.44249258E-01
  1.68714478E-01  8.00000000E-01  3.04752488E+03  4.57369518E+02  1.03948685E+02
  2.92101553E+01  9.28666296E+00  3.16392696E+00  7.86827235E+00  1.88128854E+00
  5.44249258E-01  1.68714478E-01  8.00000000E-01  3.04752488E+03  4.57369518E+02
  1.03948685E+02  2.92101553E+01  9.28666296E+00  3.16392696E+00  7.86827235E+00
  1.88128854E+00  5.44249258E-01  1.68714478E-01  8.00000000E-01  3.04752488E+03
  4.57369518E+02  1.03948685E+02  2.92101553E+01  9.28666296E+00  3.16392696E+00
  7.86827235E+00  1.88128854E+00  5.44249258E-01  1.68714478E-01  8.00000000E-01
  3.04752488E+03  4.57369518E+02  1.03948685E+02  2.92101553E+01  9.28666296E+00
  3.16392696E+00  7.86827235E+00  1.88128854E+00  5.44249258E-01  1.68714478E-01
  8.00000000E-01  3.04752488E+03  4.57369518E+02  1.03948685E+02  2.92101553E+01
  9.28666296E+00  3.16392696E+00  7.86827235E+00  1.88128854E+00  5.44249258E-01
  1.68714478E-01  8.00000000E-01  5.48467166E+03  8.25234946E+02  1.88046958E+02
  5.29645000E+01  1.68975704E+01  5.79963534E+00  1.55396162E+01  3.59993359E+00
  1.01376175E+00  2.70005823E-01  8.00000000E-01  1.87311370E+01  2.82539436E+00
  6.40121692E-01  1.61277759E-01  1.87311370E+01  2.82539436E+00  6.40121692E-01
  1.61277759E-01  1.87311370E+01  2.82539436E+00  6.40121692E-01  1.61277759E-01
  1.87311370E+01  2.82539436E+00  6.40121692E-01  1.61277759E-01  1.87311370E+01
  2.82539436E+00  6.40121692E-01  1.61277759E-01  1.87311370E+01  2.82539436E+00
  6.40121692E-01  1.61277759E-01  1.87311370E+01  2.82539436E+00  6.40121692E-01
  1.61277759E-01  1.87311370E+01  2.82539436E+00  6.40121692E-01  1.61277759E-01
Contraction coefficients                   R   N=         120
  1.83473713E-03  1.40373228E-02  6.88426223E-02  2.32184443E-01  4.67941348E-01
  3.62311985E-01 -1.19332420E-01 -1.60854152E-01  1.14345644E+00  1.00000000E+00
  1.00000000E+00  1.83473713E-03  1.40373228E-02  6.88426223E-02  2.32184443E-01
  4.67941348E-01  3.62311985E-01 -1.19332420E-01 -1.60854152E-01  1.14345644E+00
  1.00000000E+00  1.00000000E+00  1.83473713E-03  1.40373228E-02  6.88426223E-02
  2.32184443E-01  4.67941348E-01  3.62311985E-01 -1.19332420E-01 -1.60854152E-01
  1.14345644E+00  1.00000000E+00  1.00000000E+00  1.83473713E-03  1.40373228E-02
  6.88426223E-02  2.32184443E-01  4.67941348E-01  3.62311985E-01 -1.19332420E-01
 -1.60854152E-01  1.14345644E+00  1.00000000E+00  1.00000000E+00  1.83473713E-03
  1.40373228E-02  6.88426223E-02  2.32184443E-01  4.67941348E-01  3.62311985E-01
 -1.19332420E-01 -1.60854152E-01  1.14345644E+00  1.00000000E+00  1.00000000E+00
  1.83473713E-03  1.40373228E-02  6.88426223E-02  2.32184443E-01  4.67941348E-01
  3.62311985E-01 -1.19332420E-01 -1.60854152E-01  1.14345644E+00  1.00000000E+00
  1.00000000E+00  1.83473713E-03  1.40373228E-02  6.88426223E-02  2.32184443E-01
  4.67941348E-01  3.62311985E-01 -1.19332420E-01 -1.60854152E-01  1.14345644E+00
  1.00000000E+00  1.00000000E+00  1.83107443E-03  1.39501722E-02  6.84450781E-02
  2.32714336E-01  4.70192898E-01  3.58520853E-01 -1.10777550E-01 -1.48026263E-01
  1.13076702E+00  1.00000000E+00  1.00000000E+00  3.34946043E-02  2.34726953E-01
  8.13757326E-01  1.00000000E+00  3.34946043E-02  2.34726953E-01  8.13757326E-01
  1.00000000E+00  3.34946043E-02  2.34726953E-01  8.13757326E-01  1.00000000E+00
  3.34946043E-02  2.34726953E-01  8.13757326E-01  1.00000000E+00  3.34946043E-02
  2.34726953E-01  8.13757326E-01  1.00000000E+00  3.34946043E-02  2.34726953E-01
  8.13757326E-01  1.00000000E+00  3.34946043E-02  2.34726953E-01  8.13757326E-01
  1.00000000E+00  3.34946043E-02  2.34726953E-01  8.13757326E-01  1.00000000E+00
P(S=P) Contraction coefficients            R   N=         120
  0.00000000E+00  0.00000000E+00  0.00000000E+00  0.00000000E+00  0.00000000E+00
  0.00000000E+00  6.89990666E-02  3.16423961E-01  7.44308291E-01  1.00000000E+00
  0.00000000E+00  0.00000000E+00  0.00000000E+00  0.00000000E+00  0.00000000E+00
  0.00000000E+00  0.00000000E+00  6.89990666E-02  3.16423961E-01  7.44308291E-01
  1.00000000E+00  0.00000000E+00  0.00000000E+00  0.00000000E+00  0.00000000E+00
  0.00000000E+00  0.00000000E+00  0.00000000E+00  6.89990666E-02  3.16423961E-01
  7.44308291E-01  1.00000000E+00  0.00000000E+00  0.00000000E+00  0.00000000E+00
  0.00000000E+00  0.00000000E+00  0.00000000E+00  0.00000000E+00  6.89990666E-02
  3.16423961E-01  7.44308291E-01  1.00000000E+00  0.00000000E+00  0.00000000E+00
  0.00000000E+00  0.00000000E+00  0.00000000E+00  0.00000000E+00  0.00000000E+00
  6.89990666E-02  3.16423961E-01  7.44308291E-01  1.00000000E+00  0.00000000E+00
  0.00000000E+00  0.00000000E+00  0.00000000E+00  0.00000000E+00  0.00000000E+00
  0.00000000E+00  6.89990666E-02  3.16423961E-01  7.44308291E-01  1.00000000E+00
  0.00000000E+00  0.00000000E+00  0.00000000E+00  0.00000000E+00  0.00000000E+00
  0.00000000E+00  0.00000000E+00  6.89990666E-02  3.16423961E-01  7.44308291E-01
  1.00000000E+00  0.00000000E+00  0.00000000E+00  0.00000000E+00  0.00000000E+00
  0.00000000E+00  0.00000000E+00  0.00000000E+00  7.08742682E-02  3.39752839E-01
  7.27158577E-01  1.00000000E+00  0.00000000E+00  0.00000000E+00  0.00000000E+00
  0.00000000E+00  0.00000000E+00  0.00000000E+00  0.00000000E+00  0.00000000E+00
  0.00000000E+00  0.00000000E+00  0.00000000E+00  0.00000000E+00  0.00000000E+00
  0.00000000E+00  0.00000000E+00  0.00000000E+00  0.00000000E+00  0.00000000E+00
  0.00000000E+00  0.00000000E+00  0.00000000E+00  0.00000000E+00  0.00000000E+00
  0.00000000E+00  0.00000000E+00  0.00000000E+00  0.00000000E+00  0.00000000E+00
  0.00000000E+00  0.00000000E+00  0.00000000E+00  0.00000000E+00  0.00000000E+00
Coordinates of each shell                  R   N=         144
 -5.45355889E+00  2.62985959E-02  3.03770869E-02 -5.45355889E+00  2.62985959E-02
  3.03770869E-02 -5.45355889E+00  2.62985959E-02  3.03770869E-02 -5.45355889E+00
  2.62985959E-02  3.03770869E-02  2.71509980E+00 -2.82985330E-02  8.14067953E-03
  2.71509980E+00 -2.82985330E-02  8.14067953E-03  2.71509980E+00 -2.82985330E-02
  8.14067953E-03  2.71509980E+00 -2.82985330E-02  8.14067953E-03  1.41088051E+00
  2.26510509E+00 -5.81494796E-03  1.41088051E+00  2.26510509E+00 -5.81494796E-03
  1.41088051E+00  2.26510509E+00 -5.81494796E-03  1.41088051E+00  2.26510509E+00
 -5.81494796E-03  1.37657678E+00 -2.30424514E+00 -5.10252121E-03  1.37657678E+00
 -2.30424514E+00 -5.10252121E-03  1.37657678E+00 -2.30424514E+00 -5.10252121E-03
  1.37657678E+00 -2.30424514E+00 -5.10252121E-03 -1.22798598E+00  2.26857814E+00
 -1.69189787E-02 -1.22798598E+00  2.26857814E+00 -1.69189787E-02 -1.22798598E+00
  2.26857814E+00 -1.69189787E-02 -1.22798598E+00  2.26857814E+00 -1.69189787E-02
 -1.25420357E+00 -2.26516021E+00 -1.70909438E-02 -1.25420357E+00 -2.26516021E+00
 -1.70909438E-02 -1.25420357E+00 -2.26516021E+00 -1.70909438E-02 -1.25420357E+00
 -2.26516021E+00 -1.70909438E-02 -2.60654285E+00  1.38588210E-02 -3.12790076E-02
 -2.60654285E+00  1.38588210E-02 -3.12790076E-02 -2.60654285E+00  1.38588210E-02
 -3.12790076E-02 -2.60654285E+00  1.38588210E-02 -3.12790076E-02  5.31045913E+00
 -1.83049829E-01  1.73190794E-02  5.31045913E+00 -1.83049829E-01  1.73190794E-02
  5.31045913E+00 -1.83049829E-01  1.73190794E-02  5.31045913E+00 -1.83049829E-01
  1.73190794E-02  2.44469658E+00  4.04591508E+00 -6.43099868E-03  2.44469658E+00
  4.04591508E+00 -6.43099868E-03  5.98967377E+00  1.52615650E+00  2.28635358E-02
  5.98967377E+00  1.52615650E+00  2.28635358E-02  2.42341532E+00 -4.07057772E+00
 -4.64709721E-03  2.42341532E+00 -4.07057772E+00 -4.64709721E-03 -2.22367908E+00
  4.06915256E+00 -3.32310947E-02 -2.22367908E+00  4.06915256E+00 -3.32310947E-02
 -2.27912848E+00 -4.04956823E+00 -3.37224235E-02 -2.27912848E+00 -4.04956823E+00
 -3.37224235E-02 -6.22798740E+00 -1.54289416E+00 -1.07039028E+00 -6.22798740E+00
 -1.54289416E+00 -1.07039028E+00 -6.20527512E+00  1.78542568E+00 -7.52167953E-01
 -6.20527512E+00  1.78542568E+00 -7.52167953E-01 -6.16698340E+00 -1.56031703E-01
  1.96530547E+00 -6.16698340E+00 -1.56031703E-01  1.96530547E+00
Constraint Structure                       R   N=          48
 -5.45355889E+00  2.62985959E-02  3.03770869E-02  2.71509980E+00 -2.82985330E-02
  8.14067953E-03  1.41088051E+00  2.26510509E+00 -5.81494796E-03  1.37657678E+00
 -2.30424514E+00 -5.10252121E-03 -1.22798598E+00  2.26857814E+00 -1.69189787E-02
 -1.25420357E+00 -2.26516021E+00 -1.70909438E-02 -2.60654285E+00  1.38588210E-02
 -3.12790076E-02  5.31045913E+00 -1.83049829E-01  1.73190794E-02  2.44469658E+00
  4.04591508E+00 -6.43099868E-03  5.98967377E+00  1.52615650E+00  2.28635358E-02
  2.42341532E+00 -4.07057772E+00 -4.64709721E-03 -2.22367908E+00  4.06915256E+00
 -3.32310947E-02 -2.27912848E+00 -4.04956823E+00 -3.37224235E-02 -6.22798740E+00
 -1.54289416E+00 -1.07039028E+00 -6.20527512E+00  1.78542568E+00 -7.52167953E-01
 -6.16698340E+00 -1.56031703E-01  1.96530547E+00
Num ILSW                                   I              100
ILSW                                       I   N=         100
           0           1           0           0           2           0
           0           0           0           0           0          -1
           0           0           0           0           0           0
           0           0           0           0           1           0
           1           0           0           0           0           0
           0           0      100000           0          -1           0
           0           0           0           0           0           0
           0           0           0           1           1           0
           0           0           1           0           0           0
           0           0           4          40           0           0
           0           0           0           0           0           0
           0           0           0           0           0           0
           0           0           0           0           0           0
           0           0           0           0           0           0
           0           0           0           0           0           0
           0           0           0           0           0           0
           0           0           0           0
Num RLSW                                   I               40
RLSW                                       R   N=          40
  1.00000000E+00  1.00000000E+00  1.00000000E+00  1.00000000E+00  1.00000000E+00
  0.00000000E+00  0.00000000E+00  1.00000000E+00  0.00000000E+00  0.00000000E+00
  0.00000000E+00  0.00000000E+00  1.00000000E+00  0.00000000E+00  0.00000000E+00
  0.00000000E+00  0.00000000E+00  1.00000000E+00  0.00000000E+00  0.00000000E+00
  0.00000000E+00  0.00000000E+00  1.00000000E+00  0.00000000E+00  0.00000000E+00
  0.00000000E+00  0.00000000E+00  1.00000000E+00  0.00000000E+00  0.00000000E+00
  0.00000000E+00  0.00000000E+00  0.00000000E+00  0.00000000E+00  0.00000000E+00
  0.00000000E+00  0.00000000E+00  0.00000000E+00  1.00000000E+00  1.00000000E+00
MxBond                                     I                4
NBond                                      I   N=          16
           4           3           3           3           3           3
           3           2           1           1           1           1
           1           1           1           1
IBond                                      I   N=          64
           7          14          15          16           3           4
           8           0           2           5           9           0
           2           6          11           0           3           7
          12           0           4           7          13           0
           1           5           6           0           2          10
           0           0           3           0           0           0
           8           0           0           0           4           0
           0           0           5           0           0           0
           6           0           0           0           1           0
           0           0           1           0           0           0
           1           0           0           0
RBond                                      R   N=          64
  1.00000000E+00  1.00000000E+00  1.00000000E+00  1.00000000E+00  1.50000000E+00
  1.50000000E+00  1.50000000E+00  0.00000000E+00  1.50000000E+00  1.50000000E+00
  1.00000000E+00  0.00000000E+00  1.50000000E+00  1.50000000E+00  1.00000000E+00
  0.00000000E+00  1.50000000E+00  1.50000000E+00  1.00000000E+00  0.00000000E+00
  1.50000000E+00  1.50000000E+00  1.00000000E+00  0.00000000E+00  1.00000000E+00
  1.50000000E+00  1.50000000E+00  0.00000000E+00  1.50000000E+00  1.00000000E+00
  0.00000000E+00  0.00000000E+00  1.00000000E+00  0.00000000E+00  0.00000000E+00
  0.00000000E+00  1.00000000E+00  0.00000000E+00  0.00000000E+00  0.00000000E+00
  1.00000000E+00  0.00000000E+00  0.00000000E+00  0.00000000E+00  1.00000000E+00
  0.00000000E+00  0.00000000E+00  0.00000000E+00  1.00000000E+00  0.00000000E+00
  0.00000000E+00  0.00000000E+00  1.00000000E+00  0.00000000E+00  0.00000000E+00
  0.00000000E+00  1.00000000E+00  0.00000000E+00  0.00000000E+00  0.00000000E+00
  1.00000000E+00  0.00000000E+00  0.00000000E+00  0.00000000E+00
Virial Ratio                               R      2.002217808199327E+00
SCF Energy                                 R     -3.445917453553871E+02
MP2 Energy                                 R     -3.456613007887020E+02
Total Energy                               R     -3.456613007887020E+02
Post-SCF wavefunction norm                 R      1.656328648755316E+00
RMS Force                                  R      3.285914634794979E-07
RMS Density                                R      1.580673688198267E-09
External E-field                           R   N=          35
  0.00000000E+00  0.00000000E+00  0.00000000E+00  0.00000000E+00  0.00000000E+00
  0.00000000E+00  0.00000000E+00  0.00000000E+00  0.00000000E+00  0.00000000E+00
  0.00000000E+00  0.00000000E+00  0.00000000E+00  0.00000000E+00  0.00000000E+00
  0.00000000E+00  0.00000000E+00  0.00000000E+00  0.00000000E+00  0.00000000E+00
  0.00000000E+00  0.00000000E+00  0.00000000E+00  0.00000000E+00  0.00000000E+00
  0.00000000E+00  0.00000000E+00  0.00000000E+00  0.00000000E+00  0.00000000E+00
  0.00000000E+00  0.00000000E+00  0.00000000E+00  0.00000000E+00  0.00000000E+00
IOpCl                                      I                0
IROHF                                      I                0
Alpha Orbital Energies                     R   N=         136
 -2.05908841E+01 -1.12979216E+01 -1.12375479E+01 -1.12354904E+01 -1.12335008E+01
 -1.12332294E+01 -1.12268572E+01 -1.12227913E+01 -1.39219806E+00 -1.14471800E+00
 -1.03319288E+00 -1.01270202E+00 -9.23362826E-01 -8.39480305E-01 -7.96262067E-01
 -7.22433412E-01 -6.64578626E-01 -6.38740202E-01 -6.00737456E-01 -5.83153926E-01
 -5.82096488E-01 -5.69418458E-01 -5.67093723E-01 -5.28352012E-01 -4.99763692E-01
 -4.83228532E-01 -4.64042692E-01 -3.35761585E-01 -2.99512912E-01  1.39859984E-01
  1.61430474E-01  2.19992091E-01  2.39280527E-01  2.68210258E-01  2.85818562E-01
  3.10854740E-01  3.25686125E-01  3.37304173E-01  3.45130692E-01  3.92271554E-01
  4.04781880E-01  4.50221381E-01  4.85592391E-01  5.15395863E-01  5.31856846E-01
  5.51724271E-01  6.96974146E-01  7.12644697E-01  7.29299148E-01  7.40411695E-01
  7.44282404E-01  7.77248935E-01  8.00467633E-01  8.24819317E-01  8.30854503E-01
  8.38948297E-01  8.70324915E-01  8.94793301E-01  8.98684500E-01  9.05667524E-01
  9.53170879E-01  9.65616458E-01  9.90980681E-01  1.02305332E+00  1.03579742E+00
  1.10611856E+00  1.10807428E+00  1.12318116E+00  1.14813937E+00  1.16597252E+00
  1.17475308E+00  1.17887837E+00  1.19342774E+00  1.23526138E+00  1.24395245E+00
  1.25034500E+00  1.26367849E+00  1.31057552E+00  1.35226068E+00  1.42123166E+00
  1.43436066E+00  1.44815397E+00  1.50652875E+00  1.52149106E+00  1.59500063E+00
  1.62385683E+00  1.67948869E+00  1.70981776E+00  1.72322012E+00  1.74130884E+00
  1.74550274E+00  1.79619268E+00  1.96895123E+00  2.03281049E+00  2.07633802E+00
  2.08934601E+00  2.13772466E+00  2.16284059E+00  2.18418386E+00  2.20178008E+00
  2.23736291E+00  2.25542909E+00  2.30614313E+00  2.31478870E+00  2.39156383E+00
  2.42942188E+00  2.44124232E+00  2.46860076E+00  2.53287098E+00  2.58960375E+00
  2.60466955E+00  2.63879482E+00  2.65075285E+00  2.69597440E+00  2.73126230E+00
  2.74582314E+00  2.83692818E+00  2.91592892E+00  2.93102426E+00  2.99860568E+00
  3.00672307E+00  3.10110126E+00  3.14314204E+00  3.21003913E+00  3.24951012E+00
  3.31017352E+00  3.49474208E+00  3.79775867E+00  4.36087537E+00  4.52025061E+00
  4.54138011E+00  4.59768865E+00  4.68925682E+00  4.75631719E+00  4.88942094E+00
  5.17189892E+00
Alpha MO coefficients                      R   N=       18496
  5.42160619E-07  2.84445636E-06 -4.06531964E-07 -3.98232376E-06  6.80403136E-07
 -3.28022453E-05 -1.56636249E-05  4.79427524E-05 -3.72145620E-06 -8.80437403E-08
  1.21988982E-06  2.75944493E-07  4.46729815E-06  1.75413863E-07 -3.30192794E-06
 -1.27467070E-05  3.33488523E-04  3.32852762E-04 -6.02189371E-05  1.13828918E-06
  1.73329527E-04 -1.86697196E-04  9.39121585E-04 -1.83052952E-06 -5.73618953E-05
 -4.27639237E-06 -7.22878152E-05 -2.10777910E-05  1.41902197E-07 -4.53172940E-07
  9.19198106E-06  9.44602733E-05 -4.51355179E-05  2.24315618E-05 -3.35252732E-07
 -9.91309880E-04 -9.27217638E-05  4.11561084E-04 -1.80866095E-06 -8.08724873E-05
 -5.76512360E-06  3.94805651E-06  4.81692767E-05 -7.40171243E-07  3.56651616E-07
 -8.15332719E-06 -1.42825264E-06  1.48281258E-05  6.20413621E-06  8.65826419E-08
  7.98204667E-04 -1.07951462E-04  1.71969734E-04  8.12438891E-07 -4.72632999E-05
 -2.10771223E-05 -2.59464687E-05 -3.21584174E-05 -2.93877410E-08 -3.78214110E-08
 -6.22218565E-06 -3.50895478E-05  1.91259517E-05  1.29649629E-05  3.51144822E-07
  3.45186898E-04  1.06480142E-04 -2.46522937E-04 -6.21746730E-07  2.82527031E-05
 -5.87954372E-06 -1.39283165E-05  1.20121544E-05  2.62454045E-07  3.59015101E-07
  6.66819616E-06  3.50139780E-05 -2.32091965E-06  2.96017301E-06 -2.52815650E-07
 -3.62996192E-04 -1.70037494E-04 -7.82210493E-05 -7.31156987E-07  2.89240085E-06
  7.83136463E-06  1.35534004E-05 -1.35747843E-05 -2.31363277E-07 -9.47846484E-08
  1.41567491E-06  1.19698007E-05  1.55889453E-07 -1.06702739E-05 -6.98174746E-08
 -1.28758865E-04 -8.09469227E-05 -9.50151587E-05  8.62289722E-07  2.92426981E-07
 -1.12649572E-05  4.24200099E-06 -6.67911923E-06 -2.97326435E-07 -1.51097547E-07
  9.94644396E-01  2.11722661E-02 -7.16028003E-04  1.12960558E-03 -5.57396255E-07
  4.03276866E-03  2.53186125E-04 -6.98923816E-04  2.66148400E-07 -4.15991335E-03
 -4.11153560E-03 -3.89312788E-03 -3.15671569E-05 -1.32447528E-06 -6.43015719E-07
 -5.68652322E-06 -1.75824374E-05  4.45823995E-04 -2.33212949E-04  2.55873241E-05
 -5.57703329E-05  1.43220320E-05  6.65008482E-05  1.95526147E-06 -2.42173814E-05
  6.25665963E-06  6.89166203E-06 -4.62249795E-06 -1.52403714E-05  1.43570665E-06
  4.55895204E-06  7.80364724E-07 -4.35331596E-05  5.69836983E-05 -2.79088444E-06
  5.87361045E-06  1.28218507E-03  4.63726889E-04  3.16899902E-06 -7.86926724E-05
  1.70791239E-05  2.87558070E-06 -2.00734405E-06 -1.63760668E-06 -2.80664756E-06
  6.09141483E-07  9.95771570E-01  2.72076285E-02  9.94645720E-04  8.25630894E-07
 -5.40347452E-06 -1.58260651E-02  9.21718393E-03 -6.50444474E-04  7.45678178E-05
 -8.24663221E-04 -1.29922715E-03 -2.13327070E-03 -8.61714970E-05  4.41008253E-06
 -4.05996751E-07  8.76235647E-03 -2.27751052E-04  1.52109143E-05  1.59643652E-04
 -1.66353992E-06  1.01246017E-02 -2.08276747E-03 -5.56031564E-03  5.34315985E-06
 -4.25791151E-04 -3.19508194E-04 -2.37504221E-04  1.44634518E-04 -3.17022387E-06
  4.96380304E-07  7.86940042E-03 -2.37159602E-04  1.35130452E-05 -1.26285820E-04
 -1.49488890E-06  9.48450985E-03 -2.34639368E-03  5.22459389E-03 -3.92688651E-07
 -4.38966430E-04 -2.66029969E-04 -2.36951297E-04 -1.35271622E-04 -3.21768501E-06
 -3.08509583E-07  6.38737700E-05  8.54409149E-05 -7.90418410E-05  3.28323858E-05
 -7.99134986E-07 -5.61558062E-03 -1.59250644E-03  2.48956807E-03 -4.63769369E-06
  1.01437847E-04  2.97163198E-05  1.88159680E-05 -3.79063971E-05  1.61471207E-06
 -2.61066068E-06  6.25392047E-05  7.84886827E-05 -7.15630370E-05 -3.52661262E-05
 -6.25900427E-07 -5.62673771E-03 -1.71878314E-03 -2.29897071E-03 -6.10444796E-06
  1.09206221E-04  2.67367295E-05  1.77711931E-05  3.90507380E-05  1.74777505E-06
  2.32726552E-06 -2.09781556E-04 -2.75063696E-04 -1.06193278E-04  2.79831002E-06
 -1.98007806E-06  4.10882767E-03  3.36208017E-03  4.75415908E-05  2.97277884E-05
 -2.91591081E-05  3.54130626E-05 -1.05211900E-04  1.94772299E-06  2.84294537E-06
  2.72472279E-08  4.98385283E-05  1.23299419E-03 -2.14833763E-04  1.21527924E-05
  1.42003964E-06 -5.46800382E-03  2.70904865E-03 -1.35093222E-04 -1.94694215E-06
 -5.66180031E-04  6.24769397E-04  8.43204768E-04  1.69334282E-05 -3.72760837E-06
 -2.12816330E-07  1.13925049E-04  1.51221355E-03  1.95047922E-04 -2.52011296E-04
  1.30063202E-04  1.45344916E-03 -6.79136971E-05 -5.01609319E-04 -5.94351119E-05
 -4.64067026E-04 -2.11541261E-05 -5.34784786E-05 -2.20120853E-05 -5.99029810E-05
 -1.41867711E-05  9.70947153E-06  2.63439325E-03 -3.13756340E-05 -1.02613079E-05
 -1.94691595E-05  6.45207586E-06  1.14487823E-03  5.68604427E-04 -3.06479247E-05
 -6.01315773E-05 -1.66324234E-05  5.24789626E-06 -3.93976125E-05  1.67158721E-05
 -2.05990341E-06 -2.87514984E-06 -1.32467594E-03 -7.79461680E-05  2.34680736E-05
 -9.66760406E-06 -1.42589050E-06 -1.76917423E-03  7.56007996E-04 -2.70158312E-04
  1.49839468E-05  1.87452631E-05  1.11031748E-05 -2.20123940E-06 -3.33433208E-05