8006                                                                    
Freq      RMP2-FC                                                     6-31G(d)            
Number of atoms                            I               11
Info1-9                                    I   N=           9
          23          21        1002           0           0         100
           6           2           1
Charge                                     I                0
Multiplicity                               I                1
Number of electrons                        I               76
Number of alpha electrons                  I               38
Number of beta electrons                   I               38
Number of basis functions                  I              106
Number of independent functions            I              106
Number of point charges in /Mol/           I                0
Number of translation vectors              I                0
Atomic numbers                             I   N=          11
          35          17           6           6           6           1
           1           1           1           1           1
Nuclear charges                            R   N=          11
  3.50000000E+01  1.70000000E+01  6.00000000E+00  6.00000000E+00  6.00000000E+00
  1.00000000E+00  1.00000000E+00  1.00000000E+00  1.00000000E+00  1.00000000E+00
  1.00000000E+00
Current cartesian coordinates              R   N=          33
  3.85781462E+00 -2.07825150E-01 -1.09967349E-01 -5.59896484E+00 -1.14729760E+00
 -2.13077908E-01 -1.22276169E+00  1.63925365E+00 -5.11691507E-01  3.14029810E-01
 -2.72722153E-01  9.74719088E-01 -3.96159060E+00  1.75756761E+00  3.52504184E-01
 -3.96579890E-01  3.52245092E+00 -2.65018998E-01 -1.13867119E+00  1.18836502E+00
 -2.52722360E+00  3.30539332E-01  1.47799408E-01  2.99311980E+00 -3.39160132E-01
 -2.20020840E+00  6.72441037E-01 -4.09561829E+00  2.14484400E+00  2.37521227E+00
 -4.97968423E+00  3.23009382E+00 -6.70539433E-01
Force Field                                I                0
Int Atom Types                             I   N=          11
           0           0           0           0           0           0
           0           0           0           0           0
MM charges                                 R   N=          11
  0.00000000E+00  0.00000000E+00  0.00000000E+00  0.00000000E+00  0.00000000E+00
  0.00000000E+00  0.00000000E+00  0.00000000E+00  0.00000000E+00  0.00000000E+00
  0.00000000E+00
Integer atomic weights                     I   N=          11
          79          35          12          12          12           1
           1           1           1           1           1
Real atomic weights                        R   N=          11
  7.89183361E+01  3.49688527E+01  1.20000000E+01  1.20000000E+01  1.20000000E+01
  1.00782504E+00  1.00782504E+00  1.00782504E+00  1.00782504E+00  1.00782504E+00
  1.00782504E+00
Atom fragment info                         I   N=          11
           0           0           0           0           0           0
           0           0           0           0           0
Atom residue num                           I   N=          11
           0           0           0           0           0           0
           0           0           0           0           0
Nuclear spins                              I   N=          11
           3           3           0           0           0           1
           1           1           1           1           1
Nuclear ZEff                               R   N=          11
 -2.45000000E+01 -1.42400000E+01 -3.60000000E+00 -3.60000000E+00 -3.60000000E+00
 -1.00000000E+00 -1.00000000E+00 -1.00000000E+00 -1.00000000E+00 -1.00000000E+00
 -1.00000000E+00
Nuclear QMom                               R   N=          11
  3.13000000E+01 -8.16500000E+00  0.00000000E+00  0.00000000E+00  0.00000000E+00
  0.00000000E+00  0.00000000E+00  0.00000000E+00  0.00000000E+00  0.00000000E+00
  0.00000000E+00
Nuclear GFac                               R   N=          11
  2.10639900E+00  8.21874000E-01  0.00000000E+00  0.00000000E+00  0.00000000E+00
  2.79284600E+00  2.79284600E+00  2.79284600E+00  2.79284600E+00  2.79284600E+00
  2.79284600E+00
MicOpt                                     I   N=          11
          -1          -1          -1          -1          -1          -1
          -1          -1          -1          -1          -1
Number of contracted shells                I               41
Number of primitive shells                 I              105
Pure/Cartesian d shells                    I                1
Pure/Cartesian f shells                    I                0
Highest angular momentum                   I                2
Largest degree of contraction              I                8
Shell types                                I   N=          41
           0           0           0           0           0           0
           1           1           1           1           2           2
           0          -1          -1          -1           2           0
          -1          -1           2           0          -1          -1
           2           0          -1          -1           2           0
           0           0           0           0           0           0
           0           0           0           0           0
Number of primitives per shell             I   N=          41
           8           2           1           1           1           1
           6           3           1           1           5           1
           6           6           3           1           1           6
           3           1           1           6           3           1
           1           6           3           1           1           3
           1           3           1           3           1           3
           1           3           1           3           1
Shell to atom map                          I   N=          41
           1           1           1           1           1           1
           1           1           1           1           1           1
           2           2           2           2           2           3
           3           3           3           4           4           4
           4           5           5           5           5           6
           6           7           7           8           8           9
           9          10          10          11          11
Primitive exponents                        R   N=         105
  5.74300000E+05  8.90700000E+04  2.02100000E+04  5.73600000E+03  1.89900000E+03
  6.98700000E+02  2.77800000E+02  1.15200000E+02  3.59700000E+01  1.55000000E+01
  4.77100000E+00  2.07700000E+00  4.21100000E-01  1.61000000E-01  4.40600000E+03
  1.04200000E+03  3.32100000E+02  1.21900000E+02  4.92400000E+01  2.11600000E+01
  8.83600000E+00  3.82900000E+00  1.64300000E+00  4.65000000E-01  1.42700000E-01
  1.08400000E+02  3.07100000E+01  1.06600000E+01  3.85100000E+00  1.31700000E+00
  3.38000000E-01  2.51801000E+04  3.78035000E+03  8.60474000E+02  2.42145000E+02
  7.73349000E+01  2.62470000E+01  4.91765000E+02  1.16984000E+02  3.74153000E+01
  1.37834000E+01  5.45215000E+00  2.22588000E+00  3.18649000E+00  1.14427000E+00
  4.20377000E-01  1.42657000E-01  7.50000000E-01  3.04752488E+03  4.57369518E+02
  1.03948685E+02  2.92101553E+01  9.28666296E+00  3.16392696E+00  7.86827235E+00
  1.88128854E+00  5.44249258E-01  1.68714478E-01  8.00000000E-01  3.04752488E+03
  4.57369518E+02  1.03948685E+02  2.92101553E+01  9.28666296E+00  3.16392696E+00
  7.86827235E+00  1.88128854E+00  5.44249258E-01  1.68714478E-01  8.00000000E-01
  3.04752488E+03  4.57369518E+02  1.03948685E+02  2.92101553E+01  9.28666296E+00
  3.16392696E+00  7.86827235E+00  1.88128854E+00  5.44249258E-01  1.68714478E-01
  8.00000000E-01  1.87311370E+01  2.82539436E+00  6.40121692E-01  1.61277759E-01
  1.87311370E+01  2.82539436E+00  6.40121692E-01  1.61277759E-01  1.87311370E+01
  2.82539436E+00  6.40121692E-01  1.61277759E-01  1.87311370E+01  2.82539436E+00
  6.40121692E-01  1.61277759E-01  1.87311370E+01  2.82539436E+00  6.40121692E-01
  1.61277759E-01  1.87311370E+01  2.82539436E+00  6.40121692E-01  1.61277759E-01
Contraction coefficients                   R   N=         105
  2.10682753E-04  1.61271721E-03  8.36010959E-03  3.40275588E-02  1.08515001E-01
  2.67396944E-01  4.29567221E-01  2.86993117E-01  2.77772914E-01  7.47057636E-01
  1.00000000E+00  1.00000000E+00  1.00000000E+00  1.00000000E+00  1.39552623E-03
  1.23748283E-02  6.10175241E-02  2.26775547E-01  4.05975875E-01  4.50692322E-01
  2.92018585E-01  5.30220862E-01  2.75287404E-01  1.00000000E+00  1.00000000E+00
  2.15879371E-02  1.34176036E-01  3.67870647E-01  4.91895206E-01  2.68321979E-01
  1.00000000E+00  1.83295985E-03  1.40341988E-02  6.90973943E-02  2.37451980E-01
  4.83033960E-01  3.39855972E-01 -2.29739142E-03 -3.07137189E-02 -1.12528069E-01
  4.50163278E-02  5.89353363E-01  4.65206287E-01 -2.51828028E-01  6.15892514E-02
  1.06018433E+00  1.00000000E+00  1.00000000E+00  1.83473713E-03  1.40373228E-02
  6.88426223E-02  2.32184443E-01  4.67941348E-01  3.62311985E-01 -1.19332420E-01
 -1.60854152E-01  1.14345644E+00  1.00000000E+00  1.00000000E+00  1.83473713E-03
  1.40373228E-02  6.88426223E-02  2.32184443E-01  4.67941348E-01  3.62311985E-01
 -1.19332420E-01 -1.60854152E-01  1.14345644E+00  1.00000000E+00  1.00000000E+00
  1.83473713E-03  1.40373228E-02  6.88426223E-02  2.32184443E-01  4.67941348E-01
  3.62311985E-01 -1.19332420E-01 -1.60854152E-01  1.14345644E+00  1.00000000E+00
  1.00000000E+00  3.34946043E-02  2.34726953E-01  8.13757326E-01  1.00000000E+00
  3.34946043E-02  2.34726953E-01  8.13757326E-01  1.00000000E+00  3.34946043E-02
  2.34726953E-01  8.13757326E-01  1.00000000E+00  3.34946043E-02  2.34726953E-01
  8.13757326E-01  1.00000000E+00  3.34946043E-02  2.34726953E-01  8.13757326E-01
  1.00000000E+00  3.34946043E-02  2.34726953E-01  8.13757326E-01  1.00000000E+00
P(S=P) Contraction coefficients            R   N=         105
  0.00000000E+00  0.00000000E+00  0.00000000E+00  0.00000000E+00  0.00000000E+00
  0.00000000E+00  0.00000000E+00  0.00000000E+00  0.00000000E+00  0.00000000E+00
  0.00000000E+00  0.00000000E+00  0.00000000E+00  0.00000000E+00  0.00000000E+00
  0.00000000E+00  0.00000000E+00  0.00000000E+00  0.00000000E+00  0.00000000E+00
  0.00000000E+00  0.00000000E+00  0.00000000E+00  0.00000000E+00  0.00000000E+00
  0.00000000E+00  0.00000000E+00  0.00000000E+00  0.00000000E+00  0.00000000E+00
  0.00000000E+00  0.00000000E+00  0.00000000E+00  0.00000000E+00  0.00000000E+00
  0.00000000E+00  0.00000000E+00  3.98940088E-03  3.03177067E-02  1.29880029E-01
  3.27951072E-01  4.53527100E-01  2.52154056E-01 -1.42993147E-02  3.23572333E-01
  7.43507765E-01  1.00000000E+00  0.00000000E+00  0.00000000E+00  0.00000000E+00
  0.00000000E+00  0.00000000E+00  0.00000000E+00  0.00000000E+00  6.89990666E-02
  3.16423961E-01  7.44308291E-01  1.00000000E+00  0.00000000E+00  0.00000000E+00
  0.00000000E+00  0.00000000E+00  0.00000000E+00  0.00000000E+00  0.00000000E+00
  6.89990666E-02  3.16423961E-01  7.44308291E-01  1.00000000E+00  0.00000000E+00
  0.00000000E+00  0.00000000E+00  0.00000000E+00  0.00000000E+00  0.00000000E+00
  0.00000000E+00  6.89990666E-02  3.16423961E-01  7.44308291E-01  1.00000000E+00
  0.00000000E+00  0.00000000E+00  0.00000000E+00  0.00000000E+00  0.00000000E+00
  0.00000000E+00  0.00000000E+00  0.00000000E+00  0.00000000E+00  0.00000000E+00
  0.00000000E+00  0.00000000E+00  0.00000000E+00  0.00000000E+00  0.00000000E+00
  0.00000000E+00  0.00000000E+00  0.00000000E+00  0.00000000E+00  0.00000000E+00
  0.00000000E+00  0.00000000E+00  0.00000000E+00  0.00000000E+00  0.00000000E+00
Coordinates of each shell                  R   N=         123
  3.85781462E+00 -2.07825150E-01 -1.09967349E-01  3.85781462E+00 -2.07825150E-01
 -1.09967349E-01  3.85781462E+00 -2.07825150E-01 -1.09967349E-01  3.85781462E+00
 -2.07825150E-01 -1.09967349E-01  3.85781462E+00 -2.07825150E-01 -1.09967349E-01
  3.85781462E+00 -2.07825150E-01 -1.09967349E-01  3.85781462E+00 -2.07825150E-01
 -1.09967349E-01  3.85781462E+00 -2.07825150E-01 -1.09967349E-01  3.85781462E+00
 -2.07825150E-01 -1.09967349E-01  3.85781462E+00 -2.07825150E-01 -1.09967349E-01
  3.85781462E+00 -2.07825150E-01 -1.09967349E-01  3.85781462E+00 -2.07825150E-01
 -1.09967349E-01 -5.59896484E+00 -1.14729760E+00 -2.13077908E-01 -5.59896484E+00
 -1.14729760E+00 -2.13077908E-01 -5.59896484E+00 -1.14729760E+00 -2.13077908E-01
 -5.59896484E+00 -1.14729760E+00 -2.13077908E-01 -5.59896484E+00 -1.14729760E+00
 -2.13077908E-01 -1.22276169E+00  1.63925365E+00 -5.11691507E-01 -1.22276169E+00
  1.63925365E+00 -5.11691507E-01 -1.22276169E+00  1.63925365E+00 -5.11691507E-01
 -1.22276169E+00  1.63925365E+00 -5.11691507E-01  3.14029810E-01 -2.72722153E-01
  9.74719088E-01  3.14029810E-01 -2.72722153E-01  9.74719088E-01  3.14029810E-01
 -2.72722153E-01  9.74719088E-01  3.14029810E-01 -2.72722153E-01  9.74719088E-01
 -3.96159060E+00  1.75756761E+00  3.52504184E-01 -3.96159060E+00  1.75756761E+00
  3.52504184E-01 -3.96159060E+00  1.75756761E+00  3.52504184E-01 -3.96159060E+00
  1.75756761E+00  3.52504184E-01 -3.96579890E-01  3.52245092E+00 -2.65018998E-01
 -3.96579890E-01  3.52245092E+00 -2.65018998E-01 -1.13867119E+00  1.18836502E+00
 -2.52722360E+00 -1.13867119E+00  1.18836502E+00 -2.52722360E+00  3.30539332E-01
  1.47799408E-01  2.99311980E+00  3.30539332E-01  1.47799408E-01  2.99311980E+00
 -3.39160132E-01 -2.20020840E+00  6.72441037E-01 -3.39160132E-01 -2.20020840E+00
  6.72441037E-01 -4.09561829E+00  2.14484400E+00  2.37521227E+00 -4.09561829E+00
  2.14484400E+00  2.37521227E+00 -4.97968423E+00  3.23009382E+00 -6.70539433E-01
 -4.97968423E+00  3.23009382E+00 -6.70539433E-01
Constraint Structure                       R   N=          33
  3.85781462E+00 -2.07825150E-01 -1.09967349E-01 -5.59896484E+00 -1.14729760E+00
 -2.13077908E-01 -1.22276169E+00  1.63925365E+00 -5.11691507E-01  3.14029810E-01
 -2.72722153E-01  9.74719088E-01 -3.96159060E+00  1.75756761E+00  3.52504184E-01
 -3.96579890E-01  3.52245092E+00 -2.65018998E-01 -1.13867119E+00  1.18836502E+00
 -2.52722360E+00  3.30539332E-01  1.47799408E-01  2.99311980E+00 -3.39160132E-01
 -2.20020840E+00  6.72441037E-01 -4.09561829E+00  2.14484400E+00  2.37521227E+00
 -4.97968423E+00  3.23009382E+00 -6.70539433E-01
Num ILSW                                   I              100
ILSW                                       I   N=         100
           0           1           0           0           2           0
           0           0           0           0           0          -1
           0           0           0           0           0           0
           0           0           0           0           1           0
           1           0           0           0           0           0
           0           0      100000           0          -1           0
           0           0           0           0           0           0
           0           0           0           1           1           0
           0           0           1           0           0           0
           0           0           4          40           0           0
           0           0           0           0           0           0
           0           0           0           0           0           0
           0           0           0           0           0           0
           0           0           0           0           0           0
           0           0           0           0           0           0
           0           0           0           0           0           0
           0           0           0           0
Num RLSW                                   I               40
RLSW                                       R   N=          40
  1.00000000E+00  1.00000000E+00  1.00000000E+00  1.00000000E+00  1.00000000E+00
  0.00000000E+00  0.00000000E+00  1.00000000E+00  0.00000000E+00  0.00000000E+00
  0.00000000E+00  0.00000000E+00  1.00000000E+00  0.00000000E+00  0.00000000E+00
  0.00000000E+00  0.00000000E+00  1.00000000E+00  0.00000000E+00  0.00000000E+00
  0.00000000E+00  0.00000000E+00  1.00000000E+00  0.00000000E+00  0.00000000E+00
  0.00000000E+00  0.00000000E+00  1.00000000E+00  0.00000000E+00  0.00000000E+00
  0.00000000E+00  0.00000000E+00  0.00000000E+00  0.00000000E+00  0.00000000E+00
  0.00000000E+00  0.00000000E+00  0.00000000E+00  1.00000000E+00  1.00000000E+00
MxBond                                     I                4
NBond                                      I   N=          11
           1           1           4           4           4           1
           1           1           1           1           1
IBond                                      I   N=          44
           4           0           0           0           5           0
           0           0           4           5           6           7
           1           3           8           9           2           3
          10          11           3           0           0           0
           3           0           0           0           4           0
           0           0           4           0           0           0
           5           0           0           0           5           0
           0           0
RBond                                      R   N=          44
  1.00000000E+00  0.00000000E+00  0.00000000E+00  0.00000000E+00  1.00000000E+00
  0.00000000E+00  0.00000000E+00  0.00000000E+00  1.00000000E+00  1.00000000E+00
  1.00000000E+00  1.00000000E+00  1.00000000E+00  1.00000000E+00  1.00000000E+00
  1.00000000E+00  1.00000000E+00  1.00000000E+00  1.00000000E+00  1.00000000E+00
  1.00000000E+00  0.00000000E+00  0.00000000E+00  0.00000000E+00  1.00000000E+00
  0.00000000E+00  0.00000000E+00  0.00000000E+00  1.00000000E+00  0.00000000E+00
  0.00000000E+00  0.00000000E+00  1.00000000E+00  0.00000000E+00  0.00000000E+00
  0.00000000E+00  1.00000000E+00  0.00000000E+00  0.00000000E+00  0.00000000E+00
  1.00000000E+00  0.00000000E+00  0.00000000E+00  0.00000000E+00
Virial Ratio                               R      2.003779375638309E+00
SCF Energy                                 R     -3.146473918557740E+03
MP2 Energy                                 R     -3.147108814873222E+03
Total Energy                               R     -3.147108814873222E+03
Post-SCF wavefunction norm                 R      1.570385929770798E+00
RMS Force                                  R      5.412181454034648E-07
RMS Density                                R      5.969869176399571E-10
External E-field                           R   N=          35
  0.00000000E+00  0.00000000E+00  0.00000000E+00  0.00000000E+00  0.00000000E+00
  0.00000000E+00  0.00000000E+00  0.00000000E+00  0.00000000E+00  0.00000000E+00
  0.00000000E+00  0.00000000E+00  0.00000000E+00  0.00000000E+00  0.00000000E+00
  0.00000000E+00  0.00000000E+00  0.00000000E+00  0.00000000E+00  0.00000000E+00
  0.00000000E+00  0.00000000E+00  0.00000000E+00  0.00000000E+00  0.00000000E+00
  0.00000000E+00  0.00000000E+00  0.00000000E+00  0.00000000E+00  0.00000000E+00
  0.00000000E+00  0.00000000E+00  0.00000000E+00  0.00000000E+00  0.00000000E+00
IOpCl                                      I                0
IROHF                                      I                0
Alpha Orbital Energies                     R   N=         106
 -4.90053145E+02 -1.04819926E+02 -6.44654302E+01 -5.86045199E+01 -5.86029007E+01
 -5.86028495E+01 -1.13097821E+01 -1.13009820E+01 -1.12613832E+01 -1.05540600E+01
 -9.71377154E+00 -8.02337943E+00 -8.02014720E+00 -8.02008706E+00 -7.46275621E+00
 -7.45437118E+00 -7.45428158E+00 -3.20138662E+00 -3.19750458E+00 -3.19740539E+00
 -3.18774244E+00 -3.18774196E+00 -1.16096405E+00 -1.08647914E+00 -9.97776352E-01
 -8.97611281E-01 -8.23732374E-01 -6.76392428E-01 -6.46401799E-01 -6.09353089E-01
 -5.80122510E-01 -5.40278155E-01 -5.13033076E-01 -4.87178364E-01 -4.45635971E-01
 -4.42667870E-01 -3.99567580E-01 -3.97862660E-01  1.54972649E-01  1.90321585E-01
  2.36682660E-01  2.55339666E-01  2.65525663E-01  2.88028939E-01  2.99407361E-01
  3.17605097E-01  3.61909220E-01  3.74600318E-01  4.53707391E-01  5.66875677E-01
  6.02538046E-01  6.12351453E-01  6.25116659E-01  6.36576401E-01  6.53267198E-01
  6.54340726E-01  6.64292188E-01  6.92338244E-01  7.07116610E-01  7.12796788E-01
  7.44026857E-01  7.68393791E-01  8.04057011E-01  8.48786665E-01  8.74426858E-01
  8.95422035E-01  9.93340885E-01  1.03261569E+00  1.05733383E+00  1.09049801E+00
  1.10073740E+00  1.11742779E+00  1.14664938E+00  1.16334762E+00  1.17978768E+00
  1.18866358E+00  1.21033645E+00  1.22173308E+00  1.29907168E+00  1.32408108E+00
  1.39407471E+00  1.42564346E+00  1.65973496E+00  1.76541172E+00  1.79332872E+00
  1.84034456E+00  1.87546305E+00  2.00540834E+00  2.15738783E+00  2.20825748E+00
  2.24622493E+00  2.30314700E+00  2.35270365E+00  2.46733279E+00  2.52230928E+00
  2.64209896E+00  2.67448356E+00  2.70045579E+00  2.89138282E+00  3.00973688E+00
  4.49463073E+00  4.62097047E+00  4.75450200E+00  4.85703474E+00  9.28985735E+00
  7.45340273E+01
Alpha MO coefficients                      R   N=       11236
  9.94939070E-01  3.28094890E-02 -4.42455924E-02 -4.76182062E-02 -2.62233341E-02
 -1.94958181E-02 -2.01479019E-05  1.54842261E-06  4.18529618E-06  5.88414247E-05
 -6.07906986E-06 -1.05318454E-05 -2.52807799E-04  3.00029744E-05  4.14667789E-05
  5.62921153E-04 -3.97897068E-05 -1.23679233E-04  4.40417392E-02  4.40343921E-02
  4.40336636E-02 -3.03774663E-06 -7.01478497E-07 -2.87527004E-06  1.08796208E-02
  1.09449454E-02  1.09452237E-02  1.47924776E-05  1.64032870E-05  2.02413373E-05
  6.04829415E-07  7.08622720E-06 -3.02322126E-06  4.02859912E-06  2.35816754E-06
  2.35214764E-05  1.53380561E-05 -2.04846485E-05 -1.24074276E-05 -1.62191855E-04
 -1.01727674E-04 -4.44787035E-05  1.84598740E-05  6.61263472E-06  4.97217730E-06
  2.15723472E-05 -1.52380520E-05 -9.57962248E-07  8.25899225E-07  7.96058544E-06
 -7.70873479E-05  1.04940415E-05  2.33946591E-07  1.01275107E-05 -4.37845675E-05
  5.79392782E-04 -4.23806966E-04  1.88444704E-04  7.65303290E-05  7.31952129E-05
  6.14838870E-05 -4.10927942E-05  2.62851051E-05 -2.69174335E-05  2.15670834E-05
  1.09313547E-04 -2.87781958E-04 -9.77569303E-06  9.13313460E-05 -6.24059392E-04
  5.53799963E-04 -1.59632463E-04  3.91919080E-05 -1.03252156E-04 -1.89281460E-05
 -2.35612013E-05  1.87250983E-05  2.21580895E-05  4.65035993E-05 -1.46242538E-05
 -6.42094060E-05  1.29412279E-05  1.73521303E-05 -9.65460634E-06  5.99966336E-04
  1.55287639E-04 -6.21271029E-05 -7.87983441E-05 -1.98049530E-05 -1.36095287E-05
 -1.96605020E-05  5.19772812E-06 -8.70575334E-06 -1.15252136E-05 -6.37633410E-05
  3.54078768E-04 -7.64867232E-05  3.08944065E-04  3.38037558E-05  3.91960687E-04
  2.71357946E-05  4.43280806E-04 -2.52475364E-06 -6.85830106E-05 -2.33127895E-05
  1.55860734E-05 -6.07840084E-07 -3.72104206E-06  1.18774961E-05  1.11196447E-05
  2.35637224E-05 -3.87209147E-05  2.79579881E-07  2.04561727E-07  4.02189678E-08
 -1.12032099E-06 -8.27984187E-07 -1.60279924E-07  3.90959934E-06  4.05254401E-06
  8.33853636E-07  2.43469560E-05 -3.82703732E-06 -1.03206817E-05 -1.18867973E-05
 -1.31726411E-05 -1.29402461E-05 -2.95800946E-07 -4.25381470E-07 -3.89633326E-07
 -1.22253101E-05  2.09598485E-06 -6.80366120E-08  7.98459598E-07  4.78736999E-06
  3.02678444E-06  9.96116329E-01  1.46449777E-02  3.06171871E-05  4.63503775E-05
  9.63015724E-06 -1.77395230E-02 -3.99806314E-05 -4.02431243E-05 -9.07021756E-06
  1.51542940E-03  6.03454744E-05  6.41577350E-05  1.42360324E-05  6.26023224E-03
  6.26406768E-03  6.25781660E-03  7.02150749E-07  1.09622858E-07  1.32630663E-06
 -2.03820166E-06  1.63732118E-05  1.38081752E-05  3.49987447E-06 -8.43337478E-07
 -1.99850373E-05  9.08780329E-05 -2.49567747E-06 -6.59633515E-06 -2.81603462E-05
 -9.70560175E-06 -1.00869987E-05 -8.44294225E-06  3.70220038E-06 -2.93850372E-06
  1.79755330E-06  1.14962688E-05 -1.06396270E-05  4.22552556E-06  4.27780626E-06
 -1.71805599E-05  7.02981688E-05 -5.37351673E-05 -1.20720823E-05 -1.95567826E-06
  3.59339471E-06  1.69754388E-06 -7.70729198E-07 -4.99738531E-06  2.00336599E-06
 -9.12261385E-06  2.25939024E-05 -3.52990235E-05 -5.11009661E-05 -1.33143684E-05
  1.60183291E-04  8.52726953E-05  4.55365302E-05  1.18695878E-05 -1.11702425E-05
 -3.26244477E-05 -1.77356922E-05 -1.23625810E-05 -7.60914037E-06 -6.84403020E-07
 -4.43522659E-06 -1.02953980E-05  1.28553040E-05 -5.11698940E-05  6.38401244E-06
  1.71540219E-05  1.20339280E-05 -7.85207313E-05 -1.79003486E-05 -8.71211522E-05
 -1.45571849E-05 -6.56675812E-05 -4.23678335E-01  1.16534080E+00 -2.71024525E-01
 -3.65546157E-01 -2.01332877E-01 -1.54724401E-01 -8.89636124E-04 -1.52256285E-05
  2.74355841E-04  3.68847540E-04 -5.19704244E-05 -5.10429312E-05 -1.99960945E-03
  2.41685708E-04  3.23517112E-04  4.51359075E-03 -3.21480777E-04 -9.89289572E-04
  3.37239428E-01  3.37138768E-01  3.37136812E-01 -2.37906719E-05 -2.02822001E-05
 -2.40533081E-05  8.55816272E-02  8.60958828E-02  8.60995497E-02  1.20285165E-04
  1.26802285E-04  1.62772015E-04  5.06848589E-06  5.57274176E-05 -2.42099150E-05
  3.17948954E-05  1.84518910E-05  1.93005917E-04  1.23557690E-04 -1.62092589E-04
 -9.75374717E-05 -1.28721169E-03 -8.11988634E-04 -3.52444690E-04  1.48495715E-04
  5.04458121E-05  3.72619926E-05  1.68666176E-04 -1.20299356E-04 -7.52901558E-06
  7.36075160E-06  5.52349319E-05 -6.08920462E-04  6.74148189E-05  7.88898741E-06
  7.91512436E-05 -2.82754925E-04  4.67679438E-03 -3.38122550E-03  1.48784786E-03
  5.90865422E-04  5.53419984E-04  4.60327923E-04 -3.25013806E-04  2.04932220E-04
 -2.13308901E-04  1.63941778E-04  9.50053424E-04 -2.29139065E-03 -7.74750396E-05
  7.27033273E-04 -4.87556968E-03  4.41301615E-03 -1.28976113E-03  3.29890424E-04
 -9.42587097E-04 -1.62931651E-04 -2.11285504E-04  1.42080423E-04  2.17977763E-04
  3.66918095E-04 -1.15991841E-04 -5.16131868E-04  1.02081393E-04  1.35911589E-04
 -7.42409267E-05  4.79876098E-03  1.24952959E-03 -4.83630739E-04 -6.45129557E-04
 -1.53581398E-04 -1.07129760E-04 -1.53499647E-04  4.18903744E-05 -7.00059170E-05
 -9.03115745E-05 -5.13564997E-04  2.80241311E-03 -6.12135748E-04  2.44026610E-03
  2.51735317E-04  3.11165543E-03  1.99276082E-04  3.51997822E-03 -1.92186472E-05
 -5.40945573E-04 -1.86994635E-04  1.18291711E-04 -2.41268575E-04  1.82273715E-03
 -3.02841305E-03 -1.83691055E-03  8.73429042E-04 -9.50381268E-03  9.37815770E-01
  4.22922366E-03 -2.72994225E-01  5.96744441E-02  2.33622491E-04 -1.73332271E-02
 -1.81862060E-02  1.02059382E-04  5.09941231E-03  8.00743692E-03 -2.35915517E-04
 -2.05095738E-03  2.78167401E-03  2.85360839E-03  2.83570270E-03 -2.79055871E-05
  4.28856459E-05 -2.40527886E-05  3.97258957E-03  3.46237180E-03  3.56188794E-03
  1.44855841E-04 -2.51817762E-04  1.66211345E-04  3.13491638E-06  4.72075137E-05
 -3.16215016E-05  1.22030673E-05 -3.13076996E-06  9.53104340E-05  1.73804033E-04
 -5.06696896E-05  1.03088451E-05 -6.49695441E-04 -4.88097202E-04 -1.45952406E-04
  1.20455642E-04  7.80593033E-05  6.26885205E-05  1.72386387E-04 -3.05961548E-05
  1.58865935E-05  4.49584469E-05 -1.95343736E-04 -9.02031419E-04 -2.82182057E-04
  1.40963224E-04 -6.93233622E-06  4.99114697E-03  4.15918550E-03 -2.33306285E-03
  9.41773905E-04 -1.40421530E-04 -2.47416366E-04 -2.96227810E-04 -1.51074362E-04
  8.49639333E-05 -5.03992457E-05  3.27117475E-04  2.67024477E-03 -2.54420505E-05
 -7.15893932E-05  7.35949738E-05 -7.71800290E-03  9.16693165E-06 -1.59392766E-03
  1.74535799E-03 -1.49067941E-03  7.33133798E-04  5.14327524E-04  5.05928819E-06
  8.13073084E-04  2.97619674E-04 -3.89898734E-05 -1.72107596E-04  5.01327165E-05
 -5.54059013E-05  7.80025744E-05  2.12749297E-03  2.05881633E-04  4.70950501E-04
 -1.07186706E-03 -7.44156399E-05 -4.92950564E-06 -5.66659208E-05  4.34657641E-05
 -6.89348149E-05 -1.09535299E-04 -4.58631515E-04  2.35208220E-04 -4.86496009E-04
  1.30686821E-04 -7.90457276E-05  1.68069983E-03 -1.21400159E-04  1.91763980E-03
  1.38807341E-04 -4.31241542E-05 -2.21949818E-04 -3.36393311E-04 -3.66394819E-05
 -7.53905980E-05  4.02221533E-04  2.70411237E-04 -2.89705385E-04  1.43635265E-03
 -1.96295808E-01  6.89324617E-01 -6.63755496E-01 -1.24595112E-02  4.35820350E-02
 -4.19501003E-02  3.80564703E-03 -1.24404759E-02  1.18959921E-02 -1.69374287E-03
  5.61263028E-03 -5.35596373E-03 -3.95451980E-04 -3.90497537E-04 -3.86456635E-04
  1.40808519E-05 -5.08080057E-06  1.86105967E-05 -4.94215088E-04 -5.42226634E-04
 -6.80492250E-04 -3.05491881E-04  2.52843359E-04 -4.69178936E-05  3.85646309E-07
  4.95284923E-06 -4.18524872E-06 -2.92035778E-06 -2.39217616E-06  3.14844835E-06
  2.68611696E-05  1.85858519E-05  1.34622971E-05 -1.85113316E-05  2.18474063E-05
  2.72664049E-05 -1.04243703E-04  1.36783379E-05  3.17522195E-05  1.03397093E-05
  2.55474663E-05 -3.61380409E-07 -2.98892576E-05  4.45975613E-06  1.16146805E-04
  2.96787051E-04 -9.04169353E-05 -1.36065150E-05  1.24361243E-03 -2.87041840E-03
  6.69811043E-04  2.94301134E-04 -3.30018077E-05 -5.84036201E-05 -1.01137254E-05
  8.61196792E-05 -1.10329894E-04 -3.25417516E-05 -1.94446719E-05 -9.70577493E-05
 -1.98668876E-04  3.72666227E-05  2.21659844E-05  6.38331179E-04  8.44380064E-04
  1.18140752E-04 -4.04367085E-04 -1.04304144E-04  2.43289282E-05  4.18793991E-05
  3.12632999E-05 -1.68398541E-05 -1.26394232E-04  3.03226294E-05  1.93662158E-04
 -1.18046929E-04  1.66168658E-05 -1.14356399E-05 -2.34244603E-03 -9.10270545E-04
 -2.10271957E-04  7.27926544E-04 -6.15584089E-05  3.68500831E-05  2.80250687E-05
  3.11311913E-07  5.74215032E-05  2.49515448E-05  3.13702702E-04 -6.74264501E-04
  3.11944030E-04 -5.96067897E-04 -1.18715205E-04  6.07543979E-04 -1.18341608E-04
  5.63028635E-04  2.76634178E-05 -1.28849232E-04  1.16359207E-04  2.23016925E-04
  1.11607370E-06 -3.44246152E-06  1.57672124E-06  1.33649532E-06  3.21555250E-06