110_OxalicAcid Gaussian SP Calculation on g2-node38.bme.utexas.edu      
Freq      RMP2-FC                                                     6-31G(d)            
Number of atoms                            I                8
Info1-9                                    I   N=           9
          19          18        1002           0           0         100
           6           2           1
Charge                                     I                0
Multiplicity                               I                1
Number of electrons                        I               46
Number of alpha electrons                  I               23
Number of beta electrons                   I               23
Number of basis functions                  I               94
Number of independent functions            I               94
Number of point charges in /Mol/           I                0
Number of translation vectors              I                0
Atomic numbers                             I   N=           8
           8           8           8           8           6           6
           1           1
Nuclear charges                            R   N=           8
  8.00000000E+00  8.00000000E+00  8.00000000E+00  8.00000000E+00  6.00000000E+00
  6.00000000E+00  1.00000000E+00  1.00000000E+00
Current cartesian coordinates              R   N=          24
  2.76087533E+00 -1.85499541E+00  1.89759861E-04 -2.76087470E+00  1.85499571E+00
  1.46539606E-04  2.29215684E+00  2.42482500E+00 -1.03915015E-04 -2.29215745E+00
 -2.42482504E+00 -2.41646975E-04  1.41294000E+00  3.02709378E-01  9.10666090E-06
 -1.41294022E+00 -3.02709505E-01 -4.51245229E-05  4.53881495E+00 -1.33506614E+00
  2.02671346E-04 -4.53881375E+00  1.33506493E+00  8.75360010E-05
Force Field                                I                0
Int Atom Types                             I   N=           8
           0           0           0           0           0           0
           0           0
MM charges                                 R   N=           8
  0.00000000E+00  0.00000000E+00  0.00000000E+00  0.00000000E+00  0.00000000E+00
  0.00000000E+00  0.00000000E+00  0.00000000E+00
Integer atomic weights                     I   N=           8
          16          16          16          16          12          12
           1           1
Real atomic weights                        R   N=           8
  1.59949146E+01  1.59949146E+01  1.59949146E+01  1.59949146E+01  1.20000000E+01
  1.20000000E+01  1.00782504E+00  1.00782504E+00
Atom fragment info                         I   N=           8
           0           0           0           0           0           0
           0           0
Atom residue num                           I   N=           8
           0           0           0           0           0           0
           0           0
Nuclear spins                              I   N=           8
           0           0           0           0           0           0
           1           1
Nuclear ZEff                               R   N=           8
 -5.60000000E+00 -5.60000000E+00 -5.60000000E+00 -5.60000000E+00 -3.60000000E+00
 -3.60000000E+00 -1.00000000E+00 -1.00000000E+00
Nuclear QMom                               R   N=           8
  0.00000000E+00  0.00000000E+00  0.00000000E+00  0.00000000E+00  0.00000000E+00
  0.00000000E+00  0.00000000E+00  0.00000000E+00
Nuclear GFac                               R   N=           8
  0.00000000E+00  0.00000000E+00  0.00000000E+00  0.00000000E+00  0.00000000E+00
  0.00000000E+00  2.79284600E+00  2.79284600E+00
MicOpt                                     I   N=           8
          -1          -1          -1          -1          -1          -1
          -1          -1
Number of contracted shells                I               28
Number of primitive shells                 I               74
Pure/Cartesian d shells                    I                1
Pure/Cartesian f shells                    I                0
Highest angular momentum                   I                2
Largest degree of contraction              I                6
Shell types                                I   N=          28
           0          -1          -1           2           0          -1
          -1           2           0          -1          -1           2
           0          -1          -1           2           0          -1
          -1           2           0          -1          -1           2
           0           0           0           0
Number of primitives per shell             I   N=          28
           6           3           1           1           6           3
           1           1           6           3           1           1
           6           3           1           1           6           3
           1           1           6           3           1           1
           3           1           3           1
Shell to atom map                          I   N=          28
           1           1           1           1           2           2
           2           2           3           3           3           3
           4           4           4           4           5           5
           5           5           6           6           6           6
           7           7           8           8
Primitive exponents                        R   N=          74
  5.48467166E+03  8.25234946E+02  1.88046958E+02  5.29645000E+01  1.68975704E+01
  5.79963534E+00  1.55396162E+01  3.59993359E+00  1.01376175E+00  2.70005823E-01
  8.00000000E-01  5.48467166E+03  8.25234946E+02  1.88046958E+02  5.29645000E+01
  1.68975704E+01  5.79963534E+00  1.55396162E+01  3.59993359E+00  1.01376175E+00
  2.70005823E-01  8.00000000E-01  5.48467166E+03  8.25234946E+02  1.88046958E+02
  5.29645000E+01  1.68975704E+01  5.79963534E+00  1.55396162E+01  3.59993359E+00
  1.01376175E+00  2.70005823E-01  8.00000000E-01  5.48467166E+03  8.25234946E+02
  1.88046958E+02  5.29645000E+01  1.68975704E+01  5.79963534E+00  1.55396162E+01
  3.59993359E+00  1.01376175E+00  2.70005823E-01  8.00000000E-01  3.04752488E+03
  4.57369518E+02  1.03948685E+02  2.92101553E+01  9.28666296E+00  3.16392696E+00
  7.86827235E+00  1.88128854E+00  5.44249258E-01  1.68714478E-01  8.00000000E-01
  3.04752488E+03  4.57369518E+02  1.03948685E+02  2.92101553E+01  9.28666296E+00
  3.16392696E+00  7.86827235E+00  1.88128854E+00  5.44249258E-01  1.68714478E-01
  8.00000000E-01  1.87311370E+01  2.82539436E+00  6.40121692E-01  1.61277759E-01
  1.87311370E+01  2.82539436E+00  6.40121692E-01  1.61277759E-01
Contraction coefficients                   R   N=          74
  1.83107443E-03  1.39501722E-02  6.84450781E-02  2.32714336E-01  4.70192898E-01
  3.58520853E-01 -1.10777550E-01 -1.48026263E-01  1.13076702E+00  1.00000000E+00
  1.00000000E+00  1.83107443E-03  1.39501722E-02  6.84450781E-02  2.32714336E-01
  4.70192898E-01  3.58520853E-01 -1.10777550E-01 -1.48026263E-01  1.13076702E+00
  1.00000000E+00  1.00000000E+00  1.83107443E-03  1.39501722E-02  6.84450781E-02
  2.32714336E-01  4.70192898E-01  3.58520853E-01 -1.10777550E-01 -1.48026263E-01
  1.13076702E+00  1.00000000E+00  1.00000000E+00  1.83107443E-03  1.39501722E-02
  6.84450781E-02  2.32714336E-01  4.70192898E-01  3.58520853E-01 -1.10777550E-01
 -1.48026263E-01  1.13076702E+00  1.00000000E+00  1.00000000E+00  1.83473713E-03
  1.40373228E-02  6.88426223E-02  2.32184443E-01  4.67941348E-01  3.62311985E-01
 -1.19332420E-01 -1.60854152E-01  1.14345644E+00  1.00000000E+00  1.00000000E+00
  1.83473713E-03  1.40373228E-02  6.88426223E-02  2.32184443E-01  4.67941348E-01
  3.62311985E-01 -1.19332420E-01 -1.60854152E-01  1.14345644E+00  1.00000000E+00
  1.00000000E+00  3.34946043E-02  2.34726953E-01  8.13757326E-01  1.00000000E+00
  3.34946043E-02  2.34726953E-01  8.13757326E-01  1.00000000E+00
P(S=P) Contraction coefficients            R   N=          74
  0.00000000E+00  0.00000000E+00  0.00000000E+00  0.00000000E+00  0.00000000E+00
  0.00000000E+00  7.08742682E-02  3.39752839E-01  7.27158577E-01  1.00000000E+00
  0.00000000E+00  0.00000000E+00  0.00000000E+00  0.00000000E+00  0.00000000E+00
  0.00000000E+00  0.00000000E+00  7.08742682E-02  3.39752839E-01  7.27158577E-01
  1.00000000E+00  0.00000000E+00  0.00000000E+00  0.00000000E+00  0.00000000E+00
  0.00000000E+00  0.00000000E+00  0.00000000E+00  7.08742682E-02  3.39752839E-01
  7.27158577E-01  1.00000000E+00  0.00000000E+00  0.00000000E+00  0.00000000E+00
  0.00000000E+00  0.00000000E+00  0.00000000E+00  0.00000000E+00  7.08742682E-02
  3.39752839E-01  7.27158577E-01  1.00000000E+00  0.00000000E+00  0.00000000E+00
  0.00000000E+00  0.00000000E+00  0.00000000E+00  0.00000000E+00  0.00000000E+00
  6.89990666E-02  3.16423961E-01  7.44308291E-01  1.00000000E+00  0.00000000E+00
  0.00000000E+00  0.00000000E+00  0.00000000E+00  0.00000000E+00  0.00000000E+00
  0.00000000E+00  6.89990666E-02  3.16423961E-01  7.44308291E-01  1.00000000E+00
  0.00000000E+00  0.00000000E+00  0.00000000E+00  0.00000000E+00  0.00000000E+00
  0.00000000E+00  0.00000000E+00  0.00000000E+00  0.00000000E+00
Coordinates of each shell                  R   N=          84
  2.76087533E+00 -1.85499541E+00  1.89759861E-04  2.76087533E+00 -1.85499541E+00
  1.89759861E-04  2.76087533E+00 -1.85499541E+00  1.89759861E-04  2.76087533E+00
 -1.85499541E+00  1.89759861E-04 -2.76087470E+00  1.85499571E+00  1.46539606E-04
 -2.76087470E+00  1.85499571E+00  1.46539606E-04 -2.76087470E+00  1.85499571E+00
  1.46539606E-04 -2.76087470E+00  1.85499571E+00  1.46539606E-04  2.29215684E+00
  2.42482500E+00 -1.03915015E-04  2.29215684E+00  2.42482500E+00 -1.03915015E-04
  2.29215684E+00  2.42482500E+00 -1.03915015E-04  2.29215684E+00  2.42482500E+00
 -1.03915015E-04 -2.29215745E+00 -2.42482504E+00 -2.41646975E-04 -2.29215745E+00
 -2.42482504E+00 -2.41646975E-04 -2.29215745E+00 -2.42482504E+00 -2.41646975E-04
 -2.29215745E+00 -2.42482504E+00 -2.41646975E-04  1.41294000E+00  3.02709378E-01
  9.10666090E-06  1.41294000E+00  3.02709378E-01  9.10666090E-06  1.41294000E+00
  3.02709378E-01  9.10666090E-06  1.41294000E+00  3.02709378E-01  9.10666090E-06
 -1.41294022E+00 -3.02709505E-01 -4.51245229E-05 -1.41294022E+00 -3.02709505E-01
 -4.51245229E-05 -1.41294022E+00 -3.02709505E-01 -4.51245229E-05 -1.41294022E+00
 -3.02709505E-01 -4.51245229E-05  4.53881495E+00 -1.33506614E+00  2.02671346E-04
  4.53881495E+00 -1.33506614E+00  2.02671346E-04 -4.53881375E+00  1.33506493E+00
  8.75360010E-05 -4.53881375E+00  1.33506493E+00  8.75360010E-05
Constraint Structure                       R   N=          24
  2.76087533E+00 -1.85499541E+00  1.89759861E-04 -2.76087470E+00  1.85499571E+00
  1.46539606E-04  2.29215684E+00  2.42482500E+00 -1.03915015E-04 -2.29215745E+00
 -2.42482504E+00 -2.41646975E-04  1.41294000E+00  3.02709378E-01  9.10666090E-06
 -1.41294022E+00 -3.02709505E-01 -4.51245229E-05  4.53881495E+00 -1.33506614E+00
  2.02671346E-04 -4.53881375E+00  1.33506493E+00  8.75360010E-05
Num ILSW                                   I              100
ILSW                                       I   N=         100
           0           1           0           1           2           0
           0           0           0           0           0          -1
           0           0           0           0           0           0
           0           0           0           0           1           0
           1           0           0           0           0           0
           0           0      100000           0          -1           0
           0           0           0           0           0           0
           0           0           0           1           1           0
           0           0           1           0           0           0
           0           0           4          40           0           0
           0           0           0           0           0           0
           0           0           0           0           0           0
           0           0           0           0           0           0
           0           0           0           0           0           0
           0           0           0           0           0           0
           0           0           0           0           0           0
           0           0           0           0
Num RLSW                                   I               40
RLSW                                       R   N=          40
  1.00000000E+00  1.00000000E+00  1.00000000E+00  1.00000000E+00  1.00000000E+00
  0.00000000E+00  0.00000000E+00  1.00000000E+00  0.00000000E+00  0.00000000E+00
  0.00000000E+00  0.00000000E+00  1.00000000E+00  0.00000000E+00  0.00000000E+00
  0.00000000E+00  0.00000000E+00  1.00000000E+00  0.00000000E+00  0.00000000E+00
  0.00000000E+00  0.00000000E+00  1.00000000E+00  0.00000000E+00  0.00000000E+00
  0.00000000E+00  0.00000000E+00  1.00000000E+00  0.00000000E+00  0.00000000E+00
  0.00000000E+00  0.00000000E+00  0.00000000E+00  0.00000000E+00  0.00000000E+00
  0.00000000E+00  0.00000000E+00  0.00000000E+00  1.00000000E+00  1.00000000E+00
MxBond                                     I                3
NBond                                      I   N=           8
           2           2           1           1           3           3
           1           1
IBond                                      I   N=          24
           5           7           0           6           8           0
           5           0           0           6           0           0
           1           3           6           2           4           5
           1           0           0           2           0           0
RBond                                      R   N=          24
  1.50000000E+00  1.00000000E+00  0.00000000E+00  1.50000000E+00  1.00000000E+00
  0.00000000E+00  2.00000000E+00  0.00000000E+00  0.00000000E+00  2.00000000E+00
  0.00000000E+00  0.00000000E+00  1.50000000E+00  2.00000000E+00  1.00000000E+00
  1.50000000E+00  2.00000000E+00  1.00000000E+00  1.00000000E+00  0.00000000E+00
  0.00000000E+00  1.00000000E+00  0.00000000E+00  0.00000000E+00
Virial Ratio                               R      2.003812512994056E+00
SCF Energy                                 R     -3.763580982298655E+02
MP2 Energy                                 R     -3.773221755929048E+02
Total Energy                               R     -3.773221755929048E+02
Post-SCF wavefunction norm                 R      1.602719291245007E+00
RMS Force                                  R      5.195393100378544E-06
RMS Density                                R      1.053889666383607E-09
External E-field                           R   N=          35
  0.00000000E+00  0.00000000E+00  0.00000000E+00  0.00000000E+00  0.00000000E+00
  0.00000000E+00  0.00000000E+00  0.00000000E+00  0.00000000E+00  0.00000000E+00
  0.00000000E+00  0.00000000E+00  0.00000000E+00  0.00000000E+00  0.00000000E+00
  0.00000000E+00  0.00000000E+00  0.00000000E+00  0.00000000E+00  0.00000000E+00
  0.00000000E+00  0.00000000E+00  0.00000000E+00  0.00000000E+00  0.00000000E+00
  0.00000000E+00  0.00000000E+00  0.00000000E+00  0.00000000E+00  0.00000000E+00
  0.00000000E+00  0.00000000E+00  0.00000000E+00  0.00000000E+00  0.00000000E+00
IOpCl                                      I                0
IROHF                                      I                0
Alpha Orbital Energies                     R   N=          94
 -2.06499291E+01 -2.06499277E+01 -2.05995510E+01 -2.05995495E+01 -1.14325383E+01
 -1.14319816E+01 -1.50542372E+00 -1.47640385E+00 -1.39908483E+00 -1.38207369E+00
 -9.83960372E-01 -8.41782294E-01 -7.42528041E-01 -7.30638547E-01 -7.12776916E-01
 -6.78075101E-01 -6.51956857E-01 -6.25943200E-01 -6.05851878E-01 -5.34391901E-01
 -5.04469833E-01 -5.03937342E-01 -4.63241002E-01  7.45017156E-02  2.01058706E-01
  2.13722465E-01  2.68809001E-01  4.02081375E-01  4.10879335E-01  4.39771874E-01
  5.22755809E-01  6.10373122E-01  7.00585830E-01  7.46636975E-01  8.03701097E-01
  8.15462964E-01  8.49369008E-01  8.62111045E-01  9.30758206E-01  9.98528643E-01
  1.03514274E+00  1.05722744E+00  1.12081182E+00  1.12699953E+00  1.14105636E+00
  1.19083313E+00  1.19867325E+00  1.20101182E+00  1.27004115E+00  1.29560245E+00
  1.35261118E+00  1.36854671E+00  1.43005408E+00  1.50230308E+00  1.52953478E+00
  1.59572554E+00  1.67110942E+00  1.67753427E+00  1.81161436E+00  1.84496983E+00
  1.89948638E+00  1.90920575E+00  1.99848824E+00  2.02971653E+00  2.03201453E+00
  2.09409436E+00  2.09639857E+00  2.10982705E+00  2.16031343E+00  2.19371523E+00
  2.23803967E+00  2.27480609E+00  2.36935698E+00  2.50321686E+00  2.54906265E+00
  2.64228651E+00  2.69660861E+00  2.72051919E+00  2.86495256E+00  2.92188386E+00
  2.97850219E+00  3.00898109E+00  3.09760366E+00  3.14564542E+00  3.24753490E+00
  3.31496205E+00  3.44029171E+00  3.56935980E+00  4.08968612E+00  4.35571637E+00
  4.41346400E+00  4.43081010E+00  4.95647208E+00  5.12240677E+00
Alpha MO coefficients                      R   N=        8836
  6.87966186E-01  1.47290515E-02  2.82176665E-04  8.92625511E-04 -5.28626846E-08
  2.25022814E-03 -1.25333498E-04 -5.03053613E-04  4.00223061E-08 -2.82850115E-03
 -2.75628016E-03 -2.68788878E-03  2.29701255E-05 -6.62740747E-09  8.09106428E-09
  7.18373768E-01  1.53750015E-02 -2.95088081E-04 -9.31901483E-04 -8.86343020E-08
  2.38333997E-03  1.40132320E-04  5.18990313E-04  5.83764723E-08 -2.95555126E-03
 -2.88196432E-03 -2.80938617E-03  2.25086279E-05  1.71390033E-09 -9.84337964E-09
 -2.80991330E-04 -3.18083076E-05 -3.08746689E-05  3.72837191E-05 -3.08627870E-09
  2.39855417E-04 -6.17485709E-05 -3.79566886E-05  4.49055787E-09  6.04320526E-06
 -5.59373945E-05 -9.92091092E-06  3.67062273E-05  1.04443543E-09  3.30620450E-09
 -2.90332426E-04 -3.08551566E-05  3.05076487E-05 -3.78546145E-05 -3.24092645E-09
  2.27892201E-04  6.67659324E-05  3.38557387E-05  7.61659079E-09  8.03847724E-06
 -5.79912411E-05 -1.10752740E-05  3.88487366E-05  8.85744000E-10 -3.51526072E-09
 -2.10988559E-06  3.06848681E-04  1.19228519E-04 -1.76661459E-04  1.74305190E-08
  5.77976192E-05  2.61052299E-04 -4.73670768E-04  4.56608712E-09 -7.83826537E-05
 -6.30514195E-05 -4.82499369E-05  5.99316183E-05  3.27667915E-09  3.82651556E-09
 -2.01730403E-06  3.19994690E-04 -1.23631225E-04  1.85233629E-04  1.87510088E-08
  2.94849898E-05 -2.84732157E-04  4.52644584E-04  6.05277704E-09 -7.81235303E-05
 -6.71174929E-05 -4.93497808E-05  6.20420146E-05 -2.47021884E-09 -2.63091073E-09
  3.11774484E-04 -1.89651543E-04  3.25194449E-04 -1.97485630E-04  7.18350049E-01
  1.52624234E-02  3.04806681E-04  9.27932529E-04 -5.04715828E-08  3.12820789E-03
 -3.45081202E-04 -3.79560527E-04  1.05776111E-08 -3.00045030E-03 -2.96728470E-03
 -2.86894657E-03 -1.01771396E-05 -1.79857227E-09  8.12360502E-09 -6.87941419E-01
 -1.46114976E-02  2.92324674E-04  8.88482118E-04  8.05738428E-08 -3.02801788E-03
 -3.39341046E-04 -3.57461488E-04 -2.91837493E-08  2.87538424E-03  2.84537143E-03
  2.75008144E-03  1.11606489E-05  3.54393759E-09  1.09549001E-08 -2.22182697E-04
  2.13676329E-05  7.82284593E-06  1.40141043E-05 -4.32688687E-09 -2.71603799E-04
 -1.17404876E-04  9.40573010E-05  1.18205958E-09  4.62907048E-05 -4.87212959E-05
 -2.69169103E-05  5.03594037E-05 -4.66189369E-09  2.32718469E-09  2.09829066E-04
 -2.27225651E-05  9.15005077E-06  1.23894101E-05  4.80686097E-09  2.81717266E-04
 -1.14625971E-04  9.56098726E-05 -2.29385964E-09 -4.59861793E-05  4.62578464E-05
  2.64629286E-05 -4.87257413E-05 -8.71115139E-09  1.16575878E-09  2.09644137E-06
  3.10764017E-04  1.04436761E-04 -2.02134695E-04  1.50311238E-08 -6.53780279E-04
  5.53485441E-04  4.76215572E-04 -1.73478554E-08  4.29840310E-06 -9.54254186E-05
 -2.64876925E-05  5.01167084E-05 -7.00614898E-09  7.46132061E-09 -2.18567418E-06
 -2.97210225E-04  9.91854999E-05 -1.94309634E-04 -1.59866338E-08  6.55667614E-04
  5.41684096E-04  4.96244320E-04  4.80829868E-08 -7.68236009E-06  9.26111391E-05
  2.43773773E-05 -4.74794053E-05 -9.58093955E-09  7.74631069E-09  3.17209875E-04
 -1.85345074E-04 -3.03436934E-04  1.76974076E-04  2.79882817E-04 -5.66642585E-06
 -1.74922297E-05 -2.78727279E-05  5.00156257E-10  1.65688973E-05  1.18495053E-05
  5.21200191E-05  1.27193620E-09  5.68422965E-05 -4.84986111E-05 -2.46954284E-05
 -5.03416771E-05  4.48502276E-09  1.04167322E-09  2.84805596E-04 -7.01340435E-06
  1.73816082E-05  2.82551988E-05  1.85953764E-09  2.22333632E-05 -9.54932159E-06
 -5.41450307E-05 -7.62295838E-10  5.74410230E-05 -4.99223802E-05 -2.65580664E-05
 -5.17141136E-05 -2.83566450E-09 -3.35300384E-09  6.94962539E-01  1.46657091E-02
 -4.14172247E-04 -1.07431659E-03  5.69336199E-08  3.10897376E-03  2.86817209E-05
 -7.73768709E-07  2.95299573E-09 -2.68990193E-03 -2.48203542E-03 -2.87409473E-03
  9.60876242E-05 -2.37615386E-10 -2.80537712E-08  7.11669485E-01  1.50173926E-02
  4.23685664E-04  1.09959445E-03  1.00466276E-07  3.18446328E-03 -2.84441156E-05
  6.31896451E-07  2.04566134E-09 -2.75426809E-03 -2.54292443E-03 -2.94388043E-03
  9.86475188E-05  1.00144380E-08  4.37775612E-08 -8.13103295E-07  3.49966553E-04
 -2.55077989E-05 -4.25064370E-05  4.43083690E-09 -3.95270744E-04 -1.62429297E-04
 -3.34758590E-04  1.03888122E-08 -9.57794142E-05 -5.47315506E-04 -2.21673384E-05
 -2.72940332E-04  8.02282485E-09  3.11332823E-08 -9.55458295E-07  3.58076736E-04
  2.62822922E-05  4.37845620E-05  6.42914465E-09 -4.01903250E-04  1.68615772E-04
  3.39864602E-04  2.49332128E-08 -9.88695346E-05 -5.59889380E-04 -2.25514056E-05
 -2.76852944E-04 -1.83695797E-08 -5.70255081E-08 -1.72049623E-05 -1.20425071E-05
 -1.72830832E-05 -1.16932413E-05  2.10594309E-04 -5.67809825E-05  4.45076444E-06
 -1.64358038E-05  2.57463814E-09  2.38693574E-04 -9.67012113E-05  8.58776612E-05
 -1.38483870E-08  2.58847631E-05 -6.05242183E-05 -7.87165404E-05 -5.83761385E-05
  9.25011578E-09 -3.57421205E-09 -2.03887169E-04  5.66303713E-05  4.86495890E-06
 -1.57691166E-05 -2.80737664E-09 -2.38232623E-04 -9.69554582E-05  8.46154275E-05
  1.28529731E-08 -2.45274170E-05  5.93552106E-05  7.81077727E-05  5.71640315E-05
  6.70445122E-09 -2.26841049E-09  7.11663992E-01  1.49810653E-02 -4.05457656E-04
 -1.07703243E-03  5.57719394E-08  3.21525700E-03 -9.65940134E-06  5.95966971E-06
  5.88010229E-10 -2.74195011E-03 -2.59307627E-03 -2.97231578E-03  1.08918683E-04
 -1.43909970E-09 -2.45980598E-08 -6.94956913E-01 -1.46285083E-02 -3.95506191E-04
 -1.05121203E-03 -9.44568614E-08 -3.14050688E-03 -1.03378728E-05  5.97661076E-06
 -7.00339844E-10  2.67728760E-03  2.53339304E-03  2.90321342E-03 -1.06605731E-04
 -1.27583514E-08 -3.84087680E-08 -6.00286991E-06  3.45612291E-04 -3.29131687E-05
 -5.43235474E-05  2.59959566E-10 -2.83932352E-04 -2.62412543E-04 -2.18955878E-04
  1.09450612E-08 -1.31233526E-04 -5.35898316E-04 -1.64321078E-05 -1.67971740E-04
  1.38192859E-08  3.53035008E-08  5.98185862E-06 -3.37202707E-04 -3.22980238E-05
 -5.32985071E-05 -2.59153789E-09  2.74463669E-04 -2.58480363E-04 -2.10942861E-04
 -2.46254066E-08  1.28921615E-04  5.22747522E-04  1.59009716E-05  1.61441713E-04
  2.20698453E-08  5.49164651E-08 -3.49701989E-06  1.45645127E-05  3.08735471E-06
 -1.48464196E-05 -1.25012778E-04  1.20156186E-04  5.50866740E-05  1.02830394E-04
 -3.45055508E-09  5.42284470E-04 -4.01918373E-04 -8.00353770E-04  2.08825478E-08
 -1.39905568E-04 -4.19133810E-04  1.49036290E-04  2.26279777E-04 -2.41829712E-08
  4.27795388E-08 -1.25014960E-04  1.20192037E-04 -5.50832651E-05 -1.02838523E-04
 -7.90897803E-09  5.42189339E-04  4.01904677E-04  8.00437977E-04  5.46879522E-08
 -1.39904824E-04 -4.19150304E-04  1.49066450E-04  2.26297214E-04  1.90056553E-08
 -5.21752747E-08 -1.69337770E-04  5.66055841E-04 -2.46361790E-05 -2.53281775E-04
  2.47749483E-08 -3.63963374E-03  2.89393411E-04  1.41858264E-03 -1.27153115E-07
  2.93930249E-04  2.14487283E-04  2.59874225E-04  5.15551406E-05 -3.20769481E-10
  1.06415668E-08 -1.69347723E-04  5.66088977E-04  2.46400071E-05  2.53295209E-04
  3.21045334E-08 -3.63977938E-03 -2.89381321E-04 -1.41866880E-03 -1.73209384E-07
  2.93943199E-04  2.14487458E-04  2.59899243E-04  5.15578553E-05  2.92772025E-09
 -1.03065694E-08  7.04028584E-01  1.84443482E-02  3.87868902E-04 -3.60312586E-04
  3.08968746E-08 -1.05907771E-03  1.05053263E-03  3.08934187E-03 -6.26030986E-08
 -1.38867031E-03 -6.52253153E-04 -1.78755897E-03  2.26501376E-05  4.52601855E-09
 -9.08522397E-08  7.04068213E-01  1.84453883E-02 -3.87889191E-04  3.60332511E-04
  2.73855395E-08 -1.05951932E-03 -1.05083411E-03 -3.08941634E-03 -1.76582946E-07
 -1.38869607E-03 -6.52258329E-04 -1.78764022E-03  2.26552029E-05  1.12407643E-08
  1.25290001E-07  2.08797992E-04  2.08222440E-04  2.08809964E-04  2.08209464E-04
 -3.87328349E-05  6.36744643E-04 -5.99485764E-05  1.45123508E-04 -1.05561726E-08
 -1.69249558E-03  2.53722741E-04 -1.49719133E-03  1.05302215E-07  1.06698686E-05
 -2.91467161E-04  5.32537707E-04  3.15281247E-04 -3.84982042E-08  7.22927017E-08
  3.87258224E-05 -6.36737871E-04 -5.99517021E-05  1.45117671E-04  1.23053457E-08
  1.69252557E-03  2.53745077E-04 -1.49714612E-03 -1.35358095E-07 -1.06777491E-05
  2.91443687E-04 -5.32529415E-04 -3.15268206E-04 -2.67574889E-08  8.63210439E-08
 -1.78772540E-04  5.86665329E-04 -6.84933027E-05 -2.41156823E-04  1.33072192E-08
 -2.57433449E-03 -2.30520364E-04  1.52779818E-03 -1.04019769E-07  2.30078344E-04
  4.79742248E-06  4.42445248E-04  5.31904400E-05 -1.11077216E-08  3.40827610E-08
  1.78762944E-04 -5.86633357E-04 -6.84918855E-05 -2.41142383E-04 -2.17588386E-08
  2.57412961E-03 -2.30536222E-04  1.52771841E-03  1.35747252E-07 -2.30061865E-04
 -4.78507125E-06 -4.42430635E-04 -5.31873162E-05 -4.40926765E-09  4.53449213E-08
  7.04359601E-01  1.84887001E-02  3.55817297E-04 -3.52473468E-04  3.27638662E-08
 -7.87918083E-03  5.38748629E-03  1.31423299E-03  7.36281235E-08 -4.60242149E-04
 -9.56501552E-05 -1.44347817E-03  8.80030063E-05  2.49815752E-08 -1.00907866E-07
 -7.04319988E-01 -1.84876623E-02  3.55795652E-04 -3.52453408E-04 -3.00808226E-08
  7.87912171E-03  5.38742644E-03  1.31405924E-03  1.37307086E-07  4.60164137E-04
  9.56131099E-05  1.44337758E-03 -8.80020487E-05 -1.46519339E-08 -1.43769701E-07
  2.07091162E-04 -2.44367634E-04 -2.07079569E-04  2.44379322E-04 -1.06205463E-01
  2.41772169E-01 -3.33004026E-03  6.16739863E-02 -4.20817750E-06  2.12429674E-01
  5.39065462E-03  3.44658861E-02 -2.00308236E-06  1.13762322E-02  1.15110511E-02
 -7.25964541E-06 -1.08002701E-03  4.01965317E-07 -9.42737719E-07 -1.06205868E-01
  2.41773081E-01  3.33000397E-03 -6.16742392E-02 -5.68273559E-06  2.12430519E-01
 -5.39067809E-03 -3.44660313E-02 -3.06593859E-06  1.13762624E-02  1.15110959E-02
 -7.26731974E-06 -1.08001287E-03  3.25651419E-09  1.24873536E-06 -7.68080515E-02
  1.70706282E-01 -2.18227445E-02 -6.08150376E-02  3.42721625E-06  1.45668256E-01
 -3.78357475E-03 -2.45288673E-02  1.51305079E-06 -2.44741032E-04  8.03801377E-03
 -2.59886590E-05  2.90409781E-03 -2.18905171E-07 -5.45608170E-07 -7.68081943E-02
  1.70706594E-01  2.18227645E-02  6.08151584E-02  5.70847774E-06  1.45668555E-01
  3.78356766E-03  2.45289387E-02  2.26778122E-06 -2.44749728E-04  8.03803451E-03
 -2.59928082E-05  2.90409993E-03  2.85186261E-07  8.80482890E-07 -8.98197799E-02
  1.76412882E-01  3.82866436E-02  3.55665950E-03  9.55538989E-07  3.68021844E-02
 -1.44333585E-02 -4.55519462E-03 -8.34153352E-08  2.32199064E-03  1.72734460E-02
 -1.38072098E-02 -7.95081798E-04  6.13264191E-07 -2.42862831E-06 -8.98199814E-02
  1.76413263E-01 -3.82868870E-02 -3.55652562E-03 -3.99333011E-07  3.68022716E-02
  1.44334087E-02  4.55519381E-03  5.09612446E-07  2.32196723E-03  1.72735013E-02
 -1.38072454E-02 -7.95108930E-04 -2.05349980E-08  3.32437454E-06  5.39814475E-02
 -4.32669868E-03  5.39816921E-02 -4.32672086E-03 -1.20025584E-01  2.68901266E-01
  7.41340354E-03  6.59913629E-02 -4.05014372E-06  2.57728668E-01  3.88420662E-03
  4.10605314E-02 -2.45173929E-06  1.12921086E-02  1.06379915E-02 -2.22480002E-03
 -6.62854680E-04  4.18587570E-07 -1.00536843E-06  1.20025309E-01 -2.68900640E-01
  7.41344569E-03  6.59912366E-02  5.98920116E-06 -2.57728115E-01  3.88420623E-03
  4.10604561E-02  3.63415849E-06 -1.12920684E-02 -1.06379697E-02  2.22480274E-03
  6.62832348E-04 -7.84571481E-08 -1.36491497E-06 -7.08453613E-02  1.56107213E-01
 -1.20035505E-02 -5.70433643E-02  3.23320082E-06  1.40882421E-01  1.68517581E-04
 -2.70443342E-02  1.70023115E-06 -2.14790328E-03  8.87876901E-03 -1.11494132E-03
  2.05655288E-03 -1.18102302E-07 -6.81438080E-07  7.08450651E-02 -1.56106552E-01
 -1.20034760E-02 -5.70431354E-02 -5.09433690E-06 -1.40881858E-01  1.68532808E-04
 -2.70442495E-02 -2.38972270E-06  2.14790355E-03 -8.87873966E-03  1.11494214E-03
 -2.05654094E-03 -1.31625736E-07 -1.04576597E-06 -7.28563308E-02  1.39601510E-01
  8.38526325E-02 -1.95335710E-03  2.39401877E-06  3.43734396E-02 -2.21818565E-02
 -2.87039988E-04 -8.90998942E-07 -8.94574647E-03  1.71525158E-02 -1.23447146E-02
 -6.17731042E-03  5.34727361E-07 -2.40164306E-06  7.28560436E-02 -1.39600943E-01
  8.38525154E-02 -1.95348576E-03  3.18117862E-07 -3.43733219E-02 -2.21817985E-02
 -2.87014301E-04  1.53557757E-07  8.94575444E-03 -1.71524691E-02  1.23446719E-02
  6.17731681E-03  5.63707268E-07 -3.07327780E-06  6.49904980E-02 -2.73866478E-03
 -6.49903934E-02  2.73866455E-03  8.28522212E-02 -1.86792192E-01 -4.21818265E-03
 -2.20089804E-02  1.66078179E-06 -1.84197126E-01 -2.27952891E-03 -1.08024344E-02
  4.76496424E-07 -1.01525086E-02 -9.91773397E-04  5.57073563E-04 -1.27243672E-03
 -2.62601013E-07  8.97087020E-08 -8.28523915E-02  1.86792570E-01 -4.21821316E-03
 -2.20090459E-02 -2.36497825E-06  1.84197561E-01 -2.27953793E-03 -1.08024812E-02
 -8.29031457E-07  1.01525201E-02  9.91775210E-04 -5.57076735E-04  1.27244790E-03
  1.77406871E-07  1.77524323E-07 -1.22803163E-01  2.68246162E-01 -3.65928522E-02
 -7.03872896E-02  3.83861021E-06  2.57668863E-01 -1.71351715E-02 -3.12023749E-02
  1.32090483E-06  6.65283264E-04  7.97367994E-03 -3.49401863E-03  6.21726328E-03
 -2.76925073E-07 -6.85733794E-07  1.22803494E-01 -2.68246883E-01 -3.65929464E-02