
    -----------------------------------------------------------------------
          Psi4: An Open-Source Ab Initio Electronic Structure Package
                               Psi4 1.3.2 release

                         Git: Rev {HEAD} ecbda83 


    R. M. Parrish, L. A. Burns, D. G. A. Smith, A. C. Simmonett,
    A. E. DePrince III, E. G. Hohenstein, U. Bozkaya, A. Yu. Sokolov,
    R. Di Remigio, R. M. Richard, J. F. Gonthier, A. M. James,
    H. R. McAlexander, A. Kumar, M. Saitow, X. Wang, B. P. Pritchard,
    P. Verma, H. F. Schaefer III, K. Patkowski, R. A. King, E. F. Valeev,
    F. A. Evangelista, J. M. Turney, T. D. Crawford, and C. D. Sherrill,
    J. Chem. Theory Comput. 13(7) pp 3185--3197 (2017).
    (doi: 10.1021/acs.jctc.7b00174)


                         Additional Contributions by
    P. Kraus, H. Kruse, M. H. Lechner, M. C. Schieber, R. A. Shaw,
    A. Alenaizan, R. Galvelis, Z. L. Glick, S. Lehtola, and J. P. Misiewicz

    -----------------------------------------------------------------------


    Psi4 started on: Saturday, 27 March 2021 07:08PM

    Process ID: 25572
    Host:       node144.bme.utexas.edu
    PSIDATADIR: /home/xy3866/psi4conda/share/psi4
    Memory:     500.0 MiB
    Threads:    8
    
  ==> Input File <==

--------------------------------------------------------------------------
#psi4
#
memory 32 gb

molecule  {
0 1
  O        1.8881650     1.4432750    -0.0000100
  O       -3.1767040     0.9881070     0.0000170
  C       -0.5155700     0.0356770    -0.0000120
  C        0.8140500    -0.7053830     0.0000180
  C       -1.6970590    -0.9239890    -0.0000140
  C        2.0167370     0.2220750     0.0000010
  C        3.3799790    -0.4356510     0.0000020
  C       -3.0337740    -0.2274000    -0.0000030
  H       -0.5729570     0.6949060     0.8703990
  H       -0.5729310     0.6948780    -0.8704450
  H        0.8958950    -1.3682810    -0.8735520
  H        0.8958840    -1.3682250     0.8736320
  H       -1.6727150    -1.5924060     0.8735570
  H       -1.6727210    -1.5923950    -0.8735930
  H        3.4942430    -1.0743930    -0.8818600
  H        3.4942540    -1.0743610     0.8818860
  H        4.1535670     0.3330070    -0.0000160
  H       -3.9203829    -0.8957527    -0.2000150
units angstrom
no_reorient  #important for SAPT in psi4, default
symmetry c1  #important for SAPT in psi4, default
}

set PROPERTIES_ORIGIN ["COM"]
properties('MP2/aug-cc-pvtz', properties = ['dipole'])
--------------------------------------------------------------------------

  Memory set to  29.802 GiB by Python driver.
    SCF Algorithm Type (re)set to DF.

*** tstart() called on node144.bme.utexas.edu
*** at Sat Mar 27 19:08:06 2021

   => Loading Basis Set <=

    Name: AUG-CC-PVTZ
    Role: ORBITAL
    Keyword: BASIS
    atoms 1-2  entry O          line   327 file /home/xy3866/psi4conda/share/psi4/basis/aug-cc-pvtz.gbs 
    atoms 3-8  entry C          line   235 file /home/xy3866/psi4conda/share/psi4/basis/aug-cc-pvtz.gbs 
    atoms 9-18 entry H          line    36 file /home/xy3866/psi4conda/share/psi4/basis/aug-cc-pvtz.gbs 


         ---------------------------------------------------------
                                   SCF
               by Justin Turney, Rob Parrish, Andy Simmonett
                          and Daniel G. A. Smith
                              RHF Reference
                        8 Threads,  30517 MiB Core
         ---------------------------------------------------------

  ==> Geometry <==

    Molecular point group: c1
    Full point group: C1

    Geometry (in Angstrom), charge = 0, multiplicity = 1:

       Center              X                  Y                   Z               Mass       
    ------------   -----------------  -----------------  -----------------  -----------------
         O            1.927441485985     1.380382769859     0.001756980715    15.994914619570
         O           -3.137427514015     0.925214769859     0.001783980715    15.994914619570
         C           -0.476293514015    -0.027215230141     0.001754980715    12.000000000000
         C            0.853326485985    -0.768275230141     0.001784980715    12.000000000000
         C           -1.657782514015    -0.986881230141     0.001752980715    12.000000000000
         C            2.056013485985     0.159182769859     0.001767980715    12.000000000000
         C            3.419255485985    -0.498543230141     0.001768980715    12.000000000000
         C           -2.994497514015    -0.290292230141     0.001763980715    12.000000000000
         H           -0.533680514015     0.632013769859     0.872165980715     1.007825032230
         H           -0.533654514015     0.631985769859    -0.868678019285     1.007825032230
         H            0.935171485985    -1.431173230141    -0.871785019285     1.007825032230
         H            0.935160485985    -1.431117230141     0.875398980715     1.007825032230
         H           -1.633438514015    -1.655298230141     0.875323980715     1.007825032230
         H           -1.633444514015    -1.655287230141    -0.871826019285     1.007825032230
         H            3.533519485985    -1.137285230141    -0.880093019285     1.007825032230
         H            3.533530485985    -1.137253230141     0.883652980715     1.007825032230
         H            4.192843485985     0.270114769859     0.001750980715     1.007825032230
         H           -3.881106414015    -0.958644930141    -0.198248019285     1.007825032230

  Running in c1 symmetry.

  Rotational constants: A =      0.19262  B =      0.02668  C =      0.02384 [cm^-1]
  Rotational constants: A =   5774.53444  B =    799.74629  C =    714.79811 [MHz]
  Nuclear repulsion =  353.214005352163610

  Charge       = 0
  Multiplicity = 1
  Electrons    = 62
  Nalpha       = 31
  Nbeta        = 31

  ==> Algorithm <==

  SCF Algorithm Type is DF.
  DIIS enabled.
  MOM disabled.
  Fractional occupation disabled.
  Guess Type is SAD.
  Energy threshold   = 1.00e-10
  Density threshold  = 1.00e-10
  Integral threshold = 0.00e+00

  ==> Primary Basis <==

  Basis Set: AUG-CC-PVTZ
    Blend: AUG-CC-PVTZ
    Number of shells: 202
    Number of basis function: 598
    Number of Cartesian functions: 690
    Spherical Harmonics?: true
    Max angular momentum: 3

   => Loading Basis Set <=

    Name: (AUG-CC-PVTZ AUX)
    Role: JKFIT
    Keyword: DF_BASIS_SCF
    atoms 1-2  entry O          line   286 file /home/xy3866/psi4conda/share/psi4/basis/aug-cc-pvtz-jkfit.gbs 
    atoms 3-8  entry C          line   162 file /home/xy3866/psi4conda/share/psi4/basis/aug-cc-pvtz-jkfit.gbs 
    atoms 9-18 entry H          line    70 file /home/xy3866/psi4conda/share/psi4/basis/aug-cc-pvtz-jkfit.gbs 

  ==> Pre-Iterations <==

   -------------------------------------------------------
    Irrep   Nso     Nmo     Nalpha   Nbeta   Ndocc  Nsocc
   -------------------------------------------------------
     A        598     598       0       0       0       0
   -------------------------------------------------------
    Total     598     598      31      31      31       0
   -------------------------------------------------------

  ==> Integral Setup <==

  DFHelper Memory: AOs need 3.285 GiB; user supplied 22.352 GiB. Using in-core AOs.

  ==> MemDFJK: Density-Fitted J/K Matrices <==

    J tasked:                   Yes
    K tasked:                   Yes
    wK tasked:                   No
    OpenMP threads:               8
    Memory [MiB]:             22888
    Algorithm:                 Disk
    Schwarz Cutoff:           1E-12
    Mask sparsity (%):       7.6431
    Fitting Condition:        1E-10

   => Auxiliary Basis Set <=

  Basis Set: (AUG-CC-PVTZ AUX)
    Blend: AUG-CC-PVTZ-JKFIT
    Number of shells: 380
    Number of basis function: 1292
    Number of Cartesian functions: 1598
    Spherical Harmonics?: true
    Max angular momentum: 4

  Minimum eigenvalue in the overlap matrix is 3.7155862540E-06.
  Using Symmetric Orthogonalization.

  SCF Guess: Superposition of Atomic Densities via on-the-fly atomic UHF.

  ==> Iterations <==

                           Total Energy        Delta E     RMS |[F,P]|

   @DF-RHF iter SAD:  -381.71882045407438   -3.81719e+02   0.00000e+00 
   @DF-RHF iter   1:  -382.56813409811718   -8.49314e-01   1.27850e-03 DIIS
   @DF-RHF iter   2:  -382.79933989601204   -2.31206e-01   8.05262e-04 DIIS
   @DF-RHF iter   3:  -382.88183649735845   -8.24966e-02   1.65466e-04 DIIS
   @DF-RHF iter   4:  -382.88790203661227   -6.06554e-03   6.47851e-05 DIIS
   @DF-RHF iter   5:  -382.88902166974822   -1.11963e-03   1.24204e-05 DIIS
   @DF-RHF iter   6:  -382.88909590765240   -7.42379e-05   5.73743e-06 DIIS
   @DF-RHF iter   7:  -382.88910896476989   -1.30571e-05   2.54716e-06 DIIS
   @DF-RHF iter   8:  -382.88911201613337   -3.05136e-06   7.80800e-07 DIIS
   @DF-RHF iter   9:  -382.88911238989368   -3.73760e-07   1.54455e-07 DIIS
   @DF-RHF iter  10:  -382.88911240431258   -1.44189e-08   6.48188e-08 DIIS
   @DF-RHF iter  11:  -382.88911240624350   -1.93091e-09   3.51712e-08 DIIS
   @DF-RHF iter  12:  -382.88911240716476   -9.21261e-10   1.95154e-08 DIIS
   @DF-RHF iter  13:  -382.88911240755931   -3.94550e-10   8.87545e-09 DIIS
   @DF-RHF iter  14:  -382.88911240765276   -9.34506e-11   2.78658e-09 DIIS
   @DF-RHF iter  15:  -382.88911240765867   -5.91172e-12   8.94451e-10 DIIS
   @DF-RHF iter  16:  -382.88911240765947   -7.95808e-13   2.32585e-10 DIIS
   @DF-RHF iter  17:  -382.88911240765941    5.68434e-14   7.66205e-11 DIIS
  Energy and wave function converged.


  ==> Post-Iterations <==

    Orbital Energies [Eh]
    ---------------------

    Doubly Occupied:                                                      

       1A    -20.561380     2A    -20.548926     3A    -11.339901  
       4A    -11.337219     5A    -11.251204     6A    -11.248133  
       7A    -11.240504     8A    -11.231253     9A     -1.385870  
      10A     -1.379556    11A     -1.098422    12A     -1.035795  
      13A     -0.983074    14A     -0.872225    15A     -0.774733  
      16A     -0.741930    17A     -0.675049    18A     -0.665297  
      19A     -0.657266    20A     -0.625195    21A     -0.614651  
      22A     -0.611753    23A     -0.571113    24A     -0.563478  
      25A     -0.519740    26A     -0.508496    27A     -0.506680  
      28A     -0.488519    29A     -0.484816    30A     -0.430310  
      31A     -0.412291  

    Virtual:                                                              

      32A      0.020024    33A      0.027245    34A      0.032464  
      35A      0.040893    36A      0.049598    37A      0.050365  
      38A      0.056416    39A      0.066408    40A      0.071588  
      41A      0.073795    42A      0.083728    43A      0.089384  
      44A      0.104354    45A      0.109502    46A      0.111782  
      47A      0.115436    48A      0.118447    49A      0.123973  
      50A      0.126858    51A      0.129292    52A      0.137390  
      53A      0.140098    54A      0.143796    55A      0.150631  
      56A      0.154100    57A      0.156261    58A      0.160153  
      59A      0.170420    60A      0.173505    61A      0.180334  
      62A      0.195146    63A      0.201883    64A      0.208044  
      65A      0.217671    66A      0.221419    67A      0.227413  
      68A      0.228650    69A      0.235887    70A      0.242971  
      71A      0.247198    72A      0.251680    73A      0.256735  
      74A      0.261414    75A      0.272055    76A      0.278443  
      77A      0.284899    78A      0.291506    79A      0.304860  
      80A      0.306815    81A      0.310164    82A      0.313903  
      83A      0.321807    84A      0.329111    85A      0.333549  
      86A      0.340160    87A      0.341117    88A      0.349179  
      89A      0.350222    90A      0.355377    91A      0.359259  
      92A      0.363246    93A      0.370728    94A      0.374231  
      95A      0.380988    96A      0.388337    97A      0.395089  
      98A      0.399278    99A      0.401245   100A      0.407291  
     101A      0.411841   102A      0.415090   103A      0.418430  
     104A      0.422459   105A      0.423800   106A      0.428374  
     107A      0.430997   108A      0.438060   109A      0.442769  
     110A      0.453197   111A      0.456475   112A      0.458799  
     113A      0.465349   114A      0.474103   115A      0.485968  
     116A      0.494887   117A      0.498690   118A      0.501942  
     119A      0.507964   120A      0.511559   121A      0.516822  
     122A      0.524414   123A      0.527975   124A      0.533507  
     125A      0.538176   126A      0.542223   127A      0.546552  
     128A      0.552032   129A      0.566233   130A      0.569113  
     131A      0.575323   132A      0.577083   133A      0.581597  
     134A      0.596947   135A      0.601662   136A      0.609734  
     137A      0.614451   138A      0.621179   139A      0.632745  
     140A      0.652128   141A      0.658408   142A      0.662024  
     143A      0.675870   144A      0.691176   145A      0.697537  
     146A      0.700189   147A      0.703656   148A      0.711857  
     149A      0.720861   150A      0.734563   151A      0.738308  
     152A      0.744188   153A      0.757469   154A      0.762981  
     155A      0.774097   156A      0.789616   157A      0.805581  
     158A      0.809013   159A      0.812112   160A      0.818604  
     161A      0.826569   162A      0.831165   163A      0.835706  
     164A      0.844562   165A      0.847852   166A      0.864041  
     167A      0.864339   168A      0.867059   169A      0.873533  
     170A      0.880317   171A      0.888761   172A      0.892161  
     173A      0.896173   174A      0.901790   175A      0.911536  
     176A      0.915587   177A      0.920402   178A      0.921667  
     179A      0.928702   180A      0.935502   181A      0.949438  
     182A      0.954200   183A      0.959637   184A      0.966701  
     185A      0.974963   186A      0.986040   187A      0.988530  
     188A      0.994292   189A      1.001212   190A      1.005688  
     191A      1.007767   192A      1.020679   193A      1.024368  
     194A      1.026654   195A      1.044328   196A      1.054636  
     197A      1.061558   198A      1.063012   199A      1.067639  
     200A      1.081607   201A      1.086739   202A      1.097636  
     203A      1.104202   204A      1.107570   205A      1.112690  
     206A      1.123336   207A      1.128909   208A      1.131172  
     209A      1.138224   210A      1.144963   211A      1.150404  
     212A      1.156117   213A      1.157486   214A      1.160389  
     215A      1.168580   216A      1.182806   217A      1.191015  
     218A      1.192113   219A      1.194350   220A      1.212993  
     221A      1.221702   222A      1.229092   223A      1.232768  
     224A      1.238161   225A      1.239274   226A      1.243334  
     227A      1.258006   228A      1.272541   229A      1.275381  
     230A      1.291473   231A      1.293931   232A      1.298525  
     233A      1.304002   234A      1.315010   235A      1.318157  
     236A      1.328037   237A      1.333196   238A      1.354742  
     239A      1.363967   240A      1.389979   241A      1.396109  
     242A      1.402454   243A      1.415420   244A      1.426987  
     245A      1.441081   246A      1.452622   247A      1.458325  
     248A      1.478078   249A      1.486326   250A      1.487064  
     251A      1.498675   252A      1.508308   253A      1.512444  
     254A      1.523627   255A      1.533840   256A      1.546804  
     257A      1.559950   258A      1.564421   259A      1.575596  
     260A      1.584554   261A      1.588200   262A      1.606057  
     263A      1.611973   264A      1.617022   265A      1.623828  
     266A      1.630911   267A      1.638855   268A      1.645492  
     269A      1.658315   270A      1.659315   271A      1.667668  
     272A      1.675931   273A      1.680132   274A      1.690659  
     275A      1.693763   276A      1.704138   277A      1.714765  
     278A      1.732430   279A      1.742137   280A      1.745169  
     281A      1.749727   282A      1.755354   283A      1.764929  
     284A      1.774860   285A      1.786089   286A      1.796080  
     287A      1.804502   288A      1.816627   289A      1.819231  
     290A      1.827853   291A      1.831913   292A      1.842721  
     293A      1.856453   294A      1.868177   295A      1.878851  
     296A      1.884967   297A      1.891560   298A      1.908248  
     299A      1.912414   300A      1.924020   301A      1.938578  
     302A      1.941277   303A      1.956847   304A      1.962766  
     305A      1.974784   306A      1.989216   307A      1.994752  
     308A      2.006699   309A      2.014344   310A      2.023801  
     311A      2.036588   312A      2.048676   313A      2.060644  
     314A      2.073921   315A      2.091050   316A      2.094380  
     317A      2.120513   318A      2.133863   319A      2.156665  
     320A      2.165285   321A      2.184023   322A      2.204779  
     323A      2.212078   324A      2.215140   325A      2.234864  
     326A      2.241976   327A      2.256643   328A      2.265603  
     329A      2.275290   330A      2.300898   331A      2.309048  
     332A      2.327381   333A      2.336791   334A      2.339121  
     335A      2.349790   336A      2.356325   337A      2.362532  
     338A      2.387151   339A      2.407094   340A      2.420037  
     341A      2.434166   342A      2.446807   343A      2.475873  
     344A      2.479773   345A      2.490288   346A      2.512129  
     347A      2.534347   348A      2.555361   349A      2.577591  
     350A      2.595322   351A      2.598227   352A      2.639981  
     353A      2.649775   354A      2.657146   355A      2.665160  
     356A      2.679953   357A      2.711393   358A      2.723336  
     359A      2.730822   360A      2.757187   361A      2.763499  
     362A      2.783192   363A      2.795917   364A      2.823556  
     365A      2.864123   366A      2.880526   367A      2.888259  
     368A      2.904127   369A      2.927705   370A      2.966827  
     371A      3.001239   372A      3.025993   373A      3.043053  
     374A      3.060775   375A      3.112609   376A      3.125655  
     377A      3.181869   378A      3.196878   379A      3.220084  
     380A      3.225798   381A      3.255974   382A      3.258325  
     383A      3.305210   384A      3.354203   385A      3.388065  
     386A      3.391907   387A      3.398364   388A      3.431595  
     389A      3.444299   390A      3.447948   391A      3.458202  
     392A      3.469893   393A      3.497987   394A      3.517708  
     395A      3.520455   396A      3.533281   397A      3.555605  
     398A      3.577829   399A      3.580792   400A      3.585860  
     401A      3.599959   402A      3.627424   403A      3.646474  
     404A      3.659764   405A      3.671331   406A      3.677611  
     407A      3.684855   408A      3.690942   409A      3.699574  
     410A      3.707686   411A      3.727462   412A      3.750964  
     413A      3.766595   414A      3.787807   415A      3.793599  
     416A      3.800146   417A      3.816041   418A      3.834058  
     419A      3.845793   420A      3.852692   421A      3.871949  
     422A      3.875413   423A      3.891062   424A      3.911853  
     425A      3.915900   426A      3.926869   427A      3.936865  
     428A      3.952030   429A      3.956927   430A      3.967502  
     431A      3.988450   432A      3.995230   433A      3.998317  
     434A      4.003945   435A      4.012925   436A      4.037542  
     437A      4.039782   438A      4.064522   439A      4.069627  
     440A      4.086462   441A      4.095941   442A      4.139486  
     443A      4.143021   444A      4.151259   445A      4.184794  
     446A      4.188588   447A      4.196963   448A      4.217746  
     449A      4.224653   450A      4.226478   451A      4.240821  
     452A      4.258365   453A      4.271396   454A      4.280421  
     455A      4.309118   456A      4.313815   457A      4.321288  
     458A      4.334547   459A      4.343782   460A      4.354201  
     461A      4.389121   462A      4.394226   463A      4.428872  
     464A      4.437718   465A      4.452688   466A      4.461639  
     467A      4.477053   468A      4.508348   469A      4.512175  
     470A      4.529931   471A      4.541686   472A      4.548601  
     473A      4.559730   474A      4.579521   475A      4.595398  
     476A      4.636193   477A      4.647657   478A      4.658869  
     479A      4.688346   480A      4.700806   481A      4.719416  
     482A      4.737061   483A      4.761315   484A      4.770850  
     485A      4.791702   486A      4.806594   487A      4.815510  
     488A      4.831502   489A      4.837379   490A      4.845051  
     491A      4.875731   492A      4.890455   493A      4.907767  
     494A      4.929898   495A      4.935021   496A      4.961295  
     497A      5.005687   498A      5.014177   499A      5.025713  
     500A      5.034904   501A      5.057228   502A      5.073534  
     503A      5.100559   504A      5.110616   505A      5.137685  
     506A      5.153327   507A      5.159385   508A      5.168366  
     509A      5.202979   510A      5.218004   511A      5.229305  
     512A      5.253308   513A      5.256570   514A      5.274993  
     515A      5.295186   516A      5.309871   517A      5.333234  
     518A      5.356496   519A      5.362879   520A      5.383716  
     521A      5.408417   522A      5.413572   523A      5.439893  
     524A      5.457542   525A      5.488914   526A      5.498903  
     527A      5.514537   528A      5.525096   529A      5.589417  
     530A      5.600018   531A      5.601949   532A      5.633415  
     533A      5.662279   534A      5.681291   535A      5.685309  
     536A      5.705241   537A      5.721782   538A      5.745572  
     539A      5.765966   540A      5.783175   541A      5.818882  
     542A      5.866423   543A      5.959425   544A      5.989707  
     545A      5.999562   546A      6.042495   547A      6.051293  
     548A      6.080887   549A      6.101038   550A      6.116380  
     551A      6.141596   552A      6.159610   553A      6.191418  
     554A      6.201679   555A      6.272548   556A      6.312282  
     557A      6.446756   558A      6.488500   559A      6.506151  
     560A      6.567494   561A      6.608256   562A      6.708799  
     563A      6.724618   564A      6.748929   565A      6.763021  
     566A      6.791328   567A      6.795024   568A      6.809501  
     569A      6.850404   570A      6.955797   571A      7.006690  
     572A      7.053523   573A      7.076689   574A      7.120959  
     575A      7.207113   576A      7.252651   577A      7.352074  
     578A      7.380261   579A      7.412790   580A      7.500524  
     581A      7.513434   582A      7.526741   583A      7.588905  
     584A      7.620379   585A      7.700794   586A      7.743756  
     587A      7.841584   588A      7.894893   589A      7.940243  
     590A      8.029294   591A     15.153329   592A     15.281673  
     593A     16.559003   594A     17.453333   595A     17.745256  
     596A     18.719613   597A     19.127154   598A     20.207567  

    Final Occupation by Irrep:
              A 
    DOCC [    31 ]

  @DF-RHF Final Energy:  -382.88911240765941

   => Energetics <=

    Nuclear Repulsion Energy =            353.2140053521636105
    One-Electron Energy =               -1221.4766767195801549
    Two-Electron Energy =                 485.3735589597570765
    Total Energy =                       -382.8891124076594110

Computation Completed

*** tstop() called on node144.bme.utexas.edu at Sat Mar 27 19:09:14 2021
Module time:
	user time   =     309.09 seconds =       5.15 minutes
	system time =      37.91 seconds =       0.63 minutes
	total time  =         68 seconds =       1.13 minutes
Total time:
	user time   =     309.09 seconds =       5.15 minutes
	system time =      37.91 seconds =       0.63 minutes
	total time  =         68 seconds =       1.13 minutes
   => Loading Basis Set <=

    Name: (AUG-CC-PVTZ AUX)
    Role: RIFIT
    Keyword: DF_BASIS_MP2
    atoms 1-2  entry O          line   264 file /home/xy3866/psi4conda/share/psi4/basis/aug-cc-pvtz-ri.gbs 
    atoms 3-8  entry C          line   148 file /home/xy3866/psi4conda/share/psi4/basis/aug-cc-pvtz-ri.gbs 
    atoms 9-18 entry H          line    30 file /home/xy3866/psi4conda/share/psi4/basis/aug-cc-pvtz-ri.gbs 


*** tstart() called on node144.bme.utexas.edu
*** at Sat Mar 27 19:09:14 2021


  //>>>>>>>>>>>>>>>>>>>>>>>>>>>>>>>>>>>//
  //               DFMP2               //
  //<<<<<<<<<<<<<<<<<<<<<<<<<<<<<<<<<<<//

	 --------------------------------------------------------
	                          DF-MP2                         
	      2nd-Order Density-Fitted Moller-Plesset Theory     
	              RMP2 Wavefunction,   8 Threads             
	                                                         
	        Rob Parrish, Justin Turney, Andy Simmonett,      
	           Ed Hohenstein, and C. David Sherrill          
	 --------------------------------------------------------

   => Auxiliary Basis Set <=

  Basis Set: (AUG-CC-PVTZ AUX)
    Blend: AUG-CC-PVTZ-RI
    Number of shells: 364
    Number of basis function: 1308
    Number of Cartesian functions: 1638
    Spherical Harmonics?: true
    Max angular momentum: 4

	 --------------------------------------------------------
	                 NBF =   598, NAUX =  1308
	 --------------------------------------------------------
	   CLASS    FOCC     OCC    AOCC    AVIR     VIR    FVIR
	   PAIRS       0      31      31     567     567       0
	 --------------------------------------------------------

  DFHelper Memory: AOs need 3.285 GiB; user supplied 22.352 GiB. Using in-core AOs.


         ------------------------------------------------------------
                                     CPHF                           
                                  Rob Parrish                       
         ------------------------------------------------------------

  ==> Geometry <==

    Molecular point group: c1
    Full point group: C1

    Geometry (in Angstrom), charge = 0, multiplicity = 1:

       Center              X                  Y                   Z               Mass       
    ------------   -----------------  -----------------  -----------------  -----------------
         O            1.927441485985     1.380382769859     0.001756980715    15.994914619570
         O           -3.137427514015     0.925214769859     0.001783980715    15.994914619570
         C           -0.476293514015    -0.027215230141     0.001754980715    12.000000000000
         C            0.853326485985    -0.768275230141     0.001784980715    12.000000000000
         C           -1.657782514015    -0.986881230141     0.001752980715    12.000000000000
         C            2.056013485985     0.159182769859     0.001767980715    12.000000000000
         C            3.419255485985    -0.498543230141     0.001768980715    12.000000000000
         C           -2.994497514015    -0.290292230141     0.001763980715    12.000000000000
         H           -0.533680514015     0.632013769859     0.872165980715     1.007825032230
         H           -0.533654514015     0.631985769859    -0.868678019285     1.007825032230
         H            0.935171485985    -1.431173230141    -0.871785019285     1.007825032230
         H            0.935160485985    -1.431117230141     0.875398980715     1.007825032230
         H           -1.633438514015    -1.655298230141     0.875323980715     1.007825032230
         H           -1.633444514015    -1.655287230141    -0.871826019285     1.007825032230
         H            3.533519485985    -1.137285230141    -0.880093019285     1.007825032230
         H            3.533530485985    -1.137253230141     0.883652980715     1.007825032230
         H            4.192843485985     0.270114769859     0.001750980715     1.007825032230
         H           -3.881106414015    -0.958644930141    -0.198248019285     1.007825032230

  Nuclear repulsion =  353.214005352163610
  Reference energy  = -382.889112407659411

  ==> Basis Set <==

  Basis Set: AUG-CC-PVTZ
    Blend: AUG-CC-PVTZ
    Number of shells: 202
    Number of basis function: 598
    Number of Cartesian functions: 690
    Spherical Harmonics?: true
    Max angular momentum: 3

  ==> CGRSolver (by Rob Parrish) <==

   Number of roots    =         1
   Preconditioning    =    JACOBI
   Convergence cutoff =     1E-06
   Maximum iterations =       100

  ==> CPHFRHamiltonian (by Rob Parrish) <== 

  ==> MemDFJK: Density-Fitted J/K Matrices <==

    J tasked:                   Yes
    K tasked:                   Yes
    wK tasked:                   No
    OpenMP threads:               8
    Memory [MiB]:             22888
    Algorithm:                 Disk
    Schwarz Cutoff:           1E-12
    Mask sparsity (%):       7.6431
    Fitting Condition:        1E-10

   => Auxiliary Basis Set <=

  Basis Set: (AUG-CC-PVTZ AUX)
    Blend: AUG-CC-PVTZ-JKFIT
    Number of shells: 380
    Number of basis function: 1292
    Number of Cartesian functions: 1598
    Spherical Harmonics?: true
    Max angular momentum: 4

  ==> CPHF Iterations <==

  => Iterations <=

             Iter  Converged  Remaining    Residual
  CGR           1          0          1   1.125E-01
  CGR           2          0          1   3.182E-02
  CGR           3          0          1   9.782E-03
  CGR           4          0          1   3.285E-03
  CGR           5          0          1   1.172E-03
  CGR           6          0          1   4.519E-04
  CGR           7          0          1   1.058E-04
  CGR           8          0          1   3.181E-05
  CGR           9          0          1   1.441E-05
  CGR          10          0          1   9.441E-06
  CGR          11          0          1   4.269E-06
  CGR          12          0          1   1.447E-06
  CGR          13          1          0   3.625E-07

    CGRSolver converged.

	-----------------------------------------------------------
	 ==================> DF-MP2 Energies <==================== 
	-----------------------------------------------------------
	 Reference Energy          =    -382.8891124076594110 [Eh]
	 Singles Energy            =      -0.0000000000000000 [Eh]
	 Same-Spin Energy          =      -0.3796062597377470 [Eh]
	 Opposite-Spin Energy      =      -1.2550032882278741 [Eh]
	 Correlation Energy        =      -1.6346095479656211 [Eh]
	 Total Energy              =    -384.5237219556250352 [Eh]
	-----------------------------------------------------------
	 ================> DF-SCS-MP2 Energies <================== 
	-----------------------------------------------------------
	 SCS Same-Spin Scale       =       0.3333333333333333 [-]
	 SCS Opposite-Spin Scale   =       1.2000000000000000 [-]
	 SCS Same-Spin Energy      =      -0.1265354199125823 [Eh]
	 SCS Opposite-Spin Energy  =      -1.5060039458734489 [Eh]
	 SCS Correlation Energy    =      -1.6325393657860312 [Eh]
	 SCS Total Energy          =    -384.5216517734454555 [Eh]
	-----------------------------------------------------------



Properties will be evaluated at  -0.000000,   0.000000,  -0.000000 [a0]

Properties computed using the MP2 density matrix

  Nuclear Dipole Moment: [e a0]
     X:     4.6018      Y:    -7.3686      Z:    -0.1709

  Electronic Dipole Moment: [e a0]
     X:    -4.1413      Y:     5.3517      Z:     0.1464

  Dipole Moment: [e a0]
     X:     0.4605      Y:    -2.0170      Z:    -0.0245     Total:     2.0690

  Dipole Moment: [D]
     X:     1.1704      Y:    -5.1266      Z:    -0.0624     Total:     5.2589


*** tstop() called on node144.bme.utexas.edu at Sat Mar 27 19:11:53 2021
Module time:
	user time   =     975.60 seconds =      16.26 minutes
	system time =      41.02 seconds =       0.68 minutes
	total time  =        159 seconds =       2.65 minutes
Total time:
	user time   =    1284.88 seconds =      21.41 minutes
	system time =      78.93 seconds =       1.32 minutes
	total time  =        227 seconds =       3.78 minutes

    Psi4 stopped on: Saturday, 27 March 2021 07:11PM
    Psi4 wall time for execution: 0:03:47.25

*** Psi4 exiting successfully. Buy a developer a beer!
