7519                                                                    
Freq      RMP2-FC                                                     6-31G(d)            
Number of atoms                            I               16
Info1-9                                    I   N=           9
          28          26        1002           0           0         100
           6           2           1
Charge                                     I                0
Multiplicity                               I                1
Number of electrons                        I               58
Number of alpha electrons                  I               29
Number of beta electrons                   I               29
Number of basis functions                  I              136
Number of independent functions            I              136
Number of point charges in /Mol/           I                0
Number of translation vectors              I                0
Atomic numbers                             I   N=          16
           8           6           6           6           6           6
           6           6           1           1           1           1
           1           1           1           1
Nuclear charges                            R   N=          16
  8.00000000E+00  6.00000000E+00  6.00000000E+00  6.00000000E+00  6.00000000E+00
  6.00000000E+00  6.00000000E+00  6.00000000E+00  1.00000000E+00  1.00000000E+00
  1.00000000E+00  1.00000000E+00  1.00000000E+00  1.00000000E+00  1.00000000E+00
  1.00000000E+00
Current cartesian coordinates              R   N=          48
  3.33168376E+00 -1.29448436E+00  8.24568638E-05  8.59094096E-01 -5.12739706E-01
  1.89606463E-05  7.21208114E-02  2.01080682E+00 -3.96022209E-05 -9.33336826E-01
 -2.46277957E+00  2.43362162E-05 -2.51614150E+00  2.55606472E+00 -1.11420624E-04
 -3.49798899E+00 -1.89018106E+00 -4.85135878E-05 -4.30729658E+00  6.27368611E-01
 -1.07254051E-04  5.21111392E+00  6.30888297E-01  1.35597845E-04  1.42350972E+00
  3.55187731E+00 -4.97007608E-05 -2.61990281E-01 -4.40320164E+00  7.08837278E-05
 -3.11997538E+00  4.52065653E+00 -1.55892053E-04 -4.87309044E+00 -3.41726559E+00
 -4.27438736E-05 -6.31163668E+00  1.07377725E+00 -1.66386986E-04  5.07517863E+00
  1.81866682E+00  1.69046741E+00  5.07530921E+00  1.81863515E+00 -1.69022910E+00
  7.01383551E+00 -3.63839689E-01  2.13241037E-04
Force Field                                I                0
Int Atom Types                             I   N=          16
           0           0           0           0           0           0
           0           0           0           0           0           0
           0           0           0           0
MM charges                                 R   N=          16
  0.00000000E+00  0.00000000E+00  0.00000000E+00  0.00000000E+00  0.00000000E+00
  0.00000000E+00  0.00000000E+00  0.00000000E+00  0.00000000E+00  0.00000000E+00
  0.00000000E+00  0.00000000E+00  0.00000000E+00  0.00000000E+00  0.00000000E+00
  0.00000000E+00
Integer atomic weights                     I   N=          16
          16          12          12          12          12          12
          12          12           1           1           1           1
           1           1           1           1
Real atomic weights                        R   N=          16
  1.59949146E+01  1.20000000E+01  1.20000000E+01  1.20000000E+01  1.20000000E+01
  1.20000000E+01  1.20000000E+01  1.20000000E+01  1.00782504E+00  1.00782504E+00
  1.00782504E+00  1.00782504E+00  1.00782504E+00  1.00782504E+00  1.00782504E+00
  1.00782504E+00
Atom fragment info                         I   N=          16
           0           0           0           0           0           0
           0           0           0           0           0           0
           0           0           0           0
Atom residue num                           I   N=          16
           0           0           0           0           0           0
           0           0           0           0           0           0
           0           0           0           0
Nuclear spins                              I   N=          16
           0           0           0           0           0           0
           0           0           1           1           1           1
           1           1           1           1
Nuclear ZEff                               R   N=          16
 -5.60000000E+00 -3.60000000E+00 -3.60000000E+00 -3.60000000E+00 -3.60000000E+00
 -3.60000000E+00 -3.60000000E+00 -3.60000000E+00 -1.00000000E+00 -1.00000000E+00
 -1.00000000E+00 -1.00000000E+00 -1.00000000E+00 -1.00000000E+00 -1.00000000E+00
 -1.00000000E+00
Nuclear QMom                               R   N=          16
  0.00000000E+00  0.00000000E+00  0.00000000E+00  0.00000000E+00  0.00000000E+00
  0.00000000E+00  0.00000000E+00  0.00000000E+00  0.00000000E+00  0.00000000E+00
  0.00000000E+00  0.00000000E+00  0.00000000E+00  0.00000000E+00  0.00000000E+00
  0.00000000E+00
Nuclear GFac                               R   N=          16
  0.00000000E+00  0.00000000E+00  0.00000000E+00  0.00000000E+00  0.00000000E+00
  0.00000000E+00  0.00000000E+00  0.00000000E+00  2.79284600E+00  2.79284600E+00
  2.79284600E+00  2.79284600E+00  2.79284600E+00  2.79284600E+00  2.79284600E+00
  2.79284600E+00
MicOpt                                     I   N=          16
          -1          -1          -1          -1          -1          -1
          -1          -1          -1          -1          -1          -1
          -1          -1          -1          -1
Number of contracted shells                I               48
Number of primitive shells                 I              120
Pure/Cartesian d shells                    I                1
Pure/Cartesian f shells                    I                0
Highest angular momentum                   I                2
Largest degree of contraction              I                6
Shell types                                I   N=          48
           0          -1          -1           2           0          -1
          -1           2           0          -1          -1           2
           0          -1          -1           2           0          -1
          -1           2           0          -1          -1           2
           0          -1          -1           2           0          -1
          -1           2           0           0           0           0
           0           0           0           0           0           0
           0           0           0           0           0           0
Number of primitives per shell             I   N=          48
           6           3           1           1           6           3
           1           1           6           3           1           1
           6           3           1           1           6           3
           1           1           6           3           1           1
           6           3           1           1           6           3
           1           1           3           1           3           1
           3           1           3           1           3           1
           3           1           3           1           3           1
Shell to atom map                          I   N=          48
           1           1           1           1           2           2
           2           2           3           3           3           3
           4           4           4           4           5           5
           5           5           6           6           6           6
           7           7           7           7           8           8
           8           8           9           9          10          10
          11          11          12          12          13          13
          14          14          15          15          16          16
Primitive exponents                        R   N=         120
  5.48467166E+03  8.25234946E+02  1.88046958E+02  5.29645000E+01  1.68975704E+01
  5.79963534E+00  1.55396162E+01  3.59993359E+00  1.01376175E+00  2.70005823E-01
  8.00000000E-01  3.04752488E+03  4.57369518E+02  1.03948685E+02  2.92101553E+01
  9.28666296E+00  3.16392696E+00  7.86827235E+00  1.88128854E+00  5.44249258E-01
  1.68714478E-01  8.00000000E-01  3.04752488E+03  4.57369518E+02  1.03948685E+02
  2.92101553E+01  9.28666296E+00  3.16392696E+00  7.86827235E+00  1.88128854E+00
  5.44249258E-01  1.68714478E-01  8.00000000E-01  3.04752488E+03  4.57369518E+02
  1.03948685E+02  2.92101553E+01  9.28666296E+00  3.16392696E+00  7.86827235E+00
  1.88128854E+00  5.44249258E-01  1.68714478E-01  8.00000000E-01  3.04752488E+03
  4.57369518E+02  1.03948685E+02  2.92101553E+01  9.28666296E+00  3.16392696E+00
  7.86827235E+00  1.88128854E+00  5.44249258E-01  1.68714478E-01  8.00000000E-01
  3.04752488E+03  4.57369518E+02  1.03948685E+02  2.92101553E+01  9.28666296E+00
  3.16392696E+00  7.86827235E+00  1.88128854E+00  5.44249258E-01  1.68714478E-01
  8.00000000E-01  3.04752488E+03  4.57369518E+02  1.03948685E+02  2.92101553E+01
  9.28666296E+00  3.16392696E+00  7.86827235E+00  1.88128854E+00  5.44249258E-01
  1.68714478E-01  8.00000000E-01  3.04752488E+03  4.57369518E+02  1.03948685E+02
  2.92101553E+01  9.28666296E+00  3.16392696E+00  7.86827235E+00  1.88128854E+00
  5.44249258E-01  1.68714478E-01  8.00000000E-01  1.87311370E+01  2.82539436E+00
  6.40121692E-01  1.61277759E-01  1.87311370E+01  2.82539436E+00  6.40121692E-01
  1.61277759E-01  1.87311370E+01  2.82539436E+00  6.40121692E-01  1.61277759E-01
  1.87311370E+01  2.82539436E+00  6.40121692E-01  1.61277759E-01  1.87311370E+01
  2.82539436E+00  6.40121692E-01  1.61277759E-01  1.87311370E+01  2.82539436E+00
  6.40121692E-01  1.61277759E-01  1.87311370E+01  2.82539436E+00  6.40121692E-01
  1.61277759E-01  1.87311370E+01  2.82539436E+00  6.40121692E-01  1.61277759E-01
Contraction coefficients                   R   N=         120
  1.83107443E-03  1.39501722E-02  6.84450781E-02  2.32714336E-01  4.70192898E-01
  3.58520853E-01 -1.10777550E-01 -1.48026263E-01  1.13076702E+00  1.00000000E+00
  1.00000000E+00  1.83473713E-03  1.40373228E-02  6.88426223E-02  2.32184443E-01
  4.67941348E-01  3.62311985E-01 -1.19332420E-01 -1.60854152E-01  1.14345644E+00
  1.00000000E+00  1.00000000E+00  1.83473713E-03  1.40373228E-02  6.88426223E-02
  2.32184443E-01  4.67941348E-01  3.62311985E-01 -1.19332420E-01 -1.60854152E-01
  1.14345644E+00  1.00000000E+00  1.00000000E+00  1.83473713E-03  1.40373228E-02
  6.88426223E-02  2.32184443E-01  4.67941348E-01  3.62311985E-01 -1.19332420E-01
 -1.60854152E-01  1.14345644E+00  1.00000000E+00  1.00000000E+00  1.83473713E-03
  1.40373228E-02  6.88426223E-02  2.32184443E-01  4.67941348E-01  3.62311985E-01
 -1.19332420E-01 -1.60854152E-01  1.14345644E+00  1.00000000E+00  1.00000000E+00
  1.83473713E-03  1.40373228E-02  6.88426223E-02  2.32184443E-01  4.67941348E-01
  3.62311985E-01 -1.19332420E-01 -1.60854152E-01  1.14345644E+00  1.00000000E+00
  1.00000000E+00  1.83473713E-03  1.40373228E-02  6.88426223E-02  2.32184443E-01
  4.67941348E-01  3.62311985E-01 -1.19332420E-01 -1.60854152E-01  1.14345644E+00
  1.00000000E+00  1.00000000E+00  1.83473713E-03  1.40373228E-02  6.88426223E-02
  2.32184443E-01  4.67941348E-01  3.62311985E-01 -1.19332420E-01 -1.60854152E-01
  1.14345644E+00  1.00000000E+00  1.00000000E+00  3.34946043E-02  2.34726953E-01
  8.13757326E-01  1.00000000E+00  3.34946043E-02  2.34726953E-01  8.13757326E-01
  1.00000000E+00  3.34946043E-02  2.34726953E-01  8.13757326E-01  1.00000000E+00
  3.34946043E-02  2.34726953E-01  8.13757326E-01  1.00000000E+00  3.34946043E-02
  2.34726953E-01  8.13757326E-01  1.00000000E+00  3.34946043E-02  2.34726953E-01
  8.13757326E-01  1.00000000E+00  3.34946043E-02  2.34726953E-01  8.13757326E-01
  1.00000000E+00  3.34946043E-02  2.34726953E-01  8.13757326E-01  1.00000000E+00
P(S=P) Contraction coefficients            R   N=         120
  0.00000000E+00  0.00000000E+00  0.00000000E+00  0.00000000E+00  0.00000000E+00
  0.00000000E+00  7.08742682E-02  3.39752839E-01  7.27158577E-01  1.00000000E+00
  0.00000000E+00  0.00000000E+00  0.00000000E+00  0.00000000E+00  0.00000000E+00
  0.00000000E+00  0.00000000E+00  6.89990666E-02  3.16423961E-01  7.44308291E-01
  1.00000000E+00  0.00000000E+00  0.00000000E+00  0.00000000E+00  0.00000000E+00
  0.00000000E+00  0.00000000E+00  0.00000000E+00  6.89990666E-02  3.16423961E-01
  7.44308291E-01  1.00000000E+00  0.00000000E+00  0.00000000E+00  0.00000000E+00
  0.00000000E+00  0.00000000E+00  0.00000000E+00  0.00000000E+00  6.89990666E-02
  3.16423961E-01  7.44308291E-01  1.00000000E+00  0.00000000E+00  0.00000000E+00
  0.00000000E+00  0.00000000E+00  0.00000000E+00  0.00000000E+00  0.00000000E+00
  6.89990666E-02  3.16423961E-01  7.44308291E-01  1.00000000E+00  0.00000000E+00
  0.00000000E+00  0.00000000E+00  0.00000000E+00  0.00000000E+00  0.00000000E+00
  0.00000000E+00  6.89990666E-02  3.16423961E-01  7.44308291E-01  1.00000000E+00
  0.00000000E+00  0.00000000E+00  0.00000000E+00  0.00000000E+00  0.00000000E+00
  0.00000000E+00  0.00000000E+00  6.89990666E-02  3.16423961E-01  7.44308291E-01
  1.00000000E+00  0.00000000E+00  0.00000000E+00  0.00000000E+00  0.00000000E+00
  0.00000000E+00  0.00000000E+00  0.00000000E+00  6.89990666E-02  3.16423961E-01
  7.44308291E-01  1.00000000E+00  0.00000000E+00  0.00000000E+00  0.00000000E+00
  0.00000000E+00  0.00000000E+00  0.00000000E+00  0.00000000E+00  0.00000000E+00
  0.00000000E+00  0.00000000E+00  0.00000000E+00  0.00000000E+00  0.00000000E+00
  0.00000000E+00  0.00000000E+00  0.00000000E+00  0.00000000E+00  0.00000000E+00
  0.00000000E+00  0.00000000E+00  0.00000000E+00  0.00000000E+00  0.00000000E+00
  0.00000000E+00  0.00000000E+00  0.00000000E+00  0.00000000E+00  0.00000000E+00
  0.00000000E+00  0.00000000E+00  0.00000000E+00  0.00000000E+00  0.00000000E+00
Coordinates of each shell                  R   N=         144
  3.33168376E+00 -1.29448436E+00  8.24568638E-05  3.33168376E+00 -1.29448436E+00
  8.24568638E-05  3.33168376E+00 -1.29448436E+00  8.24568638E-05  3.33168376E+00
 -1.29448436E+00  8.24568638E-05  8.59094096E-01 -5.12739706E-01  1.89606463E-05
  8.59094096E-01 -5.12739706E-01  1.89606463E-05  8.59094096E-01 -5.12739706E-01
  1.89606463E-05  8.59094096E-01 -5.12739706E-01  1.89606463E-05  7.21208114E-02
  2.01080682E+00 -3.96022209E-05  7.21208114E-02  2.01080682E+00 -3.96022209E-05
  7.21208114E-02  2.01080682E+00 -3.96022209E-05  7.21208114E-02  2.01080682E+00
 -3.96022209E-05 -9.33336826E-01 -2.46277957E+00  2.43362162E-05 -9.33336826E-01
 -2.46277957E+00  2.43362162E-05 -9.33336826E-01 -2.46277957E+00  2.43362162E-05
 -9.33336826E-01 -2.46277957E+00  2.43362162E-05 -2.51614150E+00  2.55606472E+00
 -1.11420624E-04 -2.51614150E+00  2.55606472E+00 -1.11420624E-04 -2.51614150E+00
  2.55606472E+00 -1.11420624E-04 -2.51614150E+00  2.55606472E+00 -1.11420624E-04
 -3.49798899E+00 -1.89018106E+00 -4.85135878E-05 -3.49798899E+00 -1.89018106E+00
 -4.85135878E-05 -3.49798899E+00 -1.89018106E+00 -4.85135878E-05 -3.49798899E+00
 -1.89018106E+00 -4.85135878E-05 -4.30729658E+00  6.27368611E-01 -1.07254051E-04
 -4.30729658E+00  6.27368611E-01 -1.07254051E-04 -4.30729658E+00  6.27368611E-01
 -1.07254051E-04 -4.30729658E+00  6.27368611E-01 -1.07254051E-04  5.21111392E+00
  6.30888297E-01  1.35597845E-04  5.21111392E+00  6.30888297E-01  1.35597845E-04
  5.21111392E+00  6.30888297E-01  1.35597845E-04  5.21111392E+00  6.30888297E-01
  1.35597845E-04  1.42350972E+00  3.55187731E+00 -4.97007608E-05  1.42350972E+00
  3.55187731E+00 -4.97007608E-05 -2.61990281E-01 -4.40320164E+00  7.08837278E-05
 -2.61990281E-01 -4.40320164E+00  7.08837278E-05 -3.11997538E+00  4.52065653E+00
 -1.55892053E-04 -3.11997538E+00  4.52065653E+00 -1.55892053E-04 -4.87309044E+00
 -3.41726559E+00 -4.27438736E-05 -4.87309044E+00 -3.41726559E+00 -4.27438736E-05
 -6.31163668E+00  1.07377725E+00 -1.66386986E-04 -6.31163668E+00  1.07377725E+00
 -1.66386986E-04  5.07517863E+00  1.81866682E+00  1.69046741E+00  5.07517863E+00
  1.81866682E+00  1.69046741E+00  5.07530921E+00  1.81863515E+00 -1.69022910E+00
  5.07530921E+00  1.81863515E+00 -1.69022910E+00  7.01383551E+00 -3.63839689E-01
  2.13241037E-04  7.01383551E+00 -3.63839689E-01  2.13241037E-04
Constraint Structure                       R   N=          48
  3.33168376E+00 -1.29448436E+00  8.24568638E-05  8.59094096E-01 -5.12739706E-01
  1.89606463E-05  7.21208114E-02  2.01080682E+00 -3.96022209E-05 -9.33336826E-01
 -2.46277957E+00  2.43362162E-05 -2.51614150E+00  2.55606472E+00 -1.11420624E-04
 -3.49798899E+00 -1.89018106E+00 -4.85135878E-05 -4.30729658E+00  6.27368611E-01
 -1.07254051E-04  5.21111392E+00  6.30888297E-01  1.35597845E-04  1.42350972E+00
  3.55187731E+00 -4.97007608E-05 -2.61990281E-01 -4.40320164E+00  7.08837278E-05
 -3.11997538E+00  4.52065653E+00 -1.55892053E-04 -4.87309044E+00 -3.41726559E+00
 -4.27438736E-05 -6.31163668E+00  1.07377725E+00 -1.66386986E-04  5.07517863E+00
  1.81866682E+00  1.69046741E+00  5.07530921E+00  1.81863515E+00 -1.69022910E+00
  7.01383551E+00 -3.63839689E-01  2.13241037E-04
Num ILSW                                   I              100
ILSW                                       I   N=         100
           0           1           0           0           2           0
           0           0           0           0           0          -1
           0           0           0           0           0           0
           0           0           0           0           1           0
           1           0           0           0           0           0
           0           0      100000           0          -1           0
           0           0           0           0           0           0
           0           0           0           1           1           0
           0           0           1           0           0           0
           0           0           4          40           0           0
           0           0           0           0           0           0
           0           0           0           0           0           0
           0           0           0           0           0           0
           0           0           0           0           0           0
           0           0           0           0           0           0
           0           0           0           0           0           0
           0           0           0           0
Num RLSW                                   I               40
RLSW                                       R   N=          40
  1.00000000E+00  1.00000000E+00  1.00000000E+00  1.00000000E+00  1.00000000E+00
  0.00000000E+00  0.00000000E+00  1.00000000E+00  0.00000000E+00  0.00000000E+00
  0.00000000E+00  0.00000000E+00  1.00000000E+00  0.00000000E+00  0.00000000E+00
  0.00000000E+00  0.00000000E+00  1.00000000E+00  0.00000000E+00  0.00000000E+00
  0.00000000E+00  0.00000000E+00  1.00000000E+00  0.00000000E+00  0.00000000E+00
  0.00000000E+00  0.00000000E+00  1.00000000E+00  0.00000000E+00  0.00000000E+00
  0.00000000E+00  0.00000000E+00  0.00000000E+00  0.00000000E+00  0.00000000E+00
  0.00000000E+00  0.00000000E+00  0.00000000E+00  1.00000000E+00  1.00000000E+00
MxBond                                     I                4
NBond                                      I   N=          16
           2           3           3           3           3           3
           3           4           1           1           1           1
           1           1           1           1
IBond                                      I   N=          64
           2           8           0           0           1           3
           4           0           2           5           9           0
           2           6          10           0           3           7
          11           0           4           7          12           0
           5           6          13           0           1          14
          15          16           3           0           0           0
           4           0           0           0           5           0
           0           0           6           0           0           0
           7           0           0           0           8           0
           0           0           8           0           0           0
           8           0           0           0
RBond                                      R   N=          64
  1.50000000E+00  1.00000000E+00  0.00000000E+00  0.00000000E+00  1.50000000E+00
  1.50000000E+00  1.50000000E+00  0.00000000E+00  1.50000000E+00  1.50000000E+00
  1.00000000E+00  0.00000000E+00  1.50000000E+00  1.50000000E+00  1.00000000E+00
  0.00000000E+00  1.50000000E+00  1.50000000E+00  1.00000000E+00  0.00000000E+00
  1.50000000E+00  1.50000000E+00  1.00000000E+00  0.00000000E+00  1.50000000E+00
  1.50000000E+00  1.00000000E+00  0.00000000E+00  1.00000000E+00  1.00000000E+00
  1.00000000E+00  1.00000000E+00  1.00000000E+00  0.00000000E+00  0.00000000E+00
  0.00000000E+00  1.00000000E+00  0.00000000E+00  0.00000000E+00  0.00000000E+00
  1.00000000E+00  0.00000000E+00  0.00000000E+00  0.00000000E+00  1.00000000E+00
  0.00000000E+00  0.00000000E+00  0.00000000E+00  1.00000000E+00  0.00000000E+00
  0.00000000E+00  0.00000000E+00  1.00000000E+00  0.00000000E+00  0.00000000E+00
  0.00000000E+00  1.00000000E+00  0.00000000E+00  0.00000000E+00  0.00000000E+00
  1.00000000E+00  0.00000000E+00  0.00000000E+00  0.00000000E+00
Virial Ratio                               R      2.002257159481237E+00
SCF Energy                                 R     -3.445805916903908E+02
MP2 Energy                                 R     -3.456456645868624E+02
Total Energy                               R     -3.456456645868624E+02
Post-SCF wavefunction norm                 R      1.654983648130558E+00
RMS Force                                  R      1.594080471654484E-06
RMS Density                                R      2.563695976616174E-09
External E-field                           R   N=          35
  0.00000000E+00  0.00000000E+00  0.00000000E+00  0.00000000E+00  0.00000000E+00
  0.00000000E+00  0.00000000E+00  0.00000000E+00  0.00000000E+00  0.00000000E+00
  0.00000000E+00  0.00000000E+00  0.00000000E+00  0.00000000E+00  0.00000000E+00
  0.00000000E+00  0.00000000E+00  0.00000000E+00  0.00000000E+00  0.00000000E+00
  0.00000000E+00  0.00000000E+00  0.00000000E+00  0.00000000E+00  0.00000000E+00
  0.00000000E+00  0.00000000E+00  0.00000000E+00  0.00000000E+00  0.00000000E+00
  0.00000000E+00  0.00000000E+00  0.00000000E+00  0.00000000E+00  0.00000000E+00
IOpCl                                      I                0
IROHF                                      I                0
Alpha Orbital Energies                     R   N=         136
 -2.05871601E+01 -1.12978205E+01 -1.12844160E+01 -1.12387337E+01 -1.12369370E+01
 -1.12306199E+01 -1.12254044E+01 -1.12249308E+01 -1.40000650E+00 -1.13947175E+00
 -1.01564737E+00 -1.00781054E+00 -9.36903567E-01 -8.26291111E-01 -8.01694756E-01
 -7.14119874E-01 -6.58490610E-01 -6.53763483E-01 -6.48426065E-01 -6.14967368E-01
 -5.83615347E-01 -5.69577142E-01 -5.20998072E-01 -5.20196047E-01 -5.06791475E-01
 -4.77439934E-01 -4.61073239E-01 -3.33800094E-01 -3.05523127E-01  1.43427119E-01
  1.61485518E-01  2.33860041E-01  2.53334168E-01  2.92340468E-01  3.01214461E-01
  3.11574733E-01  3.23501108E-01  3.23997776E-01  3.36476394E-01  3.55674436E-01
  3.74716134E-01  4.43499377E-01  4.77665419E-01  4.85083891E-01  5.26643771E-01
  5.52071009E-01  6.61018877E-01  7.20753761E-01  7.42911610E-01  7.43079216E-01
  7.53746998E-01  7.68798444E-01  8.17892487E-01  8.27665030E-01  8.32892475E-01
  8.40358670E-01  8.42822121E-01  8.49429962E-01  8.49801420E-01  8.86077198E-01
  9.14642440E-01  9.27997602E-01  9.89284563E-01  1.00498979E+00  1.09675332E+00
  1.11106668E+00  1.11591093E+00  1.12324063E+00  1.12654855E+00  1.13124461E+00
  1.16507719E+00  1.17895042E+00  1.19644243E+00  1.21011579E+00  1.22246683E+00
  1.27526281E+00  1.28810353E+00  1.33340070E+00  1.33558181E+00  1.36330457E+00
  1.43176629E+00  1.45536807E+00  1.50982823E+00  1.54862904E+00  1.60088845E+00
  1.63404569E+00  1.68088713E+00  1.71697262E+00  1.72079173E+00  1.73106587E+00
  1.77300970E+00  1.79443380E+00  1.80678857E+00  1.96281824E+00  2.06123077E+00
  2.11640827E+00  2.12818820E+00  2.16874136E+00  2.18462462E+00  2.27004257E+00
  2.29214239E+00  2.30714622E+00  2.33984922E+00  2.39878607E+00  2.41572507E+00
  2.42637351E+00  2.45984084E+00  2.47109671E+00  2.47462604E+00  2.55706437E+00
  2.57823275E+00  2.59993696E+00  2.63754933E+00  2.69188184E+00  2.70063155E+00
  2.85022700E+00  2.87824845E+00  2.92761892E+00  2.98467387E+00  3.00623568E+00
  3.01365556E+00  3.08546292E+00  3.10247725E+00  3.13458445E+00  3.25026432E+00
  3.35080309E+00  3.54159925E+00  3.80440385E+00  4.47471374E+00  4.51864601E+00
  4.54272262E+00  4.63064868E+00  4.73117771E+00  4.77126431E+00  4.86420475E+00
  5.16817422E+00
Alpha MO coefficients                      R   N=       18496
  9.94650681E-01  2.12353161E-02 -3.48819348E-04  1.25611250E-03 -9.88731545E-09
  3.86736880E-03  3.23009775E-05 -8.72436708E-04  4.15805254E-09 -4.18171461E-03
 -4.10549396E-03 -3.86071364E-03 -5.60643583E-05 -1.05890660E-08 -2.26729957E-09
 -1.26280222E-05  3.07465491E-04  3.22095447E-04 -1.34973723E-04  8.46153833E-09
  4.54061014E-04  3.01631365E-07  9.68560991E-04 -1.12208944E-08 -3.53092190E-05
  1.35038906E-05 -7.37074627E-05  2.59276271E-06  1.12375459E-09 -1.69897295E-09
  8.76224652E-06  9.15256928E-05 -2.50438619E-05  2.15989486E-05 -5.42316013E-10
 -8.46044444E-04 -2.30202186E-04  5.78881403E-04 -1.71784124E-08 -4.53300647E-05
 -3.79813633E-05  6.54351831E-06  6.10144813E-05 -2.32867393E-09  2.46964436E-09
 -6.03460268E-06  1.58949290E-05  1.53950563E-05  9.94503770E-07  1.98625924E-10
  7.40913946E-04 -1.78196651E-04  1.07586251E-04 -9.05292952E-09 -6.36278797E-05
 -2.11813891E-05 -2.04691744E-05 -3.18137553E-05 -3.19197050E-10 -1.10525797E-09
 -1.93864792E-06 -1.05895020E-05  1.99929880E-05  1.16430189E-05  3.44186248E-10
  8.00161845E-06 -8.82287234E-05 -2.21965129E-04  2.33733924E-09  2.07940510E-05
 -5.35198127E-06 -4.00623781E-06  4.28160598E-06  6.53520617E-10 -1.84562826E-11
  6.72940856E-06  3.40804027E-05 -1.92388048E-06  1.46683171E-06  6.73322720E-11
 -3.89370779E-04 -2.27998719E-04  9.12559524E-06 -5.34412042E-09  3.81531536E-07
  1.23538211E-05  1.40035852E-05 -1.20340150E-05  1.40667075E-11 -3.69832160E-10
  8.99759831E-07  9.88818252E-06 -6.75218474E-06 -1.24173277E-05  1.60760148E-10
 -1.43833318E-04 -9.72513487E-06 -2.53409996E-05  6.03278386E-10 -2.60398398E-06
 -9.55630839E-06  3.61301673E-06 -6.04704746E-06 -4.88388667E-11  1.17501011E-10
 -1.04755634E-05  2.44650816E-04 -2.91720881E-04 -3.13344272E-04 -8.25602961E-09
  1.11375170E-04 -4.61223407E-05  2.49429860E-04 -2.07691321E-09  4.96799760E-05
  1.60997512E-05 -2.16385885E-05  1.03386395E-04  2.14497901E-09  3.54736947E-09
  1.50416248E-05 -9.28879003E-05  3.32710256E-05 -9.04063452E-05  2.08838169E-05
  6.13603195E-05  6.25512811E-06 -2.55203709E-05  6.79650637E-06  2.91766087E-06
 -4.74970241E-05 -1.06924153E-04 -4.74966127E-05 -1.06921762E-04  1.19034462E-05
 -2.78479062E-05  5.67760303E-05  1.30124867E-03 -2.60276259E-04  8.65033115E-05
 -7.49582859E-09 -5.82047444E-03  3.00435219E-03 -8.51550631E-04  7.87375212E-08
 -4.62027471E-04  5.43746465E-04  8.70410441E-04  3.51287119E-04 -3.84725968E-08
  1.09016698E-08  9.95788034E-01  2.71114324E-02  1.05747170E-03 -1.99318279E-04
  3.14745446E-08 -1.42997090E-02  8.12452991E-03 -3.57414835E-03  2.02833171E-07
 -7.87889631E-04 -1.15943094E-03 -2.12000762E-03 -2.12527089E-04  3.61527595E-08
 -2.50614658E-08  8.27883145E-03 -2.54377794E-04  1.05939686E-04  1.27393881E-04
  1.03993329E-09  1.05572004E-02 -3.31270522E-03 -4.64348960E-03  1.19862507E-08
 -3.15904205E-04 -4.37672560E-04 -2.37157101E-04  1.42069196E-04 -1.65932072E-09
  7.66134709E-09  7.51274359E-03 -1.19832747E-04 -4.79223764E-05 -1.35374050E-04
  1.91848717E-09  7.63122057E-03 -1.41671629E-03  4.65720216E-03 -1.17704610E-07
 -5.12965609E-04 -2.40013105E-04 -2.06191853E-04 -1.18216572E-04 -2.49313439E-09
 -2.47426304E-09  7.56859933E-05  1.04449812E-04 -9.85265665E-05  4.53245402E-05
 -2.05365215E-09 -5.56692371E-03 -1.27311004E-03  2.41169763E-03 -8.72889836E-08
  5.42958972E-05  6.96362595E-05  2.99014282E-05 -3.96711836E-05  6.70627738E-10
  1.15196789E-09  5.17357869E-05  2.26990484E-05 -6.97445273E-05 -3.95878264E-05
  7.66062780E-10 -4.84771324E-03 -1.66528188E-03 -1.38305892E-03 -2.67690140E-08
  1.26422781E-04  1.99905676E-05 -1.08049227E-06  1.64206285E-05  8.84753755E-10
 -2.29368348E-09 -1.98523344E-04 -2.79332170E-04 -6.58765361E-05  3.97406597E-05
 -1.83953583E-09  3.74413692E-03  2.45852242E-03 -5.56111081E-04  6.23505681E-08
 -2.76907649E-05  8.42355935E-06 -1.18351050E-04  1.58065810E-05  5.93679280E-12
 -2.09028389E-09 -6.30359649E-04 -1.93224124E-04 -3.25306568E-05 -2.60113505E-05
 -1.77889494E-09  3.58296487E-05 -5.76524577E-04  4.69946008E-04 -1.44873216E-08
  2.13484968E-04 -8.73605236E-05  5.81515243E-05  7.27999244E-05  2.81418101E-09
  4.60235810E-09  1.51255271E-04  1.18075120E-03  1.25183676E-04  1.25815508E-03
 -4.33203538E-05 -3.95104400E-04 -2.28427773E-05 -2.62616276E-04  8.89790154E-05
  6.60395855E-04 -1.01795433E-04 -8.77725320E-05 -1.01787967E-04 -8.77768081E-05
  9.18878644E-05  2.20908888E-04 -1.11223956E-04  3.62034569E-04  1.15871639E-04
  2.29226545E-04  1.66228616E-09  2.16951341E-04  3.15282530E-06 -9.43487892E-04
  6.27504770E-09 -3.71068346E-04 -3.86010502E-04  2.08645098E-04 -3.89969580E-04
 -2.07994380E-08 -1.11936933E-08  6.17478800E-04 -2.05796698E-04 -9.52517334E-05
 -1.22137834E-04 -1.33929994E-09 -1.97550796E-04  2.36599522E-03  2.06646855E-03
  2.63421459E-08  2.07070960E-04  5.20964665E-05 -5.36075748E-05 -3.28098855E-05