12240516                                                                
Freq      RMP2-FC                                                     6-31G(d)            
Number of atoms                            I               17
Info1-9                                    I   N=           9
          29          27        1002           0           0         100
           6           2           1
Charge                                     I                0
Multiplicity                               I                1
Number of electrons                        I               64
Number of alpha electrons                  I               32
Number of beta electrons                   I               32
Number of basis functions                  I              151
Number of independent functions            I              151
Number of point charges in /Mol/           I                0
Number of translation vectors              I                0
Atomic numbers                             I   N=          17
           7           7           6           6           6           6
           6           6           6           1           1           1
           1           1           1           1           1
Nuclear charges                            R   N=          17
  7.00000000E+00  7.00000000E+00  6.00000000E+00  6.00000000E+00  6.00000000E+00
  6.00000000E+00  6.00000000E+00  6.00000000E+00  6.00000000E+00  1.00000000E+00
  1.00000000E+00  1.00000000E+00  1.00000000E+00  1.00000000E+00  1.00000000E+00
  1.00000000E+00  1.00000000E+00
Current cartesian coordinates              R   N=          51
  4.20031474E-01  1.91397370E+00  1.84585893E-06  1.49795998E+00 -2.49602271E+00
 -3.15580429E-06 -2.87366203E+00 -1.23915078E+00 -5.65254785E-06 -4.71981977E+00
  4.28054225E-01  1.41045905E+00 -4.71982011E+00  4.28059358E-01 -1.41045685E+00
 -1.66865900E-01 -5.66465010E-01  2.58792652E-06  2.88693291E+00  2.49083049E+00
  2.12164655E-06  3.95336076E+00 -1.85566147E+00  4.74656914E-06  4.76405735E+00
  6.46500719E-01  1.15270436E-06 -3.22227091E+00 -3.25999614E+00  2.44410642E-06
 -3.91842716E+00  2.06365073E+00  2.35050733E+00 -6.25712466E+00 -5.00521094E-01
  2.40025616E+00 -6.25712753E+00 -5.00491569E-01 -2.40027301E+00 -3.91841819E+00
  2.06366277E+00 -2.35048694E+00  3.35199338E+00  4.49561165E+00 -1.36595728E-05
  5.29477836E+00 -3.41613219E+00 -1.95577882E-05  6.75555724E+00  1.13555370E+00
 -6.53771209E-06
Force Field                                I                0
Int Atom Types                             I   N=          17
           0           0           0           0           0           0
           0           0           0           0           0           0
           0           0           0           0           0
MM charges                                 R   N=          17
  0.00000000E+00  0.00000000E+00  0.00000000E+00  0.00000000E+00  0.00000000E+00
  0.00000000E+00  0.00000000E+00  0.00000000E+00  0.00000000E+00  0.00000000E+00
  0.00000000E+00  0.00000000E+00  0.00000000E+00  0.00000000E+00  0.00000000E+00
  0.00000000E+00  0.00000000E+00
Integer atomic weights                     I   N=          17
          14          14          12          12          12          12
          12          12          12           1           1           1
           1           1           1           1           1
Real atomic weights                        R   N=          17
  1.40030740E+01  1.40030740E+01  1.20000000E+01  1.20000000E+01  1.20000000E+01
  1.20000000E+01  1.20000000E+01  1.20000000E+01  1.20000000E+01  1.00782504E+00
  1.00782504E+00  1.00782504E+00  1.00782504E+00  1.00782504E+00  1.00782504E+00
  1.00782504E+00  1.00782504E+00
Atom fragment info                         I   N=          17
           0           0           0           0           0           0
           0           0           0           0           0           0
           0           0           0           0           0
Atom residue num                           I   N=          17
           0           0           0           0           0           0
           0           0           0           0           0           0
           0           0           0           0           0
Nuclear spins                              I   N=          17
           2           2           0           0           0           0
           0           0           0           1           1           1
           1           1           1           1           1
Nuclear ZEff                               R   N=          17
 -4.55000000E+00 -4.55000000E+00 -3.60000000E+00 -3.60000000E+00 -3.60000000E+00
 -3.60000000E+00 -3.60000000E+00 -3.60000000E+00 -3.60000000E+00 -1.00000000E+00
 -1.00000000E+00 -1.00000000E+00 -1.00000000E+00 -1.00000000E+00 -1.00000000E+00
 -1.00000000E+00 -1.00000000E+00
Nuclear QMom                               R   N=          17
  2.04400000E+00  2.04400000E+00  0.00000000E+00  0.00000000E+00  0.00000000E+00
  0.00000000E+00  0.00000000E+00  0.00000000E+00  0.00000000E+00  0.00000000E+00
  0.00000000E+00  0.00000000E+00  0.00000000E+00  0.00000000E+00  0.00000000E+00
  0.00000000E+00  0.00000000E+00
Nuclear GFac                               R   N=          17
  4.03761000E-01  4.03761000E-01  0.00000000E+00  0.00000000E+00  0.00000000E+00
  0.00000000E+00  0.00000000E+00  0.00000000E+00  0.00000000E+00  2.79284600E+00
  2.79284600E+00  2.79284600E+00  2.79284600E+00  2.79284600E+00  2.79284600E+00
  2.79284600E+00  2.79284600E+00
MicOpt                                     I   N=          17
          -1          -1          -1          -1          -1          -1
          -1          -1          -1          -1          -1          -1
          -1          -1          -1          -1          -1
Number of contracted shells                I               52
Number of primitive shells                 I              131
Pure/Cartesian d shells                    I                1
Pure/Cartesian f shells                    I                0
Highest angular momentum                   I                2
Largest degree of contraction              I                6
Shell types                                I   N=          52
           0          -1          -1           2           0          -1
          -1           2           0          -1          -1           2
           0          -1          -1           2           0          -1
          -1           2           0          -1          -1           2
           0          -1          -1           2           0          -1
          -1           2           0          -1          -1           2
           0           0           0           0           0           0
           0           0           0           0           0           0
           0           0           0           0
Number of primitives per shell             I   N=          52
           6           3           1           1           6           3
           1           1           6           3           1           1
           6           3           1           1           6           3
           1           1           6           3           1           1
           6           3           1           1           6           3
           1           1           6           3           1           1
           3           1           3           1           3           1
           3           1           3           1           3           1
           3           1           3           1
Shell to atom map                          I   N=          52
           1           1           1           1           2           2
           2           2           3           3           3           3
           4           4           4           4           5           5
           5           5           6           6           6           6
           7           7           7           7           8           8
           8           8           9           9           9           9
          10          10          11          11          12          12
          13          13          14          14          15          15
          16          16          17          17
Primitive exponents                        R   N=         131
  4.17351146E+03  6.27457911E+02  1.42902093E+02  4.02343293E+01  1.28202129E+01
  4.39043701E+00  1.16263619E+01  2.71627981E+00  7.72218397E-01  2.12031498E-01
  8.00000000E-01  4.17351146E+03  6.27457911E+02  1.42902093E+02  4.02343293E+01
  1.28202129E+01  4.39043701E+00  1.16263619E+01  2.71627981E+00  7.72218397E-01
  2.12031498E-01  8.00000000E-01  3.04752488E+03  4.57369518E+02  1.03948685E+02
  2.92101553E+01  9.28666296E+00  3.16392696E+00  7.86827235E+00  1.88128854E+00
  5.44249258E-01  1.68714478E-01  8.00000000E-01  3.04752488E+03  4.57369518E+02
  1.03948685E+02  2.92101553E+01  9.28666296E+00  3.16392696E+00  7.86827235E+00
  1.88128854E+00  5.44249258E-01  1.68714478E-01  8.00000000E-01  3.04752488E+03
  4.57369518E+02  1.03948685E+02  2.92101553E+01  9.28666296E+00  3.16392696E+00
  7.86827235E+00  1.88128854E+00  5.44249258E-01  1.68714478E-01  8.00000000E-01
  3.04752488E+03  4.57369518E+02  1.03948685E+02  2.92101553E+01  9.28666296E+00
  3.16392696E+00  7.86827235E+00  1.88128854E+00  5.44249258E-01  1.68714478E-01
  8.00000000E-01  3.04752488E+03  4.57369518E+02  1.03948685E+02  2.92101553E+01
  9.28666296E+00  3.16392696E+00  7.86827235E+00  1.88128854E+00  5.44249258E-01
  1.68714478E-01  8.00000000E-01  3.04752488E+03  4.57369518E+02  1.03948685E+02
  2.92101553E+01  9.28666296E+00  3.16392696E+00  7.86827235E+00  1.88128854E+00
  5.44249258E-01  1.68714478E-01  8.00000000E-01  3.04752488E+03  4.57369518E+02
  1.03948685E+02  2.92101553E+01  9.28666296E+00  3.16392696E+00  7.86827235E+00
  1.88128854E+00  5.44249258E-01  1.68714478E-01  8.00000000E-01  1.87311370E+01
  2.82539436E+00  6.40121692E-01  1.61277759E-01  1.87311370E+01  2.82539436E+00
  6.40121692E-01  1.61277759E-01  1.87311370E+01  2.82539436E+00  6.40121692E-01
  1.61277759E-01  1.87311370E+01  2.82539436E+00  6.40121692E-01  1.61277759E-01
  1.87311370E+01  2.82539436E+00  6.40121692E-01  1.61277759E-01  1.87311370E+01
  2.82539436E+00  6.40121692E-01  1.61277759E-01  1.87311370E+01  2.82539436E+00
  6.40121692E-01  1.61277759E-01  1.87311370E+01  2.82539436E+00  6.40121692E-01
  1.61277759E-01
Contraction coefficients                   R   N=         131
  1.83477216E-03  1.39946270E-02  6.85865518E-02  2.32240873E-01  4.69069948E-01
  3.60455199E-01 -1.14961182E-01 -1.69117479E-01  1.14585195E+00  1.00000000E+00
  1.00000000E+00  1.83477216E-03  1.39946270E-02  6.85865518E-02  2.32240873E-01
  4.69069948E-01  3.60455199E-01 -1.14961182E-01 -1.69117479E-01  1.14585195E+00
  1.00000000E+00  1.00000000E+00  1.83473713E-03  1.40373228E-02  6.88426223E-02
  2.32184443E-01  4.67941348E-01  3.62311985E-01 -1.19332420E-01 -1.60854152E-01
  1.14345644E+00  1.00000000E+00  1.00000000E+00  1.83473713E-03  1.40373228E-02
  6.88426223E-02  2.32184443E-01  4.67941348E-01  3.62311985E-01 -1.19332420E-01
 -1.60854152E-01  1.14345644E+00  1.00000000E+00  1.00000000E+00  1.83473713E-03
  1.40373228E-02  6.88426223E-02  2.32184443E-01  4.67941348E-01  3.62311985E-01
 -1.19332420E-01 -1.60854152E-01  1.14345644E+00  1.00000000E+00  1.00000000E+00
  1.83473713E-03  1.40373228E-02  6.88426223E-02  2.32184443E-01  4.67941348E-01
  3.62311985E-01 -1.19332420E-01 -1.60854152E-01  1.14345644E+00  1.00000000E+00
  1.00000000E+00  1.83473713E-03  1.40373228E-02  6.88426223E-02  2.32184443E-01
  4.67941348E-01  3.62311985E-01 -1.19332420E-01 -1.60854152E-01  1.14345644E+00
  1.00000000E+00  1.00000000E+00  1.83473713E-03  1.40373228E-02  6.88426223E-02
  2.32184443E-01  4.67941348E-01  3.62311985E-01 -1.19332420E-01 -1.60854152E-01
  1.14345644E+00  1.00000000E+00  1.00000000E+00  1.83473713E-03  1.40373228E-02
  6.88426223E-02  2.32184443E-01  4.67941348E-01  3.62311985E-01 -1.19332420E-01
 -1.60854152E-01  1.14345644E+00  1.00000000E+00  1.00000000E+00  3.34946043E-02
  2.34726953E-01  8.13757326E-01  1.00000000E+00  3.34946043E-02  2.34726953E-01
  8.13757326E-01  1.00000000E+00  3.34946043E-02  2.34726953E-01  8.13757326E-01
  1.00000000E+00  3.34946043E-02  2.34726953E-01  8.13757326E-01  1.00000000E+00
  3.34946043E-02  2.34726953E-01  8.13757326E-01  1.00000000E+00  3.34946043E-02
  2.34726953E-01  8.13757326E-01  1.00000000E+00  3.34946043E-02  2.34726953E-01
  8.13757326E-01  1.00000000E+00  3.34946043E-02  2.34726953E-01  8.13757326E-01
  1.00000000E+00
P(S=P) Contraction coefficients            R   N=         131
  0.00000000E+00  0.00000000E+00  0.00000000E+00  0.00000000E+00  0.00000000E+00
  0.00000000E+00  6.75797439E-02  3.23907296E-01  7.40895140E-01  1.00000000E+00
  0.00000000E+00  0.00000000E+00  0.00000000E+00  0.00000000E+00  0.00000000E+00
  0.00000000E+00  0.00000000E+00  6.75797439E-02  3.23907296E-01  7.40895140E-01
  1.00000000E+00  0.00000000E+00  0.00000000E+00  0.00000000E+00  0.00000000E+00
  0.00000000E+00  0.00000000E+00  0.00000000E+00  6.89990666E-02  3.16423961E-01
  7.44308291E-01  1.00000000E+00  0.00000000E+00  0.00000000E+00  0.00000000E+00
  0.00000000E+00  0.00000000E+00  0.00000000E+00  0.00000000E+00  6.89990666E-02
  3.16423961E-01  7.44308291E-01  1.00000000E+00  0.00000000E+00  0.00000000E+00
  0.00000000E+00  0.00000000E+00  0.00000000E+00  0.00000000E+00  0.00000000E+00
  6.89990666E-02  3.16423961E-01  7.44308291E-01  1.00000000E+00  0.00000000E+00
  0.00000000E+00  0.00000000E+00  0.00000000E+00  0.00000000E+00  0.00000000E+00
  0.00000000E+00  6.89990666E-02  3.16423961E-01  7.44308291E-01  1.00000000E+00
  0.00000000E+00  0.00000000E+00  0.00000000E+00  0.00000000E+00  0.00000000E+00
  0.00000000E+00  0.00000000E+00  6.89990666E-02  3.16423961E-01  7.44308291E-01
  1.00000000E+00  0.00000000E+00  0.00000000E+00  0.00000000E+00  0.00000000E+00
  0.00000000E+00  0.00000000E+00  0.00000000E+00  6.89990666E-02  3.16423961E-01
  7.44308291E-01  1.00000000E+00  0.00000000E+00  0.00000000E+00  0.00000000E+00
  0.00000000E+00  0.00000000E+00  0.00000000E+00  0.00000000E+00  6.89990666E-02
  3.16423961E-01  7.44308291E-01  1.00000000E+00  0.00000000E+00  0.00000000E+00
  0.00000000E+00  0.00000000E+00  0.00000000E+00  0.00000000E+00  0.00000000E+00
  0.00000000E+00  0.00000000E+00  0.00000000E+00  0.00000000E+00  0.00000000E+00
  0.00000000E+00  0.00000000E+00  0.00000000E+00  0.00000000E+00  0.00000000E+00
  0.00000000E+00  0.00000000E+00  0.00000000E+00  0.00000000E+00  0.00000000E+00
  0.00000000E+00  0.00000000E+00  0.00000000E+00  0.00000000E+00  0.00000000E+00
  0.00000000E+00  0.00000000E+00  0.00000000E+00  0.00000000E+00  0.00000000E+00
  0.00000000E+00
Coordinates of each shell                  R   N=         156
  4.20031474E-01  1.91397370E+00  1.84585893E-06  4.20031474E-01  1.91397370E+00
  1.84585893E-06  4.20031474E-01  1.91397370E+00  1.84585893E-06  4.20031474E-01
  1.91397370E+00  1.84585893E-06  1.49795998E+00 -2.49602271E+00 -3.15580429E-06
  1.49795998E+00 -2.49602271E+00 -3.15580429E-06  1.49795998E+00 -2.49602271E+00
 -3.15580429E-06  1.49795998E+00 -2.49602271E+00 -3.15580429E-06 -2.87366203E+00
 -1.23915078E+00 -5.65254785E-06 -2.87366203E+00 -1.23915078E+00 -5.65254785E-06
 -2.87366203E+00 -1.23915078E+00 -5.65254785E-06 -2.87366203E+00 -1.23915078E+00
 -5.65254785E-06 -4.71981977E+00  4.28054225E-01  1.41045905E+00 -4.71981977E+00
  4.28054225E-01  1.41045905E+00 -4.71981977E+00  4.28054225E-01  1.41045905E+00
 -4.71981977E+00  4.28054225E-01  1.41045905E+00 -4.71982011E+00  4.28059358E-01
 -1.41045685E+00 -4.71982011E+00  4.28059358E-01 -1.41045685E+00 -4.71982011E+00
  4.28059358E-01 -1.41045685E+00 -4.71982011E+00  4.28059358E-01 -1.41045685E+00
 -1.66865900E-01 -5.66465010E-01  2.58792652E-06 -1.66865900E-01 -5.66465010E-01
  2.58792652E-06 -1.66865900E-01 -5.66465010E-01  2.58792652E-06 -1.66865900E-01
 -5.66465010E-01  2.58792652E-06  2.88693291E+00  2.49083049E+00  2.12164655E-06
  2.88693291E+00  2.49083049E+00  2.12164655E-06  2.88693291E+00  2.49083049E+00
  2.12164655E-06  2.88693291E+00  2.49083049E+00  2.12164655E-06  3.95336076E+00
 -1.85566147E+00  4.74656914E-06  3.95336076E+00 -1.85566147E+00  4.74656914E-06
  3.95336076E+00 -1.85566147E+00  4.74656914E-06  3.95336076E+00 -1.85566147E+00
  4.74656914E-06  4.76405735E+00  6.46500719E-01  1.15270436E-06  4.76405735E+00
  6.46500719E-01  1.15270436E-06  4.76405735E+00  6.46500719E-01  1.15270436E-06
  4.76405735E+00  6.46500719E-01  1.15270436E-06 -3.22227091E+00 -3.25999614E+00
  2.44410642E-06 -3.22227091E+00 -3.25999614E+00  2.44410642E-06 -3.91842716E+00
  2.06365073E+00  2.35050733E+00 -3.91842716E+00  2.06365073E+00  2.35050733E+00
 -6.25712466E+00 -5.00521094E-01  2.40025616E+00 -6.25712466E+00 -5.00521094E-01
  2.40025616E+00 -6.25712753E+00 -5.00491569E-01 -2.40027301E+00 -6.25712753E+00
 -5.00491569E-01 -2.40027301E+00 -3.91841819E+00  2.06366277E+00 -2.35048694E+00
 -3.91841819E+00  2.06366277E+00 -2.35048694E+00  3.35199338E+00  4.49561165E+00
 -1.36595728E-05  3.35199338E+00  4.49561165E+00 -1.36595728E-05  5.29477836E+00
 -3.41613219E+00 -1.95577882E-05  5.29477836E+00 -3.41613219E+00 -1.95577882E-05
  6.75555724E+00  1.13555370E+00 -6.53771209E-06  6.75555724E+00  1.13555370E+00
 -6.53771209E-06
Constraint Structure                       R   N=          51
  4.20031474E-01  1.91397370E+00  1.84585893E-06  1.49795998E+00 -2.49602271E+00
 -3.15580429E-06 -2.87366203E+00 -1.23915078E+00 -5.65254785E-06 -4.71981977E+00
  4.28054225E-01  1.41045905E+00 -4.71982011E+00  4.28059358E-01 -1.41045685E+00
 -1.66865900E-01 -5.66465010E-01  2.58792652E-06  2.88693291E+00  2.49083049E+00
  2.12164655E-06  3.95336076E+00 -1.85566147E+00  4.74656914E-06  4.76405735E+00
  6.46500719E-01  1.15270436E-06 -3.22227091E+00 -3.25999614E+00  2.44410642E-06
 -3.91842716E+00  2.06365073E+00  2.35050733E+00 -6.25712466E+00 -5.00521094E-01
  2.40025616E+00 -6.25712753E+00 -5.00491569E-01 -2.40027301E+00 -3.91841819E+00
  2.06366277E+00 -2.35048694E+00  3.35199338E+00  4.49561165E+00 -1.36595728E-05
  5.29477836E+00 -3.41613219E+00 -1.95577882E-05  6.75555724E+00  1.13555370E+00
 -6.53771209E-06
Num ILSW                                   I              100
ILSW                                       I   N=         100
           0           1           0           0           2           0
           0           0           0           0           0          -1
           0           0           0           0           0           0
           0           0           0           0           1           0
           1           0           0           0           0           0
           0           0      100000           0          -1           0
           0           0           0           0           0           0
           0           0           0           1           1           0
           0           0           1           0           0           0
           0           0           4          40           0           0
           0           0           0           0           0           0
           0           0           0           0           0           0
           0           0           0           0           0           0
           0           0           0           0           0           0
           0           0           0           0           0           0
           0           0           0           0           0           0
           0           0           0           0
Num RLSW                                   I               40
RLSW                                       R   N=          40
  1.00000000E+00  1.00000000E+00  1.00000000E+00  1.00000000E+00  1.00000000E+00
  0.00000000E+00  0.00000000E+00  1.00000000E+00  0.00000000E+00  0.00000000E+00
  0.00000000E+00  0.00000000E+00  1.00000000E+00  0.00000000E+00  0.00000000E+00
  0.00000000E+00  0.00000000E+00  1.00000000E+00  0.00000000E+00  0.00000000E+00
  0.00000000E+00  0.00000000E+00  1.00000000E+00  0.00000000E+00  0.00000000E+00
  0.00000000E+00  0.00000000E+00  1.00000000E+00  0.00000000E+00  0.00000000E+00
  0.00000000E+00  0.00000000E+00  0.00000000E+00  0.00000000E+00  0.00000000E+00
  0.00000000E+00  0.00000000E+00  0.00000000E+00  1.00000000E+00  1.00000000E+00
MxBond                                     I                4
NBond                                      I   N=          17
           2           2           4           4           4           3
           3           3           3           1           1           1
           1           1           1           1           1
IBond                                      I   N=          68
           6           7           0           0           6           8
           0           0           4           5           6          10
           3           5          11          12           3           4
          13          14           1           2           3           0
           1           9          15           0           2           9
          16           0           7           8          17           0
           3           0           0           0           4           0
           0           0           4           0           0           0
           5           0           0           0           5           0
           0           0           7           0           0           0
           8           0           0           0           9           0
           0           0
RBond                                      R   N=          68
  1.50000000E+00  1.50000000E+00  0.00000000E+00  0.00000000E+00  1.50000000E+00
  1.50000000E+00  0.00000000E+00  0.00000000E+00  1.00000000E+00  1.00000000E+00
  1.00000000E+00  1.00000000E+00  1.00000000E+00  1.00000000E+00  1.00000000E+00
  1.00000000E+00  1.00000000E+00  1.00000000E+00  1.00000000E+00  1.00000000E+00
  1.50000000E+00  1.50000000E+00  1.00000000E+00  0.00000000E+00  1.50000000E+00
  1.50000000E+00  1.00000000E+00  0.00000000E+00  1.50000000E+00  1.50000000E+00
  1.00000000E+00  0.00000000E+00  1.50000000E+00  1.50000000E+00  1.00000000E+00
  0.00000000E+00  1.00000000E+00  0.00000000E+00  0.00000000E+00  0.00000000E+00
  1.00000000E+00  0.00000000E+00  0.00000000E+00  0.00000000E+00  1.00000000E+00
  0.00000000E+00  0.00000000E+00  0.00000000E+00  1.00000000E+00  0.00000000E+00
  0.00000000E+00  0.00000000E+00  1.00000000E+00  0.00000000E+00  0.00000000E+00
  0.00000000E+00  1.00000000E+00  0.00000000E+00  0.00000000E+00  0.00000000E+00
  1.00000000E+00  0.00000000E+00  0.00000000E+00  0.00000000E+00  1.00000000E+00
  0.00000000E+00  0.00000000E+00  0.00000000E+00
Virial Ratio                               R      2.002278095949190E+00
SCF Energy                                 R     -3.786036607576166E+02
MP2 Energy                                 R     -3.798132473539486E+02
Total Energy                               R     -3.798132473539486E+02
Post-SCF wavefunction norm                 R      1.686465147676315E+00
RMS Force                                  R      1.369996607509329E-06
RMS Density                                R      1.422985840431275E-09
External E-field                           R   N=          35
  0.00000000E+00  0.00000000E+00  0.00000000E+00  0.00000000E+00  0.00000000E+00
  0.00000000E+00  0.00000000E+00  0.00000000E+00  0.00000000E+00  0.00000000E+00
  0.00000000E+00  0.00000000E+00  0.00000000E+00  0.00000000E+00  0.00000000E+00
  0.00000000E+00  0.00000000E+00  0.00000000E+00  0.00000000E+00  0.00000000E+00
  0.00000000E+00  0.00000000E+00  0.00000000E+00  0.00000000E+00  0.00000000E+00
  0.00000000E+00  0.00000000E+00  0.00000000E+00  0.00000000E+00  0.00000000E+00
  0.00000000E+00  0.00000000E+00  0.00000000E+00  0.00000000E+00  0.00000000E+00
IOpCl                                      I                0
IROHF                                      I                0
Alpha Orbital Energies                     R   N=         151
 -1.55695535E+01 -1.55685045E+01 -1.13184845E+01 -1.12986875E+01 -1.12970954E+01
 -1.12429296E+01 -1.12312862E+01 -1.12265619E+01 -1.12259009E+01 -1.30335645E+00
 -1.18447397E+00 -1.14633544E+00 -1.06226398E+00 -9.08213910E-01 -8.87548651E-01
 -8.18023838E-01 -7.99574656E-01 -7.15074815E-01 -6.94720166E-01 -6.53631332E-01
 -6.32388661E-01 -6.04257395E-01 -5.84923520E-01 -5.72291969E-01 -5.24214626E-01
 -5.11657237E-01 -4.72587112E-01 -4.37343973E-01 -4.22742779E-01 -4.12611153E-01
 -4.02594795E-01 -3.43931427E-01  1.09296142E-01  1.28761120E-01  2.45012640E-01
  2.53794439E-01  2.83129918E-01  2.96360190E-01  3.09756102E-01  3.12744246E-01
  3.15490760E-01  3.40135503E-01  3.64631312E-01  3.88114730E-01  4.02525311E-01
  4.18863592E-01  4.27620967E-01  4.51221603E-01  4.93844001E-01  5.29841730E-01
  5.40612664E-01  5.91398811E-01  6.36399125E-01  7.16922822E-01  7.37830560E-01
  7.72904140E-01  7.73936945E-01  7.87827150E-01  7.96241039E-01  8.18541334E-01
  8.26680468E-01  8.48958742E-01  8.51813810E-01  8.53174057E-01  9.03466806E-01
  9.04769432E-01  9.11664683E-01  9.12192186E-01  9.31528224E-01  9.53651345E-01
  9.82674634E-01  1.07329350E+00  1.07553086E+00  1.08177574E+00  1.09469617E+00
  1.10316384E+00  1.12765702E+00  1.13215816E+00  1.14278721E+00  1.15886650E+00
  1.17181640E+00  1.19871041E+00  1.20317818E+00  1.24112772E+00  1.26159931E+00
  1.27867775E+00  1.28394411E+00  1.33099098E+00  1.34767258E+00  1.37319996E+00
  1.44258626E+00  1.46023204E+00  1.56291366E+00  1.59179836E+00  1.66517314E+00
  1.69215671E+00  1.70274405E+00  1.75860366E+00  1.76980409E+00  1.78566815E+00
  1.80423064E+00  1.86287824E+00  1.88461614E+00  1.99072389E+00  2.06032966E+00
  2.12425445E+00  2.14121517E+00  2.16146546E+00  2.16906858E+00  2.17907588E+00
  2.20531039E+00  2.21357477E+00  2.23402411E+00  2.34240396E+00  2.35036948E+00
  2.44209309E+00  2.46929881E+00  2.48648808E+00  2.50122768E+00  2.53051661E+00
  2.55790189E+00  2.57856365E+00  2.62561567E+00  2.65888914E+00  2.67703103E+00
  2.73294961E+00  2.76031702E+00  2.76682800E+00  2.86263553E+00  2.86499723E+00
  2.91769450E+00  2.92130027E+00  2.94793093E+00  3.03188141E+00  3.04729436E+00
  3.05899136E+00  3.15272826E+00  3.17192577E+00  3.25468143E+00  3.27641806E+00
  3.53748168E+00  3.74968071E+00  4.46290763E+00  4.47391023E+00  4.59935419E+00
  4.61693010E+00  4.66596509E+00  4.71416570E+00  4.82365024E+00  4.89670283E+00
  5.00819768E+00
Alpha MO coefficients                      R   N=       22801
  9.95153931E-01  2.50879696E-02  1.41218417E-03 -1.38716047E-03  4.42834356E-09
 -7.23054672E-03 -1.52994089E-03  2.69208493E-03 -4.53880333E-09 -2.73504326E-03
 -2.78757642E-03 -3.11574336E-03  9.01565655E-05 -9.22083289E-11 -3.09640126E-10
 -1.19529519E-02 -3.48631120E-04  2.51567104E-05 -7.16664615E-05 -4.82159404E-10
  3.89844914E-04 -1.11146149E-03 -5.33380821E-06  2.65103621E-09  1.37787094E-04
 -1.99952920E-05 -1.43797800E-05 -7.14812549E-05 -8.79755934E-10  1.64096108E-10
  1.89818375E-05  6.41522136E-05 -5.07322930E-05  4.44208884E-05 -8.18486127E-10
  1.00144855E-04  5.79557696E-04 -1.25557035E-03  1.10723486E-08  4.91620628E-05
  2.31896355E-05  1.32944938E-06 -7.24847380E-05  3.88046860E-11 -6.37825591E-11
  1.79198019E-05  7.75677131E-05  5.71718432E-05 -1.96422388E-05 -3.66216915E-05
  3.50584179E-04 -2.49908632E-06 -5.28759082E-05 -1.24453183E-05  1.80640077E-05
  2.99916441E-05  2.31930512E-05  9.06853129E-06 -1.03808249E-05 -4.03741159E-06
  1.79189291E-05  7.75641987E-05  5.71714446E-05 -1.96429196E-05  3.66219162E-05
  3.50619641E-04 -2.48748703E-06 -5.28760544E-05  1.24499833E-05  1.80628954E-05
  2.99904428E-05  2.31915272E-05  9.06833555E-06  1.03808988E-05  4.03738853E-06
  3.37098685E-05  3.97816816E-04  5.41145977E-05  7.01001256E-05  5.29477485E-10
  2.42853472E-03  6.19356059E-04  3.50952142E-03 -1.46487405E-09 -7.92895716E-05
 -4.72703668E-04 -4.39144370E-05 -2.52622451E-05  9.87415700E-11 -1.24482425E-10
  1.49234054E-05  2.84745269E-04 -9.80446242E-05 -7.12393038E-06 -3.65785631E-10
  3.61381285E-03 -5.50643542E-04 -2.17332441E-03  4.42408500E-09 -5.11568937E-04
 -5.52333229E-05 -8.00647321E-05 -1.01248556E-04 -1.18107545E-10  7.22655015E-10
  2.06210885E-06  1.46415352E-05  1.14782824E-05  1.33725948E-05  7.10728136E-11
  1.32334781E-03 -4.75739924E-04  1.59844137E-04 -3.57882451E-09 -6.69397778E-06
  3.51051459E-06 -7.74632344E-06  9.44672567E-06  5.96941426E-10  5.37267962E-11
  2.95603153E-05  1.17628159E-04  5.04448828E-05 -7.31444841E-05  1.61785105E-10
 -2.29868601E-03  1.54078462E-03  5.47169675E-05 -2.48950041E-09 -1.90717193E-05
  6.96265169E-05  2.62371692E-05  2.46081553E-05  1.28027160E-10 -2.49086612E-10
 -1.00319772E-04 -4.45948588E-04  2.17018357E-05 -1.24991765E-04 -1.94693052E-05
 -4.63901853E-05 -1.94700349E-05 -4.63894272E-05  2.17003369E-05 -1.24999425E-04
  3.64976529E-05  5.03720436E-04 -1.33395852E-05  2.13009945E-05 -4.77173895E-05
 -3.69239895E-04  1.19493251E-02  2.60695558E-04  2.03788778E-05  4.10055247E-05
  1.45978070E-10  1.81181952E-04 -9.87379015E-04 -3.88386966E-04  1.39824538E-09
 -4.04468937E-06 -1.08378028E-05 -8.08009142E-05  1.19136316E-04 -4.66381409E-10
 -2.97894033E-10  9.95166356E-01  2.50445977E-02  6.23813193E-04  1.91387732E-03
  1.30889617E-08 -7.18908936E-03 -9.65432120E-05 -3.06797493E-03 -1.64850244E-08
 -2.63680064E-03 -2.81681157E-03 -3.09716162E-03 -2.21644229E-05  2.10512995E-10
  2.81840020E-10 -3.03187856E-05 -1.54227118E-04  2.83537746E-05 -5.49413791E-05
 -2.81584959E-10  1.17360945E-03 -5.92268638E-04  1.48035528E-03  5.66802623E-10
 -7.87744143E-05  7.19184132E-06 -4.85491494E-05  2.88979208E-05  2.93158488E-10
  6.82903626E-10 -1.19596152E-05 -4.36996677E-05 -5.40328530E-05  3.45971682E-05
  2.63229898E-05 -5.16249199E-04 -1.53556946E-04  1.46877399E-04  1.40929409E-04