161_Chloroethane Gaussian SP Calculation on node35.bme.utexas.edu       
Freq      RMP2-FC                                                     6-31G(d)            
Number of atoms                            I                8
Info1-9                                    I   N=           9
          19          18        1002           0           0         100
           6           2           1
Charge                                     I                0
Multiplicity                               I                1
Number of electrons                        I               34
Number of alpha electrons                  I               17
Number of beta electrons                   I               17
Number of basis functions                  I               59
Number of independent functions            I               59
Number of point charges in /Mol/           I                0
Number of translation vectors              I                0
Atomic numbers                             I   N=           8
          17           6           6           1           1           1
           1           1
Nuclear charges                            R   N=           8
  1.70000000E+01  6.00000000E+00  6.00000000E+00  1.00000000E+00  1.00000000E+00
  1.00000000E+00  1.00000000E+00  1.00000000E+00
Current cartesian coordinates              R   N=          24
  2.12612020E+00 -2.86060949E-01 -9.57047397E-07 -8.93509854E-01  1.23990415E+00
  1.48172817E-05 -3.02685111E+00 -6.71787862E-01 -1.24933431E-05 -9.54897301E-01
  2.44041134E+00  1.67425460E+00 -9.54893017E-01  2.44045385E+00 -1.67419449E+00
 -4.84099319E+00  3.21094475E-01 -2.23782904E-06 -2.93554473E+00 -1.87378924E+00
 -1.67438136E+00 -2.93554930E+00 -1.87383205E+00  1.67432581E+00
Force Field                                I                0
Int Atom Types                             I   N=           8
           0           0           0           0           0           0
           0           0
MM charges                                 R   N=           8
  0.00000000E+00  0.00000000E+00  0.00000000E+00  0.00000000E+00  0.00000000E+00
  0.00000000E+00  0.00000000E+00  0.00000000E+00
Integer atomic weights                     I   N=           8
          35          12          12           1           1           1
           1           1
Real atomic weights                        R   N=           8
  3.49688527E+01  1.20000000E+01  1.20000000E+01  1.00782504E+00  1.00782504E+00
  1.00782504E+00  1.00782504E+00  1.00782504E+00
Atom fragment info                         I   N=           8
           0           0           0           0           0           0
           0           0
Atom residue num                           I   N=           8
           0           0           0           0           0           0
           0           0
Nuclear spins                              I   N=           8
           3           0           0           1           1           1
           1           1
Nuclear ZEff                               R   N=           8
 -1.42400000E+01 -3.60000000E+00 -3.60000000E+00 -1.00000000E+00 -1.00000000E+00
 -1.00000000E+00 -1.00000000E+00 -1.00000000E+00
Nuclear QMom                               R   N=           8
 -8.16500000E+00  0.00000000E+00  0.00000000E+00  0.00000000E+00  0.00000000E+00
  0.00000000E+00  0.00000000E+00  0.00000000E+00
Nuclear GFac                               R   N=           8
  8.21874000E-01  0.00000000E+00  0.00000000E+00  2.79284600E+00  2.79284600E+00
  2.79284600E+00  2.79284600E+00  2.79284600E+00
MicOpt                                     I   N=           8
          -1          -1          -1          -1          -1          -1
          -1          -1
Number of contracted shells                I               23
Number of primitive shells                 I               59
Pure/Cartesian d shells                    I                1
Pure/Cartesian f shells                    I                0
Highest angular momentum                   I                2
Largest degree of contraction              I                6
Shell types                                I   N=          23
           0          -1          -1          -1           2           0
          -1          -1           2           0          -1          -1
           2           0           0           0           0           0
           0           0           0           0           0
Number of primitives per shell             I   N=          23
           6           6           3           1           1           6
           3           1           1           6           3           1
           1           3           1           3           1           3
           1           3           1           3           1
Shell to atom map                          I   N=          23
           1           1           1           1           1           2
           2           2           2           3           3           3
           3           4           4           5           5           6
           6           7           7           8           8
Primitive exponents                        R   N=          59
  2.51801000E+04  3.78035000E+03  8.60474000E+02  2.42145000E+02  7.73349000E+01
  2.62470000E+01  4.91765000E+02  1.16984000E+02  3.74153000E+01  1.37834000E+01
  5.45215000E+00  2.22588000E+00  3.18649000E+00  1.14427000E+00  4.20377000E-01
  1.42657000E-01  7.50000000E-01  3.04752488E+03  4.57369518E+02  1.03948685E+02
  2.92101553E+01  9.28666296E+00  3.16392696E+00  7.86827235E+00  1.88128854E+00
  5.44249258E-01  1.68714478E-01  8.00000000E-01  3.04752488E+03  4.57369518E+02
  1.03948685E+02  2.92101553E+01  9.28666296E+00  3.16392696E+00  7.86827235E+00
  1.88128854E+00  5.44249258E-01  1.68714478E-01  8.00000000E-01  1.87311370E+01
  2.82539436E+00  6.40121692E-01  1.61277759E-01  1.87311370E+01  2.82539436E+00
  6.40121692E-01  1.61277759E-01  1.87311370E+01  2.82539436E+00  6.40121692E-01
  1.61277759E-01  1.87311370E+01  2.82539436E+00  6.40121692E-01  1.61277759E-01
  1.87311370E+01  2.82539436E+00  6.40121692E-01  1.61277759E-01
Contraction coefficients                   R   N=          59
  1.83295985E-03  1.40341988E-02  6.90973943E-02  2.37451980E-01  4.83033960E-01
  3.39855972E-01 -2.29739142E-03 -3.07137189E-02 -1.12528069E-01  4.50163278E-02
  5.89353363E-01  4.65206287E-01 -2.51828028E-01  6.15892514E-02  1.06018433E+00
  1.00000000E+00  1.00000000E+00  1.83473713E-03  1.40373228E-02  6.88426223E-02
  2.32184443E-01  4.67941348E-01  3.62311985E-01 -1.19332420E-01 -1.60854152E-01
  1.14345644E+00  1.00000000E+00  1.00000000E+00  1.83473713E-03  1.40373228E-02
  6.88426223E-02  2.32184443E-01  4.67941348E-01  3.62311985E-01 -1.19332420E-01
 -1.60854152E-01  1.14345644E+00  1.00000000E+00  1.00000000E+00  3.34946043E-02
  2.34726953E-01  8.13757326E-01  1.00000000E+00  3.34946043E-02  2.34726953E-01
  8.13757326E-01  1.00000000E+00  3.34946043E-02  2.34726953E-01  8.13757326E-01
  1.00000000E+00  3.34946043E-02  2.34726953E-01  8.13757326E-01  1.00000000E+00
  3.34946043E-02  2.34726953E-01  8.13757326E-01  1.00000000E+00
P(S=P) Contraction coefficients            R   N=          59
  0.00000000E+00  0.00000000E+00  0.00000000E+00  0.00000000E+00  0.00000000E+00
  0.00000000E+00  3.98940088E-03  3.03177067E-02  1.29880029E-01  3.27951072E-01
  4.53527100E-01  2.52154056E-01 -1.42993147E-02  3.23572333E-01  7.43507765E-01
  1.00000000E+00  0.00000000E+00  0.00000000E+00  0.00000000E+00  0.00000000E+00
  0.00000000E+00  0.00000000E+00  0.00000000E+00  6.89990666E-02  3.16423961E-01
  7.44308291E-01  1.00000000E+00  0.00000000E+00  0.00000000E+00  0.00000000E+00
  0.00000000E+00  0.00000000E+00  0.00000000E+00  0.00000000E+00  6.89990666E-02
  3.16423961E-01  7.44308291E-01  1.00000000E+00  0.00000000E+00  0.00000000E+00
  0.00000000E+00  0.00000000E+00  0.00000000E+00  0.00000000E+00  0.00000000E+00
  0.00000000E+00  0.00000000E+00  0.00000000E+00  0.00000000E+00  0.00000000E+00
  0.00000000E+00  0.00000000E+00  0.00000000E+00  0.00000000E+00  0.00000000E+00
  0.00000000E+00  0.00000000E+00  0.00000000E+00  0.00000000E+00
Coordinates of each shell                  R   N=          69
  2.12612020E+00 -2.86060949E-01 -9.57047397E-07  2.12612020E+00 -2.86060949E-01
 -9.57047397E-07  2.12612020E+00 -2.86060949E-01 -9.57047397E-07  2.12612020E+00
 -2.86060949E-01 -9.57047397E-07  2.12612020E+00 -2.86060949E-01 -9.57047397E-07
 -8.93509854E-01  1.23990415E+00  1.48172817E-05 -8.93509854E-01  1.23990415E+00
  1.48172817E-05 -8.93509854E-01  1.23990415E+00  1.48172817E-05 -8.93509854E-01
  1.23990415E+00  1.48172817E-05 -3.02685111E+00 -6.71787862E-01 -1.24933431E-05
 -3.02685111E+00 -6.71787862E-01 -1.24933431E-05 -3.02685111E+00 -6.71787862E-01
 -1.24933431E-05 -3.02685111E+00 -6.71787862E-01 -1.24933431E-05 -9.54897301E-01
  2.44041134E+00  1.67425460E+00 -9.54897301E-01  2.44041134E+00  1.67425460E+00
 -9.54893017E-01  2.44045385E+00 -1.67419449E+00 -9.54893017E-01  2.44045385E+00
 -1.67419449E+00 -4.84099319E+00  3.21094475E-01 -2.23782904E-06 -4.84099319E+00
  3.21094475E-01 -2.23782904E-06 -2.93554473E+00 -1.87378924E+00 -1.67438136E+00
 -2.93554473E+00 -1.87378924E+00 -1.67438136E+00 -2.93554930E+00 -1.87383205E+00
  1.67432581E+00 -2.93554930E+00 -1.87383205E+00  1.67432581E+00
Constraint Structure                       R   N=          24
  2.12612020E+00 -2.86060949E-01 -9.57047397E-07 -8.93509854E-01  1.23990415E+00
  1.48172817E-05 -3.02685111E+00 -6.71787862E-01 -1.24933431E-05 -9.54897301E-01
  2.44041134E+00  1.67425460E+00 -9.54893017E-01  2.44045385E+00 -1.67419449E+00
 -4.84099319E+00  3.21094475E-01 -2.23782904E-06 -2.93554473E+00 -1.87378924E+00
 -1.67438136E+00 -2.93554930E+00 -1.87383205E+00  1.67432581E+00
Num ILSW                                   I              100
ILSW                                       I   N=         100
           0           1           0           0           2           0
           0           0           0           0           0          -1
           0           0           0           0           0           0
           0           0           0           0           1           0
           1           0           0           0           0           0
           0           0      100000           0          -1           0
           0           0           0           0           0           0
           0           0           0           1           1           0
           0           0           1           0           0           0
           0           0           4          40           0           0
           0           0           0           0           0           0
           0           0           0           0           0           0
           0           0           0           0           0           0
           0           0           0           0           0           0
           0           0           0           0           0           0
           0           0           0           0           0           0
           0           0           0           0
Num RLSW                                   I               40
RLSW                                       R   N=          40
  1.00000000E+00  1.00000000E+00  1.00000000E+00  1.00000000E+00  1.00000000E+00
  0.00000000E+00  0.00000000E+00  1.00000000E+00  0.00000000E+00  0.00000000E+00
  0.00000000E+00  0.00000000E+00  1.00000000E+00  0.00000000E+00  0.00000000E+00
  0.00000000E+00  0.00000000E+00  1.00000000E+00  0.00000000E+00  0.00000000E+00
  0.00000000E+00  0.00000000E+00  1.00000000E+00  0.00000000E+00  0.00000000E+00
  0.00000000E+00  0.00000000E+00  1.00000000E+00  0.00000000E+00  0.00000000E+00
  0.00000000E+00  0.00000000E+00  0.00000000E+00  0.00000000E+00  0.00000000E+00
  0.00000000E+00  0.00000000E+00  0.00000000E+00  1.00000000E+00  1.00000000E+00
MxBond                                     I                4
NBond                                      I   N=           8
           1           4           4           1           1           1
           1           1
IBond                                      I   N=          32
           2           0           0           0           1           3
           4           5           2           6           7           8
           2           0           0           0           2           0
           0           0           3           0           0           0
           3           0           0           0           3           0
           0           0
RBond                                      R   N=          32
  1.00000000E+00  0.00000000E+00  0.00000000E+00  0.00000000E+00  1.00000000E+00
  1.00000000E+00  1.00000000E+00  1.00000000E+00  1.00000000E+00  1.00000000E+00
  1.00000000E+00  1.00000000E+00  1.00000000E+00  0.00000000E+00  0.00000000E+00
  0.00000000E+00  1.00000000E+00  0.00000000E+00  0.00000000E+00  0.00000000E+00
  1.00000000E+00  0.00000000E+00  0.00000000E+00  0.00000000E+00  1.00000000E+00
  0.00000000E+00  0.00000000E+00  0.00000000E+00  1.00000000E+00  0.00000000E+00
  0.00000000E+00  0.00000000E+00
Virial Ratio                               R      2.000497259454442E+00
SCF Energy                                 R     -5.381311462222730E+02
MP2 Energy                                 R     -5.385240224428287E+02
Total Energy                               R     -5.385240224428287E+02
Post-SCF wavefunction norm                 R      1.507015580139657E+00
RMS Force                                  R      4.355845742718381E-06
RMS Density                                R      9.713826920671041E-10
External E-field                           R   N=          35
  0.00000000E+00  0.00000000E+00  0.00000000E+00  0.00000000E+00  0.00000000E+00
  0.00000000E+00  0.00000000E+00  0.00000000E+00  0.00000000E+00  0.00000000E+00
  0.00000000E+00  0.00000000E+00  0.00000000E+00  0.00000000E+00  0.00000000E+00
  0.00000000E+00  0.00000000E+00  0.00000000E+00  0.00000000E+00  0.00000000E+00
  0.00000000E+00  0.00000000E+00  0.00000000E+00  0.00000000E+00  0.00000000E+00
  0.00000000E+00  0.00000000E+00  0.00000000E+00  0.00000000E+00  0.00000000E+00
  0.00000000E+00  0.00000000E+00  0.00000000E+00  0.00000000E+00  0.00000000E+00
IOpCl                                      I                0
IROHF                                      I                0
Alpha Orbital Energies                     R   N=          59
 -1.04805976E+02 -1.12954440E+01 -1.12360741E+01 -1.05401061E+01 -8.00943082E+00
 -8.00620455E+00 -8.00616841E+00 -1.13751723E+00 -1.00093304E+00 -8.43672130E-01
 -6.51161383E-01 -6.12501564E-01 -5.61342629E-01 -5.29995978E-01 -5.07721020E-01
 -4.30080774E-01 -4.29405637E-01  1.97845344E-01  2.45737658E-01  2.82620590E-01
  2.85338259E-01  3.11878907E-01  3.22609878E-01  3.76051439E-01  5.83112347E-01
  6.33600943E-01  6.60216719E-01  6.60764457E-01  6.93521837E-01  7.31238040E-01
  8.07114762E-01  8.35922593E-01  8.50076788E-01  9.34914511E-01  1.10880472E+00
  1.13860341E+00  1.14223483E+00  1.15887341E+00  1.17433132E+00  1.18527024E+00
  1.22019039E+00  1.25456418E+00  1.27950461E+00  1.30248584E+00  1.44425254E+00
  1.70980248E+00  1.79859845E+00  1.85538949E+00  2.22890835E+00  2.26464182E+00
  2.27610418E+00  2.54430969E+00  2.58225786E+00  2.63612938E+00  2.64425993E+00
  2.91630956E+00  4.51598650E+00  4.70732406E+00  4.79934839E+00
Alpha MO coefficients                      R   N=        3481
  9.96116447E-01  1.46463336E-02 -4.96190840E-05  2.37290992E-05  2.42567629E-10
 -1.77361245E-02  5.06273788E-05 -1.77547699E-05 -1.62427396E-10  1.49541671E-03
 -7.22846777E-05  2.80239551E-05  2.70696583E-10  6.26477400E-03  6.26552414E-03
  6.26183977E-03 -1.64002301E-06 -1.88589632E-11  5.34839761E-11 -9.13749014E-06
  2.02632079E-05  5.74467327E-05 -2.92887154E-05 -2.99938884E-10  1.94734024E-04
 -9.61293672E-05 -7.74170856E-06 -2.65486232E-10 -2.76578101E-05 -1.06043319E-05
 -1.92069482E-05  1.62840861E-05  1.97576017E-10  1.45033102E-10 -5.96923560E-07
  2.36202850E-05 -1.02533197E-05 -4.25352377E-06 -6.68368599E-11 -7.02987581E-05
 -9.71763923E-05 -5.32081449E-05 -8.07172917E-10 -2.51984049E-05 -9.70097100E-06
 -1.00528302E-05 -8.02321970E-06 -1.23238444E-10 -3.15353186E-12 -1.70512393E-05
 -8.24028429E-05 -1.70512512E-05 -8.24028921E-05 -3.16628563E-06 -2.16882531E-05
  1.45287100E-05 -4.97334690E-05  1.45287112E-05 -4.97334618E-05 -3.18653212E-05
  7.29932668E-05  4.65018820E-05 -1.80462374E-05 -1.69018234E-10  2.86149188E-04
 -4.03186031E-04  1.71862970E-04  1.67652704E-09  2.63485781E-03 -1.45679125E-03
  6.79287197E-04  6.87650780E-09 -1.27195464E-04 -1.73884887E-04 -1.26945642E-04
  1.60813806E-05  2.18029204E-10 -6.77380393E-10  9.95881438E-01  2.79683774E-02
  6.55341262E-04 -4.05972311E-04 -4.46710534E-09 -1.54629766E-02 -3.38111943E-04
  1.00912174E-03  1.31311367E-08 -1.83583743E-03 -1.61000352E-03 -1.45648489E-03
  1.95587414E-04  1.94141466E-09 -2.03631781E-09  5.10928375E-03  1.45274489E-04
  4.92863726E-05  8.97367919E-06  1.74313408E-10  3.89751807E-03  1.39363092E-03
  1.11690339E-03  1.60987510E-08 -3.01975434E-04 -2.98281880E-04 -1.21412908E-04
 -1.90815807E-04 -2.73153792E-09 -2.87480013E-09  1.95890825E-04  2.41033091E-03
  1.95890932E-04  2.41033156E-03 -1.20308967E-04 -6.81601163E-05 -1.46145363E-04
 -1.22484730E-05 -1.46145386E-04 -1.22484065E-05  6.61728874E-07 -4.45538901E-05
 -1.87844569E-05  1.46798354E-06 -3.42313595E-12 -6.55740093E-05  1.36502121E-04
 -1.07333695E-05  2.74663384E-11  3.07139159E-04 -2.25339570E-04  4.72017904E-05
  3.34306628E-10 -4.92327582E-05 -6.07858453E-05 -1.29823750E-04  3.60469510E-05
  5.80542739E-10  1.06821066E-09 -5.41544377E-03 -1.06561688E-05 -4.17749391E-06
 -1.06701844E-06 -1.36039968E-11  3.63908162E-03 -1.42334756E-03 -1.12474083E-03
 -1.62382170E-08 -3.68177175E-04 -2.88578019E-04 -9.48050565E-05 -2.20346293E-04
 -3.24876996E-09 -3.15858808E-09  9.95712563E-01  2.84814060E-02  1.35173876E-04
  1.76057318E-04  2.44063722E-09 -1.49718275E-02 -6.17798216E-04 -5.49649056E-04
 -7.90237566E-09 -1.87083676E-03 -1.86129601E-03 -1.84200535E-03 -2.45830947E-05
 -3.66674385E-10 -3.62778138E-10 -1.34196078E-04  1.39236882E-05 -1.34196057E-04
  1.39237274E-05  1.25030066E-04  2.50021156E-03  1.48100028E-04  2.51093721E-03
  1.48099998E-04  2.51093736E-03 -2.86733275E-01  1.03058903E+00 -3.72906770E-03
  1.93313837E-03  2.01792393E-08  2.62574789E-02 -1.09160941E-03  4.60465036E-04
  4.52414916E-09 -6.80079095E-03  1.23398498E-03 -4.94638307E-04 -4.81039739E-09
 -1.37835645E-03 -1.64488095E-03 -1.70313728E-03 -2.04644213E-04 -2.14318484E-09
  6.02400839E-10 -1.77339914E-04  6.20763074E-04 -1.15583993E-04  7.99422414E-05
  8.43314333E-10 -8.69525341E-04  9.41663254E-04  2.19406520E-04  4.35520502E-09
 -4.53976513E-04 -1.59058805E-04  8.75336687E-05  2.28641429E-04  2.14280322E-09
 -3.34185231E-09 -4.01436795E-05 -3.01881440E-04 -1.28690687E-04  4.99598560E-05
  4.62630546E-10  1.29470622E-03  1.23364758E-03  1.67726714E-04  3.76577047E-09
  1.72841527E-05 -4.94906164E-05 -6.97761531E-05  5.99424758E-05  8.74295419E-10
  3.78876869E-10 -7.28465543E-05  5.60222530E-04 -7.28464847E-05  5.60222965E-04
  3.96508086E-05  3.88684311E-04 -1.81691176E-04  1.24304394E-04 -1.81691132E-04
  1.24304271E-04 -1.40061971E-03  5.21392395E-03  8.82962184E-01 -4.53921653E-01
 -4.72120830E-06 -2.52201342E-03  2.04209190E-02 -1.03863984E-02 -1.07754681E-07
 -4.57307024E-05 -4.69054207E-03  2.27923632E-03  2.34533583E-08 -1.19658108E-04
  6.62003756E-04  8.85198973E-04  5.96041774E-04  6.16025922E-09 -2.54629641E-09
 -3.88801507E-05 -1.43739659E-03  4.09724385E-04 -2.16909625E-04 -2.21595408E-09
  3.22302645E-03  1.48986484E-04 -9.55834953E-04 -1.27153969E-08  9.31946751E-04
  1.71441476E-04 -2.88822434E-04 -6.17672120E-04 -6.13443675E-09  5.99678667E-09
  6.26363859E-05  4.26466753E-04 -4.99057195E-05 -4.13535367E-05 -6.00759484E-10
 -2.21719573E-03 -1.35391437E-03 -2.36599384E-04 -4.62173934E-09 -1.34413488E-04
  9.84201906E-05  4.72994231E-05 -5.59754672E-05 -9.52493238E-10  6.91746986E-10
 -1.15706343E-04 -7.74651853E-04 -1.15706521E-04 -7.74652549E-04 -2.76963564E-05
 -5.84669003E-05  1.70258419E-04 -1.01003876E-05  1.70258398E-04 -1.01004995E-05
 -3.82125133E-06 -2.11837155E-06  4.54230138E-01  8.83642797E-01  1.22215087E-05
 -4.48219989E-05  9.42323197E-03  1.81138880E-02  2.50671881E-07 -5.49045275E-05
 -2.15545712E-03 -4.22069920E-03 -5.83067368E-08 -2.75364335E-04  2.00536995E-04
 -4.25659041E-05 -1.64528932E-04 -2.54495918E-09  3.44283103E-09 -1.04602964E-05
 -6.84084574E-05 -8.06752786E-05  3.51876439E-05  3.72485165E-10  2.57030448E-04
  1.43843892E-04 -6.01386517E-04 -7.69472995E-09 -1.52381950E-04  2.03286880E-04
 -7.71959267E-05 -8.26515946E-05 -1.22136527E-09  4.06493554E-09  1.25369717E-05
  1.49071730E-04  2.96963128E-05  6.47001881E-06  1.35747845E-10 -1.55302530E-04
 -9.46572889E-04 -4.12074091E-06 -1.34889467E-09 -1.43374748E-04  5.47255181E-05
 -2.54019649E-05 -1.58214554E-06 -1.64183878E-10  1.18425585E-09 -1.96883570E-05
  4.71568144E-04 -1.96883334E-05  4.71567589E-04 -5.14207704E-05 -3.82528664E-04
  1.55514704E-04 -3.99472880E-04  1.55514624E-04 -3.99472501E-04  8.64626843E-12
 -3.10022376E-11 -1.38572135E-06 -1.30295743E-05  9.93570493E-01  2.16084630E-11
 -2.83895799E-08 -2.66701317E-07  2.03371028E-02 -1.26850140E-11  6.45570110E-09
  6.03387587E-08 -4.59880477E-03  6.92651746E-10 -3.25783500E-09  2.55144846E-09
  3.63048617E-09 -2.92346611E-04  1.43226398E-04 -1.54883411E-11 -7.33296331E-11
  3.84142234E-12 -2.08063434E-10  1.63969341E-05  4.31834099E-10  1.81992548E-10
  2.85481991E-09 -2.13138181E-04  3.94965054E-10 -1.36705863E-09  9.17077788E-10
  2.13596436E-09 -1.69837293E-04  5.72962803E-05 -3.91409075E-12 -3.89460571E-11
 -6.19986317E-11 -3.21561977E-10  2.52060268E-05 -8.15343471E-11  4.61169746E-10
  1.74972659E-09 -1.45580175E-04 -1.03965058E-10  4.74410084E-10 -3.48882684E-10
 -7.18307586E-10  5.82256785E-05 -2.21769801E-05 -2.82084402E-05  5.99048239E-04
  2.82083717E-05 -5.99048777E-04  1.88428238E-11  1.69218563E-10  9.82104697E-05
 -4.24311689E-04 -9.82105634E-05  4.24311831E-04  5.98126694E-02 -2.72979697E-01
  3.83311448E-02 -1.78834295E-02 -1.80447473E-07  5.26508121E-01 -8.84484161E-02
  4.12818945E-02  4.16572206E-07  2.05490917E-01 -5.88232657E-03  1.95575221E-03
  1.71557540E-08  2.43184072E-02  7.99355378E-04 -6.51881136E-03 -1.70377938E-02
 -1.73554376E-07  8.68863251E-08 -1.19430743E-01  2.20120006E-01  4.03744423E-02
 -4.11192202E-02 -4.88129070E-07  2.10157532E-01  1.63282357E-02 -1.26910723E-02
 -1.48369446E-07  1.29826932E-02  5.16064324E-03  1.24049978E-03 -5.21086183E-03
 -4.97568934E-08  5.14010069E-08 -6.39616523E-02  1.19281730E-01  4.12369322E-02
  2.75258560E-02  4.06282341E-07  8.32604491E-02 -7.17091223E-04  2.03473061E-03
  2.46920087E-08  5.85869862E-03  3.99819254E-03  6.78904394E-04  4.57765368E-03
  6.63259872E-08  5.50962550E-08  6.12712077E-02  2.43778701E-03  6.12712204E-02
  2.43778265E-03  2.93969032E-02  3.17919194E-03  3.34317177E-02  3.33039876E-03
  3.34317173E-02  3.33039829E-03  4.62077378E-02 -2.11777964E-01 -9.08891551E-03
 -8.82561718E-04 -2.32323690E-08  4.18615111E-01  2.19280343E-02  2.16213746E-03
  5.63524376E-08  2.12307487E-01 -2.26950033E-03  2.62645978E-03  3.10662163E-08
 -5.59006596E-04  2.30772303E-03  8.39903918E-04 -1.95783554E-03 -2.74675637E-08
  1.94426649E-08  7.56126038E-02 -1.47844382E-01  1.32280048E-01  2.10565333E-02
  4.49892886E-07 -1.25336892E-01  2.89816459E-02  7.43840916E-04  4.83694004E-08
  3.58544205E-03 -6.59330410E-03 -4.31957556E-03 -1.61577975E-02 -1.96344728E-07
 -5.42844239E-08  1.49838447E-01 -2.78113318E-01 -1.56747733E-02 -2.99838859E-02
 -4.07265510E-07 -2.69259113E-01 -2.00871854E-03 -6.18529646E-03 -7.99448015E-08
 -6.41996184E-03 -7.95092951E-03 -5.91139842E-03 -9.49693191E-04 -1.24611247E-08
 -3.07542060E-08 -4.87474901E-02 -1.28644191E-02 -4.87475006E-02 -1.28644212E-02
 -9.95003907E-02 -2.25418323E-02 -9.13638099E-02 -2.00703525E-02 -9.13638150E-02
 -2.00703543E-02 -2.61510943E-02  1.20716677E-01  3.87219452E-02 -3.42004778E-02
 -3.87945542E-07 -2.44584624E-01 -9.37323886E-02  8.31436880E-02  9.43671026E-07
 -1.68919796E-01 -8.46330780E-03  1.30774906E-02  1.55774844E-07  1.07612131E-02
  2.41930715E-03 -5.74096560E-03 -1.58769513E-02 -1.78749068E-07  1.00279811E-07
 -1.30451861E-01  2.49411498E-01  2.00221758E-02  1.46387640E-01  1.87203765E-06
  3.21517788E-01  1.24364514E-02  4.88523750E-02  6.33421493E-07 -8.81673002E-03
  2.01626296E-03  1.93881899E-02 -4.06264505E-03 -9.38683986E-08 -2.62455401E-07
  1.03192009E-01 -1.91286988E-01  8.24461697E-02  1.00396386E-01  1.38328496E-06
 -2.42067553E-01  2.25196432E-02  2.95896210E-02  4.04684646E-07  1.10885763E-03
 -8.99263244E-05 -1.25925350E-02  1.34493258E-02  1.93484060E-07  2.03531012E-07
  1.41555632E-01  5.19597941E-02  1.41555650E-01  5.19597983E-02 -9.02171449E-02
 -3.50506451E-02 -1.04916184E-01 -3.86599175E-02 -1.04916197E-01 -3.86599205E-02
 -2.58379424E-10  1.31027836E-09  7.91025901E-08  7.99855940E-07 -6.28640025E-02
 -2.53497307E-09 -1.99679181E-07 -2.01298256E-06  1.58227399E-01  1.83708099E-10
 -7.25890688E-08 -7.24666142E-07  5.69403787E-02  3.54180142E-08 -1.77735588E-07
  1.43524018E-07  1.93254076E-07 -1.59770477E-02  8.05142404E-03 -1.00297591E-08
  1.95584065E-08 -4.60490412E-07 -4.64140708E-06  3.64429715E-01  3.05123802E-08
 -2.40843890E-07 -2.42492665E-06  1.91034282E-01  3.00711603E-09 -4.80895813E-07
  4.80502937E-07 -2.12634959E-08 -5.54905837E-04  2.19213010E-02  6.11832950E-10
  9.24784226E-10 -3.27931214E-07 -3.11431891E-06  2.42672122E-01  1.57789234E-09
 -1.42585226E-07 -1.38395618E-06  1.07869314E-01 -1.62405362E-08  2.69262997E-07
 -2.52933575E-07 -7.19054038E-08  6.92264368E-03 -1.21578761E-02  1.73618959E-01
  1.05134453E-01 -1.73618946E-01 -1.05134441E-01 -3.08663317E-09 -4.56267233E-10
 -1.16726885E-01 -7.66031939E-02  1.16726890E-01  7.66031944E-02 -1.21645350E-02
  5.80345762E-02  1.15796557E-01  6.00788212E-03  2.19212296E-07 -1.17160880E-01
 -2.92312360E-01 -1.63086957E-02 -5.67980244E-07 -1.35203995E-01 -8.48653669E-02
 -2.17159842E-02 -3.81488984E-07  3.25518570E-02 -8.83067192E-03 -9.56254502E-03
 -1.02371303E-02 -7.14721333E-08 -1.18038468E-09 -1.85470627E-02  2.97065222E-02
  5.44047129E-02 -2.52111168E-01 -3.14332528E-06  8.87400246E-02  3.83418563E-02
 -1.43110124E-01 -1.78408799E-06  7.51840277E-03  8.82094058E-03 -1.49533902E-02
 -4.17223102E-03 -2.09807061E-08  3.46526961E-07  4.67799799E-03 -5.57612232E-03
  3.01488797E-01 -1.47154591E-01 -1.47607519E-06 -3.23895812E-02  1.40353334E-01
 -8.77715655E-02 -9.31166907E-07 -1.23322966E-02 -2.20983806E-03  1.09678732E-02
  1.96119725E-02  2.14703012E-07 -1.67446228E-07 -7.39807211E-02 -5.17459892E-02
 -7.39807219E-02 -5.17459976E-02 -2.16748123E-01 -1.57470783E-01  5.71220629E-02
  3.64348364E-02  5.71220587E-02  3.64348300E-02  6.36339353E-03 -3.02784891E-02
 -2.84615862E-02  9.81664237E-02  1.21221214E-06  6.28860790E-02  7.13223052E-02
 -2.49510602E-01 -3.08226933E-06  7.67485475E-02  1.14601218E-02 -9.74542494E-02
 -1.22209847E-06 -2.78748829E-03 -1.13077786E-02  5.47703038E-03  2.07354791E-02
  2.52236301E-07 -2.21554162E-07 -1.53493533E-02  4.26515616E-02 -2.75195326E-01
 -2.32059280E-01 -3.29503444E-06  1.09835952E-02 -1.54340378E-01 -1.19857236E-01
 -1.71725322E-06  2.83373880E-03  2.69054506E-03 -1.26220299E-02  1.49326849E-02
  2.16727307E-07  2.46886313E-07 -9.67422713E-04  7.34864710E-03  1.43724388E-01
  3.47727518E-01  4.63630361E-06 -2.56273830E-02  6.42044276E-02  1.65026855E-01
  2.19482853E-06  1.70940217E-02  9.09908839E-04 -2.39459325E-02  1.31852906E-02
  2.33922434E-07  3.86876379E-07 -6.49386211E-02 -5.05732588E-02 -6.49386353E-02
 -5.05732727E-02  2.83496804E-02  2.35147440E-02 -1.28430307E-01 -1.04736134E-01
 -1.28430317E-01 -1.04736140E-01  4.01414206E-10 -1.81755668E-09 -9.84430059E-08
 -9.74402642E-07  7.60116667E-02  4.20812801E-09  2.52517836E-07  2.49665398E-06
 -1.94767354E-01 -8.63091843E-10  1.14175968E-07  1.10925628E-06 -8.64704815E-02
 -2.26381766E-08  1.84267798E-07 -1.62137442E-07 -1.19096006E-07  1.01243054E-02
 -8.31661995E-03  3.99409618E-10  2.27533995E-10  2.68865663E-07  2.80452137E-06
 -2.20291588E-01 -1.07585199E-09  1.84507284E-07  1.89753328E-06 -1.49487011E-01
  2.31061878E-08  5.63313332E-07 -5.87398365E-07  1.68218488E-07 -1.04907364E-02
 -2.55704751E-02  1.98219243E-09 -1.78544134E-09 -4.83322270E-07 -4.68084206E-06
  3.66538747E-01 -2.01109052E-08 -3.07722074E-07 -2.92502384E-06  2.28963726E-01
 -3.44799907E-10  7.76190744E-07 -7.76772375E-07  5.06143570E-08 -1.01125413E-04
 -3.50092246E-02 -1.25254081E-01 -1.00969189E-01  1.25254077E-01  1.00969183E-01
 -7.85100142E-09 -8.91432615E-09 -2.05676784E-01 -1.67876332E-01  2.05676774E-01
  1.67876320E-01  7.79283729E-03 -3.86685803E-02 -1.62057594E-01  9.38400039E-02
  1.00969779E-06  7.85234105E-02  4.13294757E-01 -2.40213114E-01 -2.58648177E-06
  1.35238173E-01  1.51817662E-01 -9.34517895E-02 -1.02139217E-06 -3.88090474E-02
  2.47483780E-03  1.45783252E-02  3.21371616E-02  3.36558152E-07 -1.39691468E-07
 -3.81948552E-03  2.18256928E-02 -2.07179349E-01  1.75455076E-01  1.97481610E-06
 -4.86300729E-02 -1.39413924E-01  1.15904787E-01  1.31032218E-06 -3.27660079E-02
  8.69472260E-03  1.78976540E-02  1.85366060E-02  1.62966571E-07 -1.11352886E-07
 -1.61248728E-03  3.49751339E-03  2.00075856E-01 -1.66809679E-01 -1.86902363E-06
  1.01557402E-02  1.25308740E-01 -1.05030600E-01 -1.18239834E-06 -2.25990837E-02
  6.77166820E-03  1.58486241E-02  1.55099872E-02  1.38206308E-07 -1.12920767E-07
  8.62703119E-02  8.29719305E-02  8.62703037E-02  8.29719304E-02 -1.82964918E-01
 -1.68491371E-01  7.79817221E-02  7.13462223E-02  7.79817147E-02  7.13462170E-02
  1.72295002E-04 -5.77966288E-04 -1.26333680E-01 -2.30532420E-01 -3.67508979E-06