
    -----------------------------------------------------------------------
          Psi4: An Open-Source Ab Initio Electronic Structure Package
                               Psi4 1.3.2 release

                         Git: Rev {HEAD} ecbda83 


    R. M. Parrish, L. A. Burns, D. G. A. Smith, A. C. Simmonett,
    A. E. DePrince III, E. G. Hohenstein, U. Bozkaya, A. Yu. Sokolov,
    R. Di Remigio, R. M. Richard, J. F. Gonthier, A. M. James,
    H. R. McAlexander, A. Kumar, M. Saitow, X. Wang, B. P. Pritchard,
    P. Verma, H. F. Schaefer III, K. Patkowski, R. A. King, E. F. Valeev,
    F. A. Evangelista, J. M. Turney, T. D. Crawford, and C. D. Sherrill,
    J. Chem. Theory Comput. 13(7) pp 3185--3197 (2017).
    (doi: 10.1021/acs.jctc.7b00174)


                         Additional Contributions by
    P. Kraus, H. Kruse, M. H. Lechner, M. C. Schieber, R. A. Shaw,
    A. Alenaizan, R. Galvelis, Z. L. Glick, S. Lehtola, and J. P. Misiewicz

    -----------------------------------------------------------------------


    Psi4 started on: Monday, 09 November 2020 10:21AM

    Process ID: 661
    Host:       node37.bme.utexas.edu
    PSIDATADIR: /home/xy3866/psi4conda/share/psi4
    Memory:     500.0 MiB
    Threads:    8
    
  ==> Input File <==

--------------------------------------------------------------------------
#psi4
#
memory 32 gb

molecule  {
-1 1
  S       -1.5500650    -0.0000770     0.0055040
  O       -1.8677260    -0.0040310     1.4568130
  O       -1.9173420     1.2548610    -0.7013450
  O       -1.9179590    -1.2504550    -0.7090990
  C        0.2577020     0.0000600    -0.0380210
  C        0.9598570    -1.2082450    -0.0264560
  C        0.9626545     1.2082668     0.1732977
  C        2.3556760    -1.2079150     0.0024970
  C        2.3559460     1.2077510     0.0021770
  C        3.0593930    -0.0001220     0.0217850
  H        0.3939800    -2.1354100    -0.0629560
  H        0.3942590     2.1354370    -0.0632640
  H        2.8982100    -2.1524450     0.0063830
  H        2.8986710     2.1521870     0.0058350
  H        4.1480910    -0.0001990     0.0432140
units angstrom
no_reorient  #important for SAPT in psi4, default
symmetry c1  #important for SAPT in psi4, default
}

set PROPERTIES_ORIGIN ["COM"]
properties('MP2/aug-cc-pvtz', properties = ['dipole'])
--------------------------------------------------------------------------

  Memory set to  29.802 GiB by Python driver.
    SCF Algorithm Type (re)set to DF.

*** tstart() called on node37.bme.utexas.edu
*** at Mon Nov  9 10:21:34 2020

   => Loading Basis Set <=

    Name: AUG-CC-PVTZ
    Role: ORBITAL
    Keyword: BASIS
    atoms 1     entry S          line   902 file /home/xy3866/psi4conda/share/psi4/basis/aug-cc-pvtz.gbs 
    atoms 2-4   entry O          line   327 file /home/xy3866/psi4conda/share/psi4/basis/aug-cc-pvtz.gbs 
    atoms 5-10  entry C          line   235 file /home/xy3866/psi4conda/share/psi4/basis/aug-cc-pvtz.gbs 
    atoms 11-15 entry H          line    36 file /home/xy3866/psi4conda/share/psi4/basis/aug-cc-pvtz.gbs 


         ---------------------------------------------------------
                                   SCF
               by Justin Turney, Rob Parrish, Andy Simmonett
                          and Daniel G. A. Smith
                              RHF Reference
                        8 Threads,  30517 MiB Core
         ---------------------------------------------------------

  ==> Geometry <==

    Molecular point group: c1
    Full point group: C1

    Geometry (in Angstrom), charge = -1, multiplicity = 1:

       Center              X                  Y                   Z               Mass       
    ------------   -----------------  -----------------  -----------------  -----------------
         S           -1.482889519488    -0.000081156023    -0.010226705866    31.972071174400
         O           -1.800550519488    -0.004035156023     1.441082294134    15.994914619570
         O           -1.850166519488     1.254856843977    -0.717075705866    15.994914619570
         O           -1.850783519488    -1.250459156023    -0.724829705866    15.994914619570
         C            0.324877480512     0.000055843977    -0.053751705866    12.000000000000
         C            1.027032480512    -1.208249156023    -0.042186705866    12.000000000000
         C            1.029829980512     1.208262643977     0.157566994134    12.000000000000
         C            2.422851480512    -1.207919156023    -0.013233705866    12.000000000000
         C            2.423121480512     1.207746843977    -0.013553705866    12.000000000000
         C            3.126568480512    -0.000126156023     0.006054294134    12.000000000000
         H            0.461155480512    -2.135414156023    -0.078686705866     1.007825032230
         H            0.461434480512     2.135432843977    -0.078994705866     1.007825032230
         H            2.965385480512    -2.152449156023    -0.009347705866     1.007825032230
         H            2.965846480512     2.152182843977    -0.009895705866     1.007825032230
         H            4.215266480512    -0.000203156023     0.027483294134     1.007825032230

  Running in c1 symmetry.

  Rotational constants: A =      0.08920  B =      0.02797  C =      0.02438 [cm^-1]
  Rotational constants: A =   2674.16476  B =    838.45841  C =    730.84034 [MHz]
  Nuclear repulsion =  618.659727515643226

  Charge       = -1
  Multiplicity = 1
  Electrons    = 82
  Nalpha       = 41
  Nbeta        = 41

  ==> Algorithm <==

  SCF Algorithm Type is DF.
  DIIS enabled.
  MOM disabled.
  Fractional occupation disabled.
  Guess Type is SAD.
  Energy threshold   = 1.00e-10
  Density threshold  = 1.00e-10
  Integral threshold = 0.00e+00

  ==> Primary Basis <==

  Basis Set: AUG-CC-PVTZ
    Blend: AUG-CC-PVTZ
    Number of shells: 187
    Number of basis function: 579
    Number of Cartesian functions: 679
    Spherical Harmonics?: true
    Max angular momentum: 3

   => Loading Basis Set <=

    Name: (AUG-CC-PVTZ AUX)
    Role: JKFIT
    Keyword: DF_BASIS_SCF
    atoms 1     entry S          line   730 file /home/xy3866/psi4conda/share/psi4/basis/aug-cc-pvtz-jkfit.gbs 
    atoms 2-4   entry O          line   286 file /home/xy3866/psi4conda/share/psi4/basis/aug-cc-pvtz-jkfit.gbs 
    atoms 5-10  entry C          line   162 file /home/xy3866/psi4conda/share/psi4/basis/aug-cc-pvtz-jkfit.gbs 
    atoms 11-15 entry H          line    70 file /home/xy3866/psi4conda/share/psi4/basis/aug-cc-pvtz-jkfit.gbs 

  ==> Pre-Iterations <==

   -------------------------------------------------------
    Irrep   Nso     Nmo     Nalpha   Nbeta   Ndocc  Nsocc
   -------------------------------------------------------
     A        579     579       0       0       0       0
   -------------------------------------------------------
    Total     579     579      41      41      41       0
   -------------------------------------------------------

  ==> Integral Setup <==

  DFHelper Memory: AOs need 3.219 GiB; user supplied 22.352 GiB. Using in-core AOs.

  ==> MemDFJK: Density-Fitted J/K Matrices <==

    J tasked:                   Yes
    K tasked:                   Yes
    wK tasked:                   No
    OpenMP threads:               8
    Memory [MiB]:             22888
    Algorithm:                 Disk
    Schwarz Cutoff:           1E-12
    Mask sparsity (%):       4.8425
    Fitting Condition:        1E-10

   => Auxiliary Basis Set <=

  Basis Set: (AUG-CC-PVTZ AUX)
    Blend: AUG-CC-PVTZ-JKFIT
    Number of shells: 382
    Number of basis function: 1312
    Number of Cartesian functions: 1634
    Spherical Harmonics?: true
    Max angular momentum: 4

  Minimum eigenvalue in the overlap matrix is 1.8300234944E-06.
  Using Symmetric Orthogonalization.

  SCF Guess: Superposition of Atomic Densities via on-the-fly atomic UHF.

  ==> Iterations <==

                           Total Energy        Delta E     RMS |[F,P]|

   @DF-RHF iter SAD:  -851.91228661426726   -8.51912e+02   0.00000e+00 
   @DF-RHF iter   1:  -852.04666763613261   -1.34381e-01   1.60870e-03 DIIS
   @DF-RHF iter   2:  -852.28672477016562   -2.40057e-01   1.08315e-03 DIIS
   @DF-RHF iter   3:  -852.42062754874780   -1.33903e-01   1.31045e-04 DIIS
   @DF-RHF iter   4:  -852.42366895147381   -3.04140e-03   5.82972e-05 DIIS
   @DF-RHF iter   5:  -852.42432150014827   -6.52549e-04   1.21744e-05 DIIS
   @DF-RHF iter   6:  -852.42435469397697   -3.31938e-05   3.90653e-06 DIIS
   @DF-RHF iter   7:  -852.42435896325230   -4.26928e-06   1.36440e-06 DIIS
   @DF-RHF iter   8:  -852.42435967915037   -7.15898e-07   4.73388e-07 DIIS
   @DF-RHF iter   9:  -852.42435977751359   -9.83632e-08   1.67049e-07 DIIS
   @DF-RHF iter  10:  -852.42435979219624   -1.46827e-08   5.19957e-08 DIIS
   @DF-RHF iter  11:  -852.42435979421430   -2.01806e-09   2.79066e-08 DIIS
   @DF-RHF iter  12:  -852.42435979473248   -5.18185e-10   1.72127e-08 DIIS
   @DF-RHF iter  13:  -852.42435979497509   -2.42608e-10   5.06916e-09 DIIS
   @DF-RHF iter  14:  -852.42435979499726   -2.21689e-11   1.54476e-09 DIIS
   @DF-RHF iter  15:  -852.42435979500476   -7.50333e-12   5.41692e-10 DIIS
   @DF-RHF iter  16:  -852.42435979500419    5.68434e-13   1.75461e-10 DIIS
   @DF-RHF iter  17:  -852.42435979500431   -1.13687e-13   6.49423e-11 DIIS
  Energy and wave function converged.


  ==> Post-Iterations <==

    Orbital Energies [Eh]
    ---------------------

    Doubly Occupied:                                                      

       1A    -92.015652     2A    -20.352687     3A    -20.352480  
       4A    -20.351454     5A    -11.132849     6A    -11.131518  
       7A    -11.130775     8A    -11.128539     9A    -11.124855  
      10A    -11.121109    11A     -8.976389    12A     -6.662123  
      13A     -6.661309    14A     -6.661225    15A     -1.271599  
      16A     -1.128220    17A     -1.126173    18A     -1.036657  
      19A     -0.905783    20A     -0.900522    21A     -0.732437  
      22A     -0.711262    23A     -0.641159    24A     -0.580523  
      25A     -0.522527    26A     -0.511449    27A     -0.494286  
      28A     -0.471932    29A     -0.465121    30A     -0.458949  
      31A     -0.410336    32A     -0.390533    33A     -0.373662  
      34A     -0.333169    35A     -0.332546    36A     -0.300170  
      37A     -0.292375    38A     -0.271967    39A     -0.250395  
      40A     -0.225470    41A     -0.213700  

    Virtual:                                                              

      42A      0.096652    43A      0.104700    44A      0.114439  
      45A      0.138107    46A      0.144804    47A      0.165309  
      48A      0.186922    49A      0.191846    50A      0.192428  
      51A      0.194586    52A      0.195476    53A      0.197983  
      54A      0.201687    55A      0.212301    56A      0.215820  
      57A      0.218417    58A      0.227537    59A      0.228251  
      60A      0.238946    61A      0.242228    62A      0.247386  
      63A      0.250233    64A      0.255721    65A      0.258069  
      66A      0.264713    67A      0.270218    68A      0.276963  
      69A      0.295919    70A      0.301096    71A      0.326670  
      72A      0.332365    73A      0.339682    74A      0.342988  
      75A      0.348246    76A      0.353432    77A      0.360591  
      78A      0.364128    79A      0.370891    80A      0.385261  
      81A      0.388735    82A      0.394615    83A      0.399464  
      84A      0.403804    85A      0.408479    86A      0.411336  
      87A      0.416738    88A      0.418555    89A      0.422304  
      90A      0.426753    91A      0.428896    92A      0.431724  
      93A      0.436023    94A      0.443538    95A      0.453323  
      96A      0.460464    97A      0.476280    98A      0.480289  
      99A      0.482717   100A      0.488085   101A      0.492972  
     102A      0.497689   103A      0.509969   104A      0.513144  
     105A      0.515247   106A      0.530611   107A      0.534145  
     108A      0.536768   109A      0.540282   110A      0.545272  
     111A      0.555850   112A      0.564357   113A      0.576976  
     114A      0.577303   115A      0.586788   116A      0.592727  
     117A      0.596552   118A      0.601261   119A      0.604040  
     120A      0.612395   121A      0.619500   122A      0.620623  
     123A      0.627142   124A      0.634307   125A      0.640045  
     126A      0.645147   127A      0.654932   128A      0.663793  
     129A      0.666222   130A      0.675208   131A      0.680573  
     132A      0.688802   133A      0.694657   134A      0.701174  
     135A      0.711823   136A      0.719081   137A      0.723555  
     138A      0.731403   139A      0.740921   140A      0.743542  
     141A      0.757876   142A      0.762557   143A      0.772288  
     144A      0.775966   145A      0.786465   146A      0.793509  
     147A      0.802791   148A      0.820204   149A      0.825059  
     150A      0.832942   151A      0.843931   152A      0.853263  
     153A      0.862890   154A      0.875754   155A      0.880843  
     156A      0.889438   157A      0.892591   158A      0.903948  
     159A      0.925257   160A      0.933672   161A      0.939461  
     162A      0.950621   163A      0.958603   164A      0.970100  
     165A      0.973883   166A      0.979303   167A      0.985808  
     168A      0.986836   169A      0.990917   170A      0.998905  
     171A      1.002477   172A      1.014440   173A      1.017354  
     174A      1.020756   175A      1.031672   176A      1.038320  
     177A      1.043420   178A      1.054138   179A      1.057026  
     180A      1.065148   181A      1.073293   182A      1.091818  
     183A      1.094047   184A      1.100797   185A      1.103429  
     186A      1.106264   187A      1.122032   188A      1.124246  
     189A      1.134866   190A      1.142026   191A      1.152865  
     192A      1.162067   193A      1.164498   194A      1.172299  
     195A      1.174480   196A      1.177901   197A      1.185063  
     198A      1.191577   199A      1.197242   200A      1.203008  
     201A      1.209671   202A      1.213538   203A      1.217779  
     204A      1.225691   205A      1.228193   206A      1.228881  
     207A      1.237759   208A      1.246825   209A      1.256041  
     210A      1.263463   211A      1.269933   212A      1.282213  
     213A      1.290909   214A      1.295741   215A      1.299030  
     216A      1.302805   217A      1.317245   218A      1.320988  
     219A      1.324018   220A      1.332487   221A      1.334389  
     222A      1.348873   223A      1.351190   224A      1.357658  
     225A      1.369974   226A      1.375404   227A      1.383498  
     228A      1.394443   229A      1.397849   230A      1.412455  
     231A      1.417048   232A      1.439225   233A      1.442991  
     234A      1.447899   235A      1.453523   236A      1.456921  
     237A      1.471013   238A      1.476657   239A      1.481234  
     240A      1.494475   241A      1.499498   242A      1.505372  
     243A      1.521492   244A      1.530012   245A      1.546046  
     246A      1.562577   247A      1.583912   248A      1.595465  
     249A      1.596514   250A      1.611298   251A      1.631300  
     252A      1.639591   253A      1.658905   254A      1.671364  
     255A      1.678771   256A      1.692953   257A      1.696552  
     258A      1.710515   259A      1.720390   260A      1.729147  
     261A      1.754622   262A      1.760183   263A      1.772808  
     264A      1.786541   265A      1.789723   266A      1.799948  
     267A      1.813554   268A      1.816165   269A      1.841453  
     270A      1.852323   271A      1.867881   272A      1.877865  
     273A      1.880768   274A      1.907336   275A      1.921361  
     276A      1.928749   277A      1.940442   278A      1.953628  
     279A      1.955473   280A      1.978165   281A      1.988199  
     282A      1.996874   283A      2.003277   284A      2.013874  
     285A      2.028702   286A      2.052674   287A      2.063486  
     288A      2.079255   289A      2.084003   290A      2.093820  
     291A      2.107353   292A      2.118748   293A      2.129861  
     294A      2.136993   295A      2.141610   296A      2.153110  
     297A      2.166953   298A      2.173208   299A      2.189035  
     300A      2.194926   301A      2.207410   302A      2.209548  
     303A      2.223967   304A      2.255182   305A      2.271457  
     306A      2.277193   307A      2.293296   308A      2.311136  
     309A      2.317641   310A      2.334777   311A      2.349226  
     312A      2.369828   313A      2.376475   314A      2.386987  
     315A      2.401675   316A      2.417842   317A      2.429122  
     318A      2.430048   319A      2.448876   320A      2.464515  
     321A      2.472041   322A      2.482126   323A      2.490272  
     324A      2.491536   325A      2.499271   326A      2.517261  
     327A      2.534337   328A      2.544564   329A      2.552497  
     330A      2.565342   331A      2.568775   332A      2.592395  
     333A      2.606744   334A      2.610731   335A      2.615147  
     336A      2.635477   337A      2.641857   338A      2.646917  
     339A      2.654252   340A      2.669990   341A      2.689949  
     342A      2.709238   343A      2.727783   344A      2.738401  
     345A      2.746060   346A      2.751732   347A      2.774739  
     348A      2.780635   349A      2.787394   350A      2.800876  
     351A      2.822426   352A      2.844973   353A      2.857921  
     354A      2.881332   355A      2.892241   356A      2.904923  
     357A      2.911166   358A      2.937134   359A      2.945986  
     360A      2.950788   361A      2.981955   362A      3.002648  
     363A      3.040952   364A      3.048517   365A      3.053517  
     366A      3.074345   367A      3.087232   368A      3.100887  
     369A      3.139404   370A      3.152141   371A      3.165535  
     372A      3.198172   373A      3.227374   374A      3.252330  
     375A      3.273649   376A      3.310613   377A      3.315592  
     378A      3.324843   379A      3.343857   380A      3.362700  
     381A      3.387944   382A      3.413141   383A      3.436676  
     384A      3.448893   385A      3.465018   386A      3.480330  
     387A      3.501966   388A      3.504803   389A      3.514621  
     390A      3.516417   391A      3.520744   392A      3.545332  
     393A      3.556954   394A      3.569765   395A      3.586398  
     396A      3.605721   397A      3.626808   398A      3.631965  
     399A      3.656772   400A      3.659176   401A      3.675810  
     402A      3.682447   403A      3.699931   404A      3.709487  
     405A      3.725119   406A      3.735252   407A      3.740118  
     408A      3.746555   409A      3.769602   410A      3.787328  
     411A      3.791826   412A      3.820824   413A      3.825252  
     414A      3.843254   415A      3.861689   416A      3.871937  
     417A      3.883078   418A      3.901929   419A      3.911895  
     420A      3.930827   421A      3.937727   422A      3.960770  
     423A      3.980603   424A      3.990289   425A      4.003095  
     426A      4.006284   427A      4.022681   428A      4.034302  
     429A      4.040213   430A      4.055474   431A      4.063835  
     432A      4.099252   433A      4.106441   434A      4.111757  
     435A      4.131880   436A      4.134902   437A      4.155035  
     438A      4.174711   439A      4.197197   440A      4.224630  
     441A      4.241688   442A      4.256967   443A      4.261408  
     444A      4.288419   445A      4.304382   446A      4.326483  
     447A      4.344214   448A      4.349994   449A      4.356902  
     450A      4.373891   451A      4.379297   452A      4.395972  
     453A      4.432815   454A      4.436032   455A      4.458829  
     456A      4.475319   457A      4.483897   458A      4.512850  
     459A      4.517373   460A      4.537634   461A      4.558767  
     462A      4.566236   463A      4.575619   464A      4.587764  
     465A      4.606089   466A      4.646562   467A      4.677612  
     468A      4.702078   469A      4.722450   470A      4.776559  
     471A      4.800233   472A      4.821909   473A      4.851739  
     474A      4.879757   475A      4.889499   476A      4.905101  
     477A      4.926953   478A      4.937979   479A      4.956649  
     480A      4.990527   481A      5.001468   482A      5.019602  
     483A      5.030330   484A      5.071178   485A      5.089547  
     486A      5.109830   487A      5.132684   488A      5.133966  
     489A      5.148114   490A      5.184778   491A      5.187162  
     492A      5.209941   493A      5.218017   494A      5.239322  
     495A      5.263517   496A      5.277457   497A      5.279055  
     498A      5.298029   499A      5.331852   500A      5.340823  
     501A      5.370154   502A      5.378882   503A      5.403569  
     504A      5.415704   505A      5.454187   506A      5.491625  
     507A      5.518461   508A      5.590487   509A      5.628215  
     510A      5.699082   511A      5.720711   512A      5.776902  
     513A      5.851115   514A      5.887558   515A      5.908397  
     516A      5.974516   517A      6.007524   518A      6.037763  
     519A      6.079207   520A      6.142172   521A      6.193490  
     522A      6.235489   523A      6.288381   524A      6.324752  
     525A      6.363468   526A      6.416496   527A      6.545954  
     528A      6.685788   529A      6.775351   530A      6.863510  
     531A      6.869207   532A      6.873664   533A      6.899262  
     534A      6.907141   535A      6.917896   536A      6.928377  
     537A      6.963141   538A      7.021331   539A      7.045625  
     540A      7.075420   541A      7.098439   542A      7.111252  
     543A      7.130564   544A      7.135031   545A      7.141284  
     546A      7.142516   547A      7.155145   548A      7.166586  
     549A      7.180730   550A      7.213419   551A      7.279835  
     552A      7.291698   553A      7.295830   554A      7.338181  
     555A      7.438014   556A      7.440782   557A      7.460999  
     558A      7.506018   559A      7.516294   560A      7.547557  
     561A      7.686992   562A      7.779048   563A      7.791956  
     564A      7.842511   565A      7.858428   566A      7.903267  
     567A      7.906029   568A      8.006879   569A      8.026559  
     570A     12.734783   571A     12.930772   572A     13.006415  
     573A     14.620433   574A     15.994534   575A     16.247704  
     576A     18.192257   577A     18.844757   578A     19.203044  
     579A     19.621923  

    Final Occupation by Irrep:
              A 
    DOCC [    41 ]

  @DF-RHF Final Energy:  -852.42435979500431

   => Energetics <=

    Nuclear Repulsion Energy =            618.6597275156432261
    One-Electron Energy =               -2413.8564047077607029
    Two-Electron Energy =                 942.7723173971131700
    Total Energy =                       -852.4243597950043068

Computation Completed

*** tstop() called on node37.bme.utexas.edu at Mon Nov  9 10:23:12 2020
Module time:
	user time   =     359.25 seconds =       5.99 minutes
	system time =      72.43 seconds =       1.21 minutes
	total time  =         98 seconds =       1.63 minutes
Total time:
	user time   =     359.25 seconds =       5.99 minutes
	system time =      72.43 seconds =       1.21 minutes
	total time  =         98 seconds =       1.63 minutes
   => Loading Basis Set <=

    Name: (AUG-CC-PVTZ AUX)
    Role: RIFIT
    Keyword: DF_BASIS_MP2
    atoms 1     entry S          line   666 file /home/xy3866/psi4conda/share/psi4/basis/aug-cc-pvtz-ri.gbs 
    atoms 2-4   entry O          line   264 file /home/xy3866/psi4conda/share/psi4/basis/aug-cc-pvtz-ri.gbs 
    atoms 5-10  entry C          line   148 file /home/xy3866/psi4conda/share/psi4/basis/aug-cc-pvtz-ri.gbs 
    atoms 11-15 entry H          line    30 file /home/xy3866/psi4conda/share/psi4/basis/aug-cc-pvtz-ri.gbs 


*** tstart() called on node37.bme.utexas.edu
*** at Mon Nov  9 10:23:12 2020


  //>>>>>>>>>>>>>>>>>>>>>>>>>>>>>>>>>>>//
  //               DFMP2               //
  //<<<<<<<<<<<<<<<<<<<<<<<<<<<<<<<<<<<//

	 --------------------------------------------------------
	                          DF-MP2                         
	      2nd-Order Density-Fitted Moller-Plesset Theory     
	              RMP2 Wavefunction,   8 Threads             
	                                                         
	        Rob Parrish, Justin Turney, Andy Simmonett,      
	           Ed Hohenstein, and C. David Sherrill          
	 --------------------------------------------------------

   => Auxiliary Basis Set <=

  Basis Set: (AUG-CC-PVTZ AUX)
    Blend: AUG-CC-PVTZ-RI
    Number of shells: 359
    Number of basis function: 1331
    Number of Cartesian functions: 1690
    Spherical Harmonics?: true
    Max angular momentum: 4

	 --------------------------------------------------------
	                 NBF =   579, NAUX =  1331
	 --------------------------------------------------------
	   CLASS    FOCC     OCC    AOCC    AVIR     VIR    FVIR
	   PAIRS       0      41      41     538     538       0
	 --------------------------------------------------------

  DFHelper Memory: AOs need 3.219 GiB; user supplied 22.352 GiB. Using in-core AOs.


         ------------------------------------------------------------
                                     CPHF                           
                                  Rob Parrish                       
         ------------------------------------------------------------

  ==> Geometry <==

    Molecular point group: c1
    Full point group: C1

    Geometry (in Angstrom), charge = -1, multiplicity = 1:

       Center              X                  Y                   Z               Mass       
    ------------   -----------------  -----------------  -----------------  -----------------
         S           -1.482889519488    -0.000081156023    -0.010226705866    31.972071174400
         O           -1.800550519488    -0.004035156023     1.441082294134    15.994914619570
         O           -1.850166519488     1.254856843977    -0.717075705866    15.994914619570
         O           -1.850783519488    -1.250459156023    -0.724829705866    15.994914619570
         C            0.324877480512     0.000055843977    -0.053751705866    12.000000000000
         C            1.027032480512    -1.208249156023    -0.042186705866    12.000000000000
         C            1.029829980512     1.208262643977     0.157566994134    12.000000000000
         C            2.422851480512    -1.207919156023    -0.013233705866    12.000000000000
         C            2.423121480512     1.207746843977    -0.013553705866    12.000000000000
         C            3.126568480512    -0.000126156023     0.006054294134    12.000000000000
         H            0.461155480512    -2.135414156023    -0.078686705866     1.007825032230
         H            0.461434480512     2.135432843977    -0.078994705866     1.007825032230
         H            2.965385480512    -2.152449156023    -0.009347705866     1.007825032230
         H            2.965846480512     2.152182843977    -0.009895705866     1.007825032230
         H            4.215266480512    -0.000203156023     0.027483294134     1.007825032230

  Nuclear repulsion =  618.659727515643226
  Reference energy  = -852.424359795004307

  ==> Basis Set <==

  Basis Set: AUG-CC-PVTZ
    Blend: AUG-CC-PVTZ
    Number of shells: 187
    Number of basis function: 579
    Number of Cartesian functions: 679
    Spherical Harmonics?: true
    Max angular momentum: 3

  ==> CGRSolver (by Rob Parrish) <==

   Number of roots    =         1
   Preconditioning    =    JACOBI
   Convergence cutoff =     1E-06
   Maximum iterations =       100

  ==> CPHFRHamiltonian (by Rob Parrish) <== 

  ==> MemDFJK: Density-Fitted J/K Matrices <==

    J tasked:                   Yes
    K tasked:                   Yes
    wK tasked:                   No
    OpenMP threads:               8
    Memory [MiB]:             22888
    Algorithm:                 Disk
    Schwarz Cutoff:           1E-12
    Mask sparsity (%):       4.8425
    Fitting Condition:        1E-10

   => Auxiliary Basis Set <=

  Basis Set: (AUG-CC-PVTZ AUX)
    Blend: AUG-CC-PVTZ-JKFIT
    Number of shells: 382
    Number of basis function: 1312
    Number of Cartesian functions: 1634
    Spherical Harmonics?: true
    Max angular momentum: 4

  ==> CPHF Iterations <==

  => Iterations <=

             Iter  Converged  Remaining    Residual
  CGR           1          0          1   1.087E-01
  CGR           2          0          1   2.850E-02
  CGR           3          0          1   1.203E-02
  CGR           4          0          1   4.225E-03
  CGR           5          0          1   1.566E-03
  CGR           6          0          1   7.017E-04
  CGR           7          0          1   3.512E-04
  CGR           8          0          1   1.411E-04
  CGR           9          0          1   3.912E-05
  CGR          10          0          1   1.439E-05
  CGR          11          0          1   6.363E-06
  CGR          12          0          1   1.362E-06
  CGR          13          1          0   5.656E-07

    CGRSolver converged.

	-----------------------------------------------------------
	 ==================> DF-MP2 Energies <==================== 
	-----------------------------------------------------------
	 Reference Energy          =    -852.4243597950043068 [Eh]
	 Singles Energy            =      -0.0000000000000000 [Eh]
	 Same-Spin Energy          =      -0.5397394546720385 [Eh]
	 Opposite-Spin Energy      =      -1.5573248862540752 [Eh]
	 Correlation Energy        =      -2.0970643409261136 [Eh]
	 Total Energy              =    -854.5214241359303742 [Eh]
	-----------------------------------------------------------
	 ================> DF-SCS-MP2 Energies <================== 
	-----------------------------------------------------------
	 SCS Same-Spin Scale       =       0.3333333333333333 [-]
	 SCS Opposite-Spin Scale   =       1.2000000000000000 [-]
	 SCS Same-Spin Energy      =      -0.1799131515573462 [Eh]
	 SCS Opposite-Spin Energy  =      -1.8687898635048901 [Eh]
	 SCS Correlation Energy    =      -2.0487030150622361 [Eh]
	 SCS Total Energy          =    -854.4730628100664944 [Eh]
	-----------------------------------------------------------



Properties will be evaluated at  -0.000000,   0.000000,   0.000000 [a0]

Properties computed using the MP2 density matrix

  Nuclear Dipole Moment: [e a0]
     X:    10.3114      Y:    -0.0004      Z:    -0.1404

  Electronic Dipole Moment: [e a0]
     X:    -7.1707      Y:    -0.0319      Z:     0.0913

  Dipole Moment: [e a0]
     X:     3.1407      Y:    -0.0324      Z:    -0.0491     Total:     3.1413

  Dipole Moment: [D]
     X:     7.9829      Y:    -0.0823      Z:    -0.1248     Total:     7.9843


*** tstop() called on node37.bme.utexas.edu at Mon Nov  9 10:27:40 2020
Module time:
	user time   =    1298.48 seconds =      21.64 minutes
	system time =     116.19 seconds =       1.94 minutes
	total time  =        268 seconds =       4.47 minutes
Total time:
	user time   =    1658.93 seconds =      27.65 minutes
	system time =     188.71 seconds =       3.15 minutes
	total time  =        366 seconds =       6.10 minutes

    Psi4 stopped on: Monday, 09 November 2020 10:27AM
    Psi4 wall time for execution: 0:06:05.68

*** Psi4 exiting successfully. Buy a developer a beer!
