176_3-Fluoropropanol Gaussian SP Calculation on node73.bme.utexas.edu   
Freq      RMP2-FC                                                     6-31G(d)            
Number of atoms                            I               12
Info1-9                                    I   N=           9
          23          22        1002           0           0         100
           6           2           1
Charge                                     I                0
Multiplicity                               I                1
Number of electrons                        I               42
Number of alpha electrons                  I               21
Number of beta electrons                   I               21
Number of basis functions                  I               89
Number of independent functions            I               89
Number of point charges in /Mol/           I                0
Number of translation vectors              I                0
Atomic numbers                             I   N=          12
           9           8           6           6           6           1
           1           1           1           1           1           1
Nuclear charges                            R   N=          12
  9.00000000E+00  8.00000000E+00  6.00000000E+00  6.00000000E+00  6.00000000E+00
  1.00000000E+00  1.00000000E+00  1.00000000E+00  1.00000000E+00  1.00000000E+00
  1.00000000E+00  1.00000000E+00
Current cartesian coordinates              R   N=          36
 -4.51757657E+00 -6.78254187E-01 -1.23283711E-02  4.59718698E+00 -5.40074834E-01
 -1.85863600E-01 -2.73289591E-02 -6.56629079E-01 -5.77340690E-02  2.36247066E+00
  9.46569576E-01  5.35080851E-02 -2.41261610E+00  9.21557988E-01  3.19648049E-02
 -6.13911990E-02 -1.98136659E+00  1.53551697E+00 -8.96477678E-03 -1.77632027E+00
 -1.79486934E+00  2.39877547E+00  2.07395112E+00  1.80071074E+00  2.42119101E+00
  2.26746299E+00 -1.53448304E+00 -2.54317394E+00  2.18911276E+00 -1.59846598E+00
 -2.51397239E+00  2.05335288E+00  1.76201512E+00  4.65307549E+00 -1.67029744E+00
  1.26100675E+00
Force Field                                I                0
Int Atom Types                             I   N=          12
           0           0           0           0           0           0
           0           0           0           0           0           0
MM charges                                 R   N=          12
  0.00000000E+00  0.00000000E+00  0.00000000E+00  0.00000000E+00  0.00000000E+00
  0.00000000E+00  0.00000000E+00  0.00000000E+00  0.00000000E+00  0.00000000E+00
  0.00000000E+00  0.00000000E+00
Integer atomic weights                     I   N=          12
          19          16          12          12          12           1
           1           1           1           1           1           1
Real atomic weights                        R   N=          12
  1.89984032E+01  1.59949146E+01  1.20000000E+01  1.20000000E+01  1.20000000E+01
  1.00782504E+00  1.00782504E+00  1.00782504E+00  1.00782504E+00  1.00782504E+00
  1.00782504E+00  1.00782504E+00
Atom fragment info                         I   N=          12
           0           0           0           0           0           0
           0           0           0           0           0           0
Atom residue num                           I   N=          12
           0           0           0           0           0           0
           0           0           0           0           0           0
Nuclear spins                              I   N=          12
           1           0           0           0           0           1
           1           1           1           1           1           1
Nuclear ZEff                               R   N=          12
 -6.75000000E+00 -5.60000000E+00 -3.60000000E+00 -3.60000000E+00 -3.60000000E+00
 -1.00000000E+00 -1.00000000E+00 -1.00000000E+00 -1.00000000E+00 -1.00000000E+00
 -1.00000000E+00 -1.00000000E+00
Nuclear QMom                               R   N=          12
  0.00000000E+00  0.00000000E+00  0.00000000E+00  0.00000000E+00  0.00000000E+00
  0.00000000E+00  0.00000000E+00  0.00000000E+00  0.00000000E+00  0.00000000E+00
  0.00000000E+00  0.00000000E+00
Nuclear GFac                               R   N=          12
  2.62886700E+00  0.00000000E+00  0.00000000E+00  0.00000000E+00  0.00000000E+00
  2.79284600E+00  2.79284600E+00  2.79284600E+00  2.79284600E+00  2.79284600E+00
  2.79284600E+00  2.79284600E+00
MicOpt                                     I   N=          12
          -1          -1          -1          -1          -1          -1
          -1          -1          -1          -1          -1          -1
Number of contracted shells                I               34
Number of primitive shells                 I               83
Pure/Cartesian d shells                    I                1
Pure/Cartesian f shells                    I                0
Highest angular momentum                   I                2
Largest degree of contraction              I                6
Shell types                                I   N=          34
           0          -1          -1           2           0          -1
          -1           2           0          -1          -1           2
           0          -1          -1           2           0          -1
          -1           2           0           0           0           0
           0           0           0           0           0           0
           0           0           0           0
Number of primitives per shell             I   N=          34
           6           3           1           1           6           3
           1           1           6           3           1           1
           6           3           1           1           6           3
           1           1           3           1           3           1
           3           1           3           1           3           1
           3           1           3           1
Shell to atom map                          I   N=          34
           1           1           1           1           2           2
           2           2           3           3           3           3
           4           4           4           4           5           5
           5           5           6           6           7           7
           8           8           9           9          10          10
          11          11          12          12
Primitive exponents                        R   N=          83
  7.00171309E+03  1.05136609E+03  2.39285690E+02  6.73974453E+01  2.15199573E+01
  7.40310130E+00  2.08479528E+01  4.80830834E+00  1.34406986E+00  3.58151393E-01
  8.00000000E-01  5.48467166E+03  8.25234946E+02  1.88046958E+02  5.29645000E+01
  1.68975704E+01  5.79963534E+00  1.55396162E+01  3.59993359E+00  1.01376175E+00
  2.70005823E-01  8.00000000E-01  3.04752488E+03  4.57369518E+02  1.03948685E+02
  2.92101553E+01  9.28666296E+00  3.16392696E+00  7.86827235E+00  1.88128854E+00
  5.44249258E-01  1.68714478E-01  8.00000000E-01  3.04752488E+03  4.57369518E+02
  1.03948685E+02  2.92101553E+01  9.28666296E+00  3.16392696E+00  7.86827235E+00
  1.88128854E+00  5.44249258E-01  1.68714478E-01  8.00000000E-01  3.04752488E+03
  4.57369518E+02  1.03948685E+02  2.92101553E+01  9.28666296E+00  3.16392696E+00
  7.86827235E+00  1.88128854E+00  5.44249258E-01  1.68714478E-01  8.00000000E-01
  1.87311370E+01  2.82539436E+00  6.40121692E-01  1.61277759E-01  1.87311370E+01
  2.82539436E+00  6.40121692E-01  1.61277759E-01  1.87311370E+01  2.82539436E+00
  6.40121692E-01  1.61277759E-01  1.87311370E+01  2.82539436E+00  6.40121692E-01
  1.61277759E-01  1.87311370E+01  2.82539436E+00  6.40121692E-01  1.61277759E-01
  1.87311370E+01  2.82539436E+00  6.40121692E-01  1.61277759E-01  1.87311370E+01
  2.82539436E+00  6.40121692E-01  1.61277759E-01
Contraction coefficients                   R   N=          83
  1.81961690E-03  1.39160796E-02  6.84053245E-02  2.33185760E-01  4.71267439E-01
  3.56618546E-01 -1.08506975E-01 -1.46451658E-01  1.12868858E+00  1.00000000E+00
  1.00000000E+00  1.83107443E-03  1.39501722E-02  6.84450781E-02  2.32714336E-01
  4.70192898E-01  3.58520853E-01 -1.10777550E-01 -1.48026263E-01  1.13076702E+00
  1.00000000E+00  1.00000000E+00  1.83473713E-03  1.40373228E-02  6.88426223E-02
  2.32184443E-01  4.67941348E-01  3.62311985E-01 -1.19332420E-01 -1.60854152E-01
  1.14345644E+00  1.00000000E+00  1.00000000E+00  1.83473713E-03  1.40373228E-02
  6.88426223E-02  2.32184443E-01  4.67941348E-01  3.62311985E-01 -1.19332420E-01
 -1.60854152E-01  1.14345644E+00  1.00000000E+00  1.00000000E+00  1.83473713E-03
  1.40373228E-02  6.88426223E-02  2.32184443E-01  4.67941348E-01  3.62311985E-01
 -1.19332420E-01 -1.60854152E-01  1.14345644E+00  1.00000000E+00  1.00000000E+00
  3.34946043E-02  2.34726953E-01  8.13757326E-01  1.00000000E+00  3.34946043E-02
  2.34726953E-01  8.13757326E-01  1.00000000E+00  3.34946043E-02  2.34726953E-01
  8.13757326E-01  1.00000000E+00  3.34946043E-02  2.34726953E-01  8.13757326E-01
  1.00000000E+00  3.34946043E-02  2.34726953E-01  8.13757326E-01  1.00000000E+00
  3.34946043E-02  2.34726953E-01  8.13757326E-01  1.00000000E+00  3.34946043E-02
  2.34726953E-01  8.13757326E-01  1.00000000E+00
P(S=P) Contraction coefficients            R   N=          83
  0.00000000E+00  0.00000000E+00  0.00000000E+00  0.00000000E+00  0.00000000E+00
  0.00000000E+00  7.16287242E-02  3.45912103E-01  7.22469956E-01  1.00000000E+00
  0.00000000E+00  0.00000000E+00  0.00000000E+00  0.00000000E+00  0.00000000E+00
  0.00000000E+00  0.00000000E+00  7.08742682E-02  3.39752839E-01  7.27158577E-01
  1.00000000E+00  0.00000000E+00  0.00000000E+00  0.00000000E+00  0.00000000E+00
  0.00000000E+00  0.00000000E+00  0.00000000E+00  6.89990666E-02  3.16423961E-01
  7.44308291E-01  1.00000000E+00  0.00000000E+00  0.00000000E+00  0.00000000E+00
  0.00000000E+00  0.00000000E+00  0.00000000E+00  0.00000000E+00  6.89990666E-02
  3.16423961E-01  7.44308291E-01  1.00000000E+00  0.00000000E+00  0.00000000E+00
  0.00000000E+00  0.00000000E+00  0.00000000E+00  0.00000000E+00  0.00000000E+00
  6.89990666E-02  3.16423961E-01  7.44308291E-01  1.00000000E+00  0.00000000E+00
  0.00000000E+00  0.00000000E+00  0.00000000E+00  0.00000000E+00  0.00000000E+00
  0.00000000E+00  0.00000000E+00  0.00000000E+00  0.00000000E+00  0.00000000E+00
  0.00000000E+00  0.00000000E+00  0.00000000E+00  0.00000000E+00  0.00000000E+00
  0.00000000E+00  0.00000000E+00  0.00000000E+00  0.00000000E+00  0.00000000E+00
  0.00000000E+00  0.00000000E+00  0.00000000E+00  0.00000000E+00  0.00000000E+00
  0.00000000E+00  0.00000000E+00  0.00000000E+00
Coordinates of each shell                  R   N=         102
 -4.51757657E+00 -6.78254187E-01 -1.23283711E-02 -4.51757657E+00 -6.78254187E-01
 -1.23283711E-02 -4.51757657E+00 -6.78254187E-01 -1.23283711E-02 -4.51757657E+00
 -6.78254187E-01 -1.23283711E-02  4.59718698E+00 -5.40074834E-01 -1.85863600E-01
  4.59718698E+00 -5.40074834E-01 -1.85863600E-01  4.59718698E+00 -5.40074834E-01
 -1.85863600E-01  4.59718698E+00 -5.40074834E-01 -1.85863600E-01 -2.73289591E-02
 -6.56629079E-01 -5.77340690E-02 -2.73289591E-02 -6.56629079E-01 -5.77340690E-02
 -2.73289591E-02 -6.56629079E-01 -5.77340690E-02 -2.73289591E-02 -6.56629079E-01
 -5.77340690E-02  2.36247066E+00  9.46569576E-01  5.35080851E-02  2.36247066E+00
  9.46569576E-01  5.35080851E-02  2.36247066E+00  9.46569576E-01  5.35080851E-02
  2.36247066E+00  9.46569576E-01  5.35080851E-02 -2.41261610E+00  9.21557988E-01
  3.19648049E-02 -2.41261610E+00  9.21557988E-01  3.19648049E-02 -2.41261610E+00
  9.21557988E-01  3.19648049E-02 -2.41261610E+00  9.21557988E-01  3.19648049E-02
 -6.13911990E-02 -1.98136659E+00  1.53551697E+00 -6.13911990E-02 -1.98136659E+00
  1.53551697E+00 -8.96477678E-03 -1.77632027E+00 -1.79486934E+00 -8.96477678E-03
 -1.77632027E+00 -1.79486934E+00  2.39877547E+00  2.07395112E+00  1.80071074E+00
  2.39877547E+00  2.07395112E+00  1.80071074E+00  2.42119101E+00  2.26746299E+00
 -1.53448304E+00  2.42119101E+00  2.26746299E+00 -1.53448304E+00 -2.54317394E+00
  2.18911276E+00 -1.59846598E+00 -2.54317394E+00  2.18911276E+00 -1.59846598E+00
 -2.51397239E+00  2.05335288E+00  1.76201512E+00 -2.51397239E+00  2.05335288E+00
  1.76201512E+00  4.65307549E+00 -1.67029744E+00  1.26100675E+00  4.65307549E+00
 -1.67029744E+00  1.26100675E+00
Constraint Structure                       R   N=          36
 -4.51757657E+00 -6.78254187E-01 -1.23283711E-02  4.59718698E+00 -5.40074834E-01
 -1.85863600E-01 -2.73289591E-02 -6.56629079E-01 -5.77340690E-02  2.36247066E+00
  9.46569576E-01  5.35080851E-02 -2.41261610E+00  9.21557988E-01  3.19648049E-02
 -6.13911990E-02 -1.98136659E+00  1.53551697E+00 -8.96477678E-03 -1.77632027E+00
 -1.79486934E+00  2.39877547E+00  2.07395112E+00  1.80071074E+00  2.42119101E+00
  2.26746299E+00 -1.53448304E+00 -2.54317394E+00  2.18911276E+00 -1.59846598E+00
 -2.51397239E+00  2.05335288E+00  1.76201512E+00  4.65307549E+00 -1.67029744E+00
  1.26100675E+00
Num ILSW                                   I              100
ILSW                                       I   N=         100
           0           1           0           0           2           0
           0           0           0           0           0          -1
           0           0           0           0           0           0
           0           0           0           0           1           0
           1           0           0           0           0           0
           0           0      100000           0          -1           0
           0           0           0           0           0           0
           0           0           0           1           1           0
           0           0           1           0           0           0
           0           0           4          40           0           0
           0           0           0           0           0           0
           0           0           0           0           0           0
           0           0           0           0           0           0
           0           0           0           0           0           0
           0           0           0           0           0           0
           0           0           0           0           0           0
           0           0           0           0
Num RLSW                                   I               40
RLSW                                       R   N=          40
  1.00000000E+00  1.00000000E+00  1.00000000E+00  1.00000000E+00  1.00000000E+00
  0.00000000E+00  0.00000000E+00  1.00000000E+00  0.00000000E+00  0.00000000E+00
  0.00000000E+00  0.00000000E+00  1.00000000E+00  0.00000000E+00  0.00000000E+00
  0.00000000E+00  0.00000000E+00  1.00000000E+00  0.00000000E+00  0.00000000E+00
  0.00000000E+00  0.00000000E+00  1.00000000E+00  0.00000000E+00  0.00000000E+00
  0.00000000E+00  0.00000000E+00  1.00000000E+00  0.00000000E+00  0.00000000E+00
  0.00000000E+00  0.00000000E+00  0.00000000E+00  0.00000000E+00  0.00000000E+00
  0.00000000E+00  0.00000000E+00  0.00000000E+00  1.00000000E+00  1.00000000E+00
MxBond                                     I                4
NBond                                      I   N=          12
           1           2           4           4           4           1
           1           1           1           1           1           1
IBond                                      I   N=          48
           5           0           0           0           4          12
           0           0           4           5           6           7
           2           3           8           9           1           3
          10          11           3           0           0           0
           3           0           0           0           4           0
           0           0           4           0           0           0
           5           0           0           0           5           0
           0           0           2           0           0           0
RBond                                      R   N=          48
  1.00000000E+00  0.00000000E+00  0.00000000E+00  0.00000000E+00  1.00000000E+00
  1.00000000E+00  0.00000000E+00  0.00000000E+00  1.00000000E+00  1.00000000E+00
  1.00000000E+00  1.00000000E+00  1.00000000E+00  1.00000000E+00  1.00000000E+00
  1.00000000E+00  1.00000000E+00  1.00000000E+00  1.00000000E+00  1.00000000E+00
  1.00000000E+00  0.00000000E+00  0.00000000E+00  0.00000000E+00  1.00000000E+00
  0.00000000E+00  0.00000000E+00  0.00000000E+00  1.00000000E+00  0.00000000E+00
  0.00000000E+00  0.00000000E+00  1.00000000E+00  0.00000000E+00  0.00000000E+00
  0.00000000E+00  1.00000000E+00  0.00000000E+00  0.00000000E+00  0.00000000E+00
  1.00000000E+00  0.00000000E+00  0.00000000E+00  0.00000000E+00  1.00000000E+00
  0.00000000E+00  0.00000000E+00  0.00000000E+00
Virial Ratio                               R      2.002089498814749E+00
SCF Energy                                 R     -2.919546629259264E+02
MP2 Energy                                 R     -2.926941919295836E+02
Total Energy                               R     -2.926941919295836E+02
Post-SCF wavefunction norm                 R      1.557281724084199E+00
RMS Force                                  R      3.878432283218893E-07
RMS Density                                R      5.157731115852754E-10
External E-field                           R   N=          35
  0.00000000E+00  0.00000000E+00  0.00000000E+00  0.00000000E+00  0.00000000E+00
  0.00000000E+00  0.00000000E+00  0.00000000E+00  0.00000000E+00  0.00000000E+00
  0.00000000E+00  0.00000000E+00  0.00000000E+00  0.00000000E+00  0.00000000E+00
  0.00000000E+00  0.00000000E+00  0.00000000E+00  0.00000000E+00  0.00000000E+00
  0.00000000E+00  0.00000000E+00  0.00000000E+00  0.00000000E+00  0.00000000E+00
  0.00000000E+00  0.00000000E+00  0.00000000E+00  0.00000000E+00  0.00000000E+00
  0.00000000E+00  0.00000000E+00  0.00000000E+00  0.00000000E+00  0.00000000E+00
IOpCl                                      I                0
IROHF                                      I                0
Alpha Orbital Energies                     R   N=          89
 -2.62720618E+01 -2.05697216E+01 -1.13144968E+01 -1.12892663E+01 -1.12354653E+01
 -1.57292431E+00 -1.36052069E+00 -1.06933643E+00 -9.23129454E-01 -8.36968022E-01
 -7.12465656E-01 -6.92674219E-01 -6.73304658E-01 -6.58673455E-01 -6.14878965E-01
 -5.86108483E-01 -5.63929785E-01 -5.14262883E-01 -5.02704071E-01 -4.85385382E-01
 -4.48447644E-01  2.11074530E-01  2.33486188E-01  2.70038069E-01  2.71374350E-01
  2.84961829E-01  3.26092352E-01  3.34895977E-01  3.41976440E-01  3.99853710E-01
  4.41675271E-01  4.77094310E-01  7.03589280E-01  7.45019793E-01  7.59572031E-01
  7.99388766E-01  8.21802532E-01  8.37575822E-01  9.01679011E-01  9.33522724E-01
  1.02451848E+00  1.05373934E+00  1.07417915E+00  1.10939492E+00  1.14333468E+00
  1.15865527E+00  1.17840705E+00  1.18547206E+00  1.18917820E+00  1.29043471E+00
  1.30692078E+00  1.40975495E+00  1.44240290E+00  1.56039402E+00  1.59682459E+00
  1.65774921E+00  1.70330756E+00  1.72168090E+00  1.76447848E+00  1.81709321E+00
  1.88353683E+00  2.04075895E+00  2.06640829E+00  2.08633551E+00  2.13107387E+00
  2.14664703E+00  2.22710705E+00  2.24920478E+00  2.26118110E+00  2.30954710E+00
  2.41185457E+00  2.44941419E+00  2.48355770E+00  2.54594842E+00  2.59862390E+00
  2.61235861E+00  2.74581878E+00  2.76484723E+00  2.82756908E+00  2.87034390E+00
  2.97143072E+00  3.09617813E+00  3.22580907E+00  3.40077906E+00  4.16615992E+00
  4.57265609E+00  4.64630751E+00  4.73842924E+00  4.90516980E+00
Alpha MO coefficients                      R   N=        7921
  9.94433653E-01  1.77752806E-02  6.83700850E-04  5.26599440E-04  1.55803186E-05
  8.06400726E-03 -4.85961777E-04 -3.69215018E-04 -1.02869156E-05 -4.83997135E-03
 -4.70352227E-03 -4.52480197E-03 -2.86304656E-04 -7.95573076E-06 -5.53829834E-06
  3.22414173E-06  1.36558444E-05 -5.15732939E-06 -1.55913559E-06  1.55050877E-08
 -4.72114042E-05  2.58609751E-05  8.20574486E-06 -3.01941158E-06  3.53480955E-06
  1.14033010E-05  1.27148710E-05 -1.08601690E-06  6.13789623E-07  1.85990211E-06
  5.51382733E-06  9.56785329E-05  5.67484229E-06 -6.16441069E-07 -7.11643004E-07
 -2.42830433E-04  2.47244645E-04 -7.22396278E-05 -3.41867903E-06 -7.68651629E-05
 -1.05285853E-05 -4.05811700E-06  8.73239379E-06  1.58027928E-06  7.43581241E-09
  2.70053091E-06  2.54435427E-06 -1.94488188E-06 -2.13102740E-06 -7.79785964E-07
 -8.19886789E-05  1.19782191E-05  1.98265488E-06  2.33246467E-06  1.42968382E-05
  9.76262316E-06  7.51563729E-06  3.79821117E-06  5.01794826E-07  5.67298617E-07
 -2.77057840E-05  8.93171289E-05 -4.20891707E-04 -3.30093990E-04 -9.36059067E-06
  3.22819233E-04  1.79926719E-04 -7.27373548E-05 -4.61255836E-06  2.40309033E-04
  1.27398942E-04 -6.57112249E-05  2.24959151E-04  5.56545027E-06  6.86103323E-06
  3.01150160E-05 -4.31214647E-05  2.72995141E-05 -3.62378880E-05 -6.86410158E-07
  1.91403571E-05  5.67485452E-07  1.96311243E-05 -1.42490648E-05 -6.66766759E-05
 -1.42419159E-05 -6.74537668E-05  7.71773385E-06 -4.30602983E-06  7.91484648E-06
  4.36324719E-05  5.07024889E-06  5.44831551E-07  2.32768245E-06 -1.54940736E-04
 -3.78917595E-05 -8.13981779E-06 -1.24061945E-05  2.43336209E-05  3.30292431E-05
  3.10533379E-05 -2.95028252E-06 -1.59898139E-06 -2.72241663E-06  9.94663629E-01
  2.11464731E-02 -8.58481506E-04 -9.90683138E-05  9.89149780E-04  3.90639102E-03
  4.20084438E-04  5.78018107E-05 -4.91571688E-04 -4.06745501E-03 -4.01503613E-03
 -4.00368681E-03  1.67754440E-04  4.98256234E-05  1.10959238E-04  3.26490364E-06
  6.42108287E-05 -4.20589581E-05  4.44636249E-06  2.10368676E-05 -3.29766774E-04
 -1.47619607E-05 -1.61893461E-04 -2.48158431E-04 -6.52417543E-05 -1.35705034E-05
 -7.41289764E-06  1.87350304E-07 -9.93244178E-06 -4.04741569E-06 -2.62061076E-05
  2.11648016E-04  3.07202955E-04 -1.96677820E-04 -6.36940831E-05  2.64747104E-04
 -2.79778264E-04 -8.14421848E-05  3.74550972E-04  2.24909083E-05 -1.27718444E-05
 -7.41085875E-05 -4.87308580E-05  4.25780291E-06  1.21043892E-05 -2.34539579E-06
 -1.90778058E-05  7.15922359E-06 -6.23816666E-06 -2.02064030E-06  1.69995466E-04
  3.38794719E-05 -8.81472912E-05  7.70211509E-05  1.23086046E-05  9.68520319E-06
 -4.51181949E-06 -6.29136083E-06  6.07556427E-06 -3.79575834E-06  1.96624337E-05
  7.10366655E-05 -5.52781473E-07 -1.51443585E-04 -7.24863816E-05 -1.67938943E-04
  2.14458429E-05  5.23097778E-05 -2.00704502E-07  4.14275066E-05 -6.54971441E-06
 -2.70579515E-05  4.04347508E-04 -2.30197998E-04 -1.38331321E-04  3.86503704E-05
  2.48351500E-04  1.96632674E-04  5.81353967E-06  1.20457440E-03 -6.55904238E-04
 -5.86159824E-04 -1.93796500E-05 -7.01914008E-04 -4.06526627E-04  9.60312645E-05
 -6.59056463E-04 -1.83869781E-05 -1.80907324E-05 -4.74733132E-05 -2.01870031E-04
  3.75373617E-05 -1.29346113E-05  2.30239037E-06  9.97731204E-04 -3.52311083E-04
  1.33567129E-04  2.00162451E-05 -8.67904874E-05 -1.40363201E-04 -1.56472818E-04
 -1.98201631E-05 -7.22955256E-06 -8.39660223E-06  3.93168482E-03  1.65656936E-04
  1.99454713E-06  1.24071445E-05  1.89414620E-06  3.37902850E-03 -1.80240183E-03
  8.81410798E-04  2.67930097E-05 -3.50864219E-04 -2.17665532E-04 -1.10531043E-04
  1.07354841E-04  3.98234195E-06 -7.36686032E-06 -2.18036482E-04 -2.45684828E-04
  5.65127007E-05 -2.49834664E-05  1.28025233E-06  6.30421228E-04 -7.31840933E-04
  4.57595665E-04  6.51568639E-05 -5.18549046E-05 -8.66731248E-05 -9.45004124E-05
  4.55769307E-05  8.83897823E-06 -2.25611136E-06  9.95917064E-01  2.71664125E-02
 -8.95337853E-04 -7.69531067E-04 -1.46389661E-05 -1.34723044E-02 -1.37979990E-03
  7.15648280E-05  2.43922039E-05 -1.25205987E-03 -1.35480005E-03 -1.45690034E-03
  2.56280811E-04  7.41852781E-06  9.76167303E-07 -1.47708469E-04  1.45988245E-04
 -1.52169638E-04  1.30780004E-04 -6.95503894E-05 -2.75045327E-04 -6.75565705E-05
 -2.33625889E-04  1.51311300E-04  2.50330595E-03  1.47584586E-04  2.49514754E-03
 -5.44908114E-05  9.62123420E-05 -5.90841744E-05 -3.11089345E-04 -3.46819932E-05
  5.16351217E-07  2.56439328E-06  1.04912415E-03  2.10972119E-04  2.31297215E-05
 -1.07785386E-05 -1.89231858E-04 -2.39164628E-04 -2.49156382E-04  2.93052687E-06
 -2.02989396E-06 -7.78177496E-07 -1.54836536E-04  8.38123259E-05 -1.03048452E-04
  4.44867867E-05  4.77239103E-05  1.71611145E-03 -9.34873516E-05  3.07368602E-05
 -1.42357205E-04 -5.31436428E-04 -2.94657235E-04  1.25919794E-05  4.42561213E-04
  6.25991983E-05 -1.29947748E-05  5.56626383E-03  1.74462744E-04  2.40620267E-05
  4.56488918E-06  9.02126098E-06  3.82760265E-03  1.89570637E-03  1.02064180E-03
 -1.08643779E-05 -3.52186418E-04 -2.52361349E-04 -1.23886113E-04 -1.33240632E-04
 -1.76326859E-05 -1.07245057E-05  9.95878706E-01  2.75883304E-02  4.67449331E-04
 -4.63908209E-04 -3.00920457E-05 -1.46656909E-02  1.15288883E-03  3.87402192E-04
  1.80015842E-04 -1.45972100E-03 -1.52615435E-03 -1.49095902E-03 -1.22450329E-04
 -2.42086116E-05 -1.18624672E-05  9.42867003E-05 -2.35560232E-04 -5.24160094E-05
 -9.49798666E-06 -3.39913256E-06  7.37878031E-04  3.81406349E-04  3.41384864E-04
  5.15009963E-05 -4.49482781E-05 -8.85514362E-05 -1.03961723E-04 -1.86212141E-05
  3.58898650E-06  3.06528644E-06 -1.53437841E-04  1.32974593E-04 -1.78834256E-04
  1.15815988E-04  1.70624366E-04  2.53390437E-03  2.06930053E-04  2.65876430E-03
 -4.49358578E-05 -2.67703788E-04 -5.56676986E-05 -2.89675514E-04  3.45946428E-05
  3.06209672E-04 -2.08294303E-06 -6.85217324E-05 -5.28537936E-05  4.36803216E-06
  1.59592218E-06 -8.62434196E-05 -3.45315541E-06 -2.00388027E-05 -3.11261132E-06
  6.80071642E-05 -1.82267022E-05 -1.27180335E-04 -5.00227884E-05 -5.26536453E-06
  7.11820471E-06 -1.66605475E-05 -1.18152336E-04  5.36530337E-05  8.13724464E-06
 -1.73556411E-05  1.21308786E-04  7.61727709E-05 -4.79960941E-05  9.77803289E-05
 -1.54822800E-05 -3.42748154E-05 -1.34786979E-04  4.05892405E-05 -4.91687249E-06
 -6.90001807E-06  9.95788166E-01  2.88384457E-02 -8.12203539E-05  1.73795046E-04
  6.60956158E-05 -1.75115635E-02  1.12558979E-04 -1.05831066E-03 -1.08948243E-04
 -1.67705160E-03 -1.71326952E-03 -1.65576377E-03 -3.70001738E-06 -8.13776989E-07
  2.71896603E-06 -5.87871007E-03 -1.13939227E-04 -9.02213898E-05  7.59522162E-06
 -5.56843963E-06  4.32548588E-03 -1.62561683E-03 -1.09075391E-03 -8.00793475E-05
 -3.49781289E-04 -2.81166430E-04 -9.42704113E-05 -1.95780630E-04 -2.44359767E-05
 -1.27975146E-05 -4.24081293E-03 -4.68996042E-05  8.58695352E-05  8.42712315E-06
  2.92399188E-06  4.40628280E-03  1.65174216E-03 -1.05186198E-03 -7.05591437E-05
 -3.71173311E-04 -2.99361899E-04 -8.58447881E-05  1.98011011E-04  1.00979447E-05
 -1.27105241E-05  2.35017126E-04  2.69713818E-03  2.54104176E-04  2.63706830E-03
 -1.60288902E-04  1.55424651E-05 -1.60467345E-04  1.04269705E-05 -1.66077891E-04
 -5.47165132E-06 -1.62703039E-04  4.99888276E-06 -4.77159945E-05 -1.55380565E-04
 -2.22154511E-01  5.14537819E-01  4.66590738E-02  3.43846485E-02  1.02206772E-03
  4.48530474E-01  3.30415557E-02  2.35984898E-02  7.48173151E-04  3.14299850E-02
  2.62531756E-02  2.03470819E-02  9.42523325E-03  2.72325346E-04  1.80962724E-04
 -3.01380631E-04  3.33682862E-04 -7.07534879E-05  1.11663325E-04  5.75078659E-05
  6.61260951E-04 -7.64893448E-04 -6.65046915E-04  8.38073628E-05  1.67135324E-05
 -2.08756622E-04 -1.97199004E-04  2.18332498E-05 -2.02080937E-05 -6.43248652E-05
 -7.65924986E-03  1.14837153E-02 -1.25827406E-02  3.66219318E-03  3.20231704E-04
  1.71079048E-02 -1.01274740E-02  4.51772406E-03  3.44839440E-04  4.02589679E-03
  5.34329522E-04 -3.52496875E-04 -2.24891123E-03 -1.68535390E-04  6.03272050E-05
 -6.83384174E-04  1.78144712E-03 -1.16029386E-03 -4.22403444E-04 -1.75365470E-05
  2.02442072E-04  2.13131018E-03 -7.60564582E-04 -1.19811128E-04 -9.46899982E-06
  1.52031803E-04 -3.59557240E-05  1.32406720E-04 -6.34663553E-07  8.71729092E-06
 -5.19386352E-02  9.36736706E-02 -6.16422617E-02 -4.77625598E-02 -1.29735654E-03
  1.95004580E-02 -6.84993333E-03  3.60994819E-03  2.82133667E-04  9.54070928E-03
  3.23477860E-03 -5.73899060E-03  1.52803923E-02  4.41280318E-04  2.63552178E-04
  2.21858332E-03  2.15989208E-03  2.07224059E-03  1.98463324E-03  4.89910478E-04
 -3.29279606E-04  4.64049304E-04 -3.69215349E-04  1.50185881E-02  1.89175474E-03
  1.50387703E-02  1.90219242E-03 -1.09326456E-04  6.98476161E-05  1.67788392E-03
 -3.57254350E-03  6.29543275E-04  9.22208066E-05 -4.67855321E-06 -5.05563920E-03
  6.28132841E-04 -5.14803302E-04  4.59902712E-05  1.33766370E-04 -1.24663560E-04
 -1.00233316E-04  1.08652579E-05  1.24082190E-05  1.17629172E-05 -2.01707470E-01
  4.53649704E-01 -6.03532296E-02 -1.64137085E-03  5.98416109E-02  4.33887997E-01
 -3.74450366E-02 -7.96968830E-04  3.60283868E-02  1.04757167E-02  1.01708285E-02
  1.42895791E-02 -7.42679071E-03 -3.72492282E-03 -1.14413328E-02 -1.65078601E-02
  2.97499880E-02  2.05027127E-02  7.20925975E-03  7.07652248E-04  2.23164319E-02
  7.20301873E-03  4.84556825E-03 -9.87816304E-04  4.23805720E-03  9.09296707E-04
 -1.70315095E-04  2.93149609E-03  1.94937582E-04  1.31361219E-05 -7.14401711E-02
  1.32563689E-01  7.43995341E-02 -5.52971670E-02 -5.25473156E-03  4.35657245E-02
 -6.47306191E-04  2.08539360E-03  5.00630264E-03  1.34199824E-02  4.37392678E-03
 -4.70480514E-03 -1.62711959E-02 -1.54201694E-03  6.12990035E-04 -2.47315767E-03
  5.96091194E-03  4.91227669E-03 -1.01371304E-03  5.54314751E-05 -2.47764209E-04
 -3.10020820E-03 -7.28836378E-04 -4.48894479E-04  4.19301414E-04  3.11460595E-04
  1.00482519E-04 -6.50384849E-04 -6.81170118E-06 -1.51259413E-05  6.68791404E-03
  4.90010079E-03  7.02202548E-03  1.71622697E-03  2.49742257E-02  1.45509714E-03
  2.61986628E-02  6.15599496E-03  1.45948497E-03 -5.70319077E-04  1.56594922E-03
 -7.10467531E-05  1.18490537E-01 -2.82918361E-03  3.84024251E-02 -8.45189463E-02
  7.02120644E-02  3.20414597E-02  7.28331406E-04 -1.17555562E-01  3.96034324E-02