opt=Tight                                                               
Freq      RMP2-FC                                                     6-31G(d)            
Number of atoms                            I               17
Info1-9                                    I   N=           9
          26          26        1002           0           0         100
           6           2           1
Charge                                     I               -1
Multiplicity                               I                1
Number of electrons                        I               62
Number of alpha electrons                  I               31
Number of beta electrons                   I               31
Number of basis functions                  I              138
Number of independent functions            I              138
Number of point charges in /Mol/           I                0
Number of translation vectors              I                0
Atomic numbers                             I   N=          17
           8           8           6           6           6           6
           6           6           1           1           1           1
           1           1           1           1           1
Nuclear charges                            R   N=          17
  8.00000000E+00  8.00000000E+00  6.00000000E+00  6.00000000E+00  6.00000000E+00
  6.00000000E+00  6.00000000E+00  6.00000000E+00  1.00000000E+00  1.00000000E+00
  1.00000000E+00  1.00000000E+00  1.00000000E+00  1.00000000E+00  1.00000000E+00
  1.00000000E+00  1.00000000E+00
Current cartesian coordinates              R   N=          51
 -5.76245784E+00 -1.51584271E+00 -1.11043312E+00 -4.59743824E+00  2.43823398E+00
  1.00286906E-01  4.82898750E+00  6.70936453E-01 -1.11195574E+00  2.47280998E+00
 -7.27348043E-01 -3.78088496E-01  3.98450966E-01  3.53340714E-01  6.06382515E-01
 -1.96654441E+00 -1.01984612E+00  1.33427392E+00  7.12913420E+00 -1.78497659E-01
  4.25622583E-01 -4.32635382E+00  6.17374014E-02 -3.04484302E-02  5.22414347E+00
  3.76560286E-01 -3.12827292E+00  4.52673669E+00  2.70519786E+00 -8.55717482E-01
  2.50295789E+00 -2.77387079E+00 -6.54526942E-01  3.59946559E-01  2.39569093E+00
  8.73152411E-01 -1.79011428E+00 -3.04295110E+00  9.35662321E-01 -2.29368997E+00
 -8.04747457E-01  3.37637141E+00  7.46479955E+00 -2.20504373E+00  1.85273142E-01
  6.82738274E+00  1.82107709E-01  2.43854137E+00  8.83809953E+00  8.25989625E-01
 -1.64031676E-01
Force Field                                I                0
Int Atom Types                             I   N=          17
           0           0           0           0           0           0
           0           0           0           0           0           0
           0           0           0           0           0
MM charges                                 R   N=          17
  0.00000000E+00  0.00000000E+00  0.00000000E+00  0.00000000E+00  0.00000000E+00
  0.00000000E+00  0.00000000E+00  0.00000000E+00  0.00000000E+00  0.00000000E+00
  0.00000000E+00  0.00000000E+00  0.00000000E+00  0.00000000E+00  0.00000000E+00
  0.00000000E+00  0.00000000E+00
Integer atomic weights                     I   N=          17
          16          16          12          12          12          12
          12          12           1           1           1           1
           1           1           1           1           1
Real atomic weights                        R   N=          17
  1.59949146E+01  1.59949146E+01  1.20000000E+01  1.20000000E+01  1.20000000E+01
  1.20000000E+01  1.20000000E+01  1.20000000E+01  1.00782504E+00  1.00782504E+00
  1.00782504E+00  1.00782504E+00  1.00782504E+00  1.00782504E+00  1.00782504E+00
  1.00782504E+00  1.00782504E+00
Atom fragment info                         I   N=          17
           0           0           0           0           0           0
           0           0           0           0           0           0
           0           0           0           0           0
Atom residue num                           I   N=          17
           0           0           0           0           0           0
           0           0           0           0           0           0
           0           0           0           0           0
Nuclear spins                              I   N=          17
           0           0           0           0           0           0
           0           0           1           1           1           1
           1           1           1           1           1
Nuclear ZEff                               R   N=          17
 -5.60000000E+00 -5.60000000E+00 -3.60000000E+00 -3.60000000E+00 -3.60000000E+00
 -3.60000000E+00 -3.60000000E+00 -3.60000000E+00 -1.00000000E+00 -1.00000000E+00
 -1.00000000E+00 -1.00000000E+00 -1.00000000E+00 -1.00000000E+00 -1.00000000E+00
 -1.00000000E+00 -1.00000000E+00
Nuclear QMom                               R   N=          17
  0.00000000E+00  0.00000000E+00  0.00000000E+00  0.00000000E+00  0.00000000E+00
  0.00000000E+00  0.00000000E+00  0.00000000E+00  0.00000000E+00  0.00000000E+00
  0.00000000E+00  0.00000000E+00  0.00000000E+00  0.00000000E+00  0.00000000E+00
  0.00000000E+00  0.00000000E+00
Nuclear GFac                               R   N=          17
  0.00000000E+00  0.00000000E+00  0.00000000E+00  0.00000000E+00  0.00000000E+00
  0.00000000E+00  0.00000000E+00  0.00000000E+00  2.79284600E+00  2.79284600E+00
  2.79284600E+00  2.79284600E+00  2.79284600E+00  2.79284600E+00  2.79284600E+00
  2.79284600E+00  2.79284600E+00
MicOpt                                     I   N=          17
          -1          -1          -1          -1          -1          -1
          -1          -1          -1          -1          -1          -1
          -1          -1          -1          -1          -1
Number of contracted shells                I               50
Number of primitive shells                 I              124
Pure/Cartesian d shells                    I                1
Pure/Cartesian f shells                    I                0
Highest angular momentum                   I                2
Largest degree of contraction              I                6
Shell types                                I   N=          50
           0          -1          -1           2           0          -1
          -1           2           0          -1          -1           2
           0          -1          -1           2           0          -1
          -1           2           0          -1          -1           2
           0          -1          -1           2           0          -1
          -1           2           0           0           0           0
           0           0           0           0           0           0
           0           0           0           0           0           0
           0           0
Number of primitives per shell             I   N=          50
           6           3           1           1           6           3
           1           1           6           3           1           1
           6           3           1           1           6           3
           1           1           6           3           1           1
           6           3           1           1           6           3
           1           1           3           1           3           1
           3           1           3           1           3           1
           3           1           3           1           3           1
           3           1
Shell to atom map                          I   N=          50
           1           1           1           1           2           2
           2           2           3           3           3           3
           4           4           4           4           5           5
           5           5           6           6           6           6
           7           7           7           7           8           8
           8           8           9           9          10          10
          11          11          12          12          13          13
          14          14          15          15          16          16
          17          17
Primitive exponents                        R   N=         124
  5.48467166E+03  8.25234946E+02  1.88046958E+02  5.29645000E+01  1.68975704E+01
  5.79963534E+00  1.55396162E+01  3.59993359E+00  1.01376175E+00  2.70005823E-01
  8.00000000E-01  5.48467166E+03  8.25234946E+02  1.88046958E+02  5.29645000E+01
  1.68975704E+01  5.79963534E+00  1.55396162E+01  3.59993359E+00  1.01376175E+00
  2.70005823E-01  8.00000000E-01  3.04752488E+03  4.57369518E+02  1.03948685E+02
  2.92101553E+01  9.28666296E+00  3.16392696E+00  7.86827235E+00  1.88128854E+00
  5.44249258E-01  1.68714478E-01  8.00000000E-01  3.04752488E+03  4.57369518E+02
  1.03948685E+02  2.92101553E+01  9.28666296E+00  3.16392696E+00  7.86827235E+00
  1.88128854E+00  5.44249258E-01  1.68714478E-01  8.00000000E-01  3.04752488E+03
  4.57369518E+02  1.03948685E+02  2.92101553E+01  9.28666296E+00  3.16392696E+00
  7.86827235E+00  1.88128854E+00  5.44249258E-01  1.68714478E-01  8.00000000E-01
  3.04752488E+03  4.57369518E+02  1.03948685E+02  2.92101553E+01  9.28666296E+00
  3.16392696E+00  7.86827235E+00  1.88128854E+00  5.44249258E-01  1.68714478E-01
  8.00000000E-01  3.04752488E+03  4.57369518E+02  1.03948685E+02  2.92101553E+01
  9.28666296E+00  3.16392696E+00  7.86827235E+00  1.88128854E+00  5.44249258E-01
  1.68714478E-01  8.00000000E-01  3.04752488E+03  4.57369518E+02  1.03948685E+02
  2.92101553E+01  9.28666296E+00  3.16392696E+00  7.86827235E+00  1.88128854E+00
  5.44249258E-01  1.68714478E-01  8.00000000E-01  1.87311370E+01  2.82539436E+00
  6.40121692E-01  1.61277759E-01  1.87311370E+01  2.82539436E+00  6.40121692E-01
  1.61277759E-01  1.87311370E+01  2.82539436E+00  6.40121692E-01  1.61277759E-01
  1.87311370E+01  2.82539436E+00  6.40121692E-01  1.61277759E-01  1.87311370E+01
  2.82539436E+00  6.40121692E-01  1.61277759E-01  1.87311370E+01  2.82539436E+00
  6.40121692E-01  1.61277759E-01  1.87311370E+01  2.82539436E+00  6.40121692E-01
  1.61277759E-01  1.87311370E+01  2.82539436E+00  6.40121692E-01  1.61277759E-01
  1.87311370E+01  2.82539436E+00  6.40121692E-01  1.61277759E-01
Contraction coefficients                   R   N=         124
  1.83107443E-03  1.39501722E-02  6.84450781E-02  2.32714336E-01  4.70192898E-01
  3.58520853E-01 -1.10777550E-01 -1.48026263E-01  1.13076702E+00  1.00000000E+00
  1.00000000E+00  1.83107443E-03  1.39501722E-02  6.84450781E-02  2.32714336E-01
  4.70192898E-01  3.58520853E-01 -1.10777550E-01 -1.48026263E-01  1.13076702E+00
  1.00000000E+00  1.00000000E+00  1.83473713E-03  1.40373228E-02  6.88426223E-02
  2.32184443E-01  4.67941348E-01  3.62311985E-01 -1.19332420E-01 -1.60854152E-01
  1.14345644E+00  1.00000000E+00  1.00000000E+00  1.83473713E-03  1.40373228E-02
  6.88426223E-02  2.32184443E-01  4.67941348E-01  3.62311985E-01 -1.19332420E-01
 -1.60854152E-01  1.14345644E+00  1.00000000E+00  1.00000000E+00  1.83473713E-03
  1.40373228E-02  6.88426223E-02  2.32184443E-01  4.67941348E-01  3.62311985E-01
 -1.19332420E-01 -1.60854152E-01  1.14345644E+00  1.00000000E+00  1.00000000E+00
  1.83473713E-03  1.40373228E-02  6.88426223E-02  2.32184443E-01  4.67941348E-01
  3.62311985E-01 -1.19332420E-01 -1.60854152E-01  1.14345644E+00  1.00000000E+00
  1.00000000E+00  1.83473713E-03  1.40373228E-02  6.88426223E-02  2.32184443E-01
  4.67941348E-01  3.62311985E-01 -1.19332420E-01 -1.60854152E-01  1.14345644E+00
  1.00000000E+00  1.00000000E+00  1.83473713E-03  1.40373228E-02  6.88426223E-02
  2.32184443E-01  4.67941348E-01  3.62311985E-01 -1.19332420E-01 -1.60854152E-01
  1.14345644E+00  1.00000000E+00  1.00000000E+00  3.34946043E-02  2.34726953E-01
  8.13757326E-01  1.00000000E+00  3.34946043E-02  2.34726953E-01  8.13757326E-01
  1.00000000E+00  3.34946043E-02  2.34726953E-01  8.13757326E-01  1.00000000E+00
  3.34946043E-02  2.34726953E-01  8.13757326E-01  1.00000000E+00  3.34946043E-02
  2.34726953E-01  8.13757326E-01  1.00000000E+00  3.34946043E-02  2.34726953E-01
  8.13757326E-01  1.00000000E+00  3.34946043E-02  2.34726953E-01  8.13757326E-01
  1.00000000E+00  3.34946043E-02  2.34726953E-01  8.13757326E-01  1.00000000E+00
  3.34946043E-02  2.34726953E-01  8.13757326E-01  1.00000000E+00
P(S=P) Contraction coefficients            R   N=         124
  0.00000000E+00  0.00000000E+00  0.00000000E+00  0.00000000E+00  0.00000000E+00
  0.00000000E+00  7.08742682E-02  3.39752839E-01  7.27158577E-01  1.00000000E+00
  0.00000000E+00  0.00000000E+00  0.00000000E+00  0.00000000E+00  0.00000000E+00
  0.00000000E+00  0.00000000E+00  7.08742682E-02  3.39752839E-01  7.27158577E-01
  1.00000000E+00  0.00000000E+00  0.00000000E+00  0.00000000E+00  0.00000000E+00
  0.00000000E+00  0.00000000E+00  0.00000000E+00  6.89990666E-02  3.16423961E-01
  7.44308291E-01  1.00000000E+00  0.00000000E+00  0.00000000E+00  0.00000000E+00
  0.00000000E+00  0.00000000E+00  0.00000000E+00  0.00000000E+00  6.89990666E-02
  3.16423961E-01  7.44308291E-01  1.00000000E+00  0.00000000E+00  0.00000000E+00
  0.00000000E+00  0.00000000E+00  0.00000000E+00  0.00000000E+00  0.00000000E+00
  6.89990666E-02  3.16423961E-01  7.44308291E-01  1.00000000E+00  0.00000000E+00
  0.00000000E+00  0.00000000E+00  0.00000000E+00  0.00000000E+00  0.00000000E+00
  0.00000000E+00  6.89990666E-02  3.16423961E-01  7.44308291E-01  1.00000000E+00
  0.00000000E+00  0.00000000E+00  0.00000000E+00  0.00000000E+00  0.00000000E+00
  0.00000000E+00  0.00000000E+00  6.89990666E-02  3.16423961E-01  7.44308291E-01
  1.00000000E+00  0.00000000E+00  0.00000000E+00  0.00000000E+00  0.00000000E+00
  0.00000000E+00  0.00000000E+00  0.00000000E+00  6.89990666E-02  3.16423961E-01
  7.44308291E-01  1.00000000E+00  0.00000000E+00  0.00000000E+00  0.00000000E+00
  0.00000000E+00  0.00000000E+00  0.00000000E+00  0.00000000E+00  0.00000000E+00
  0.00000000E+00  0.00000000E+00  0.00000000E+00  0.00000000E+00  0.00000000E+00
  0.00000000E+00  0.00000000E+00  0.00000000E+00  0.00000000E+00  0.00000000E+00
  0.00000000E+00  0.00000000E+00  0.00000000E+00  0.00000000E+00  0.00000000E+00
  0.00000000E+00  0.00000000E+00  0.00000000E+00  0.00000000E+00  0.00000000E+00
  0.00000000E+00  0.00000000E+00  0.00000000E+00  0.00000000E+00  0.00000000E+00
  0.00000000E+00  0.00000000E+00  0.00000000E+00  0.00000000E+00
Coordinates of each shell                  R   N=         150
 -5.76245784E+00 -1.51584271E+00 -1.11043312E+00 -5.76245784E+00 -1.51584271E+00
 -1.11043312E+00 -5.76245784E+00 -1.51584271E+00 -1.11043312E+00 -5.76245784E+00
 -1.51584271E+00 -1.11043312E+00 -4.59743824E+00  2.43823398E+00  1.00286906E-01
 -4.59743824E+00  2.43823398E+00  1.00286906E-01 -4.59743824E+00  2.43823398E+00
  1.00286906E-01 -4.59743824E+00  2.43823398E+00  1.00286906E-01  4.82898750E+00
  6.70936453E-01 -1.11195574E+00  4.82898750E+00  6.70936453E-01 -1.11195574E+00
  4.82898750E+00  6.70936453E-01 -1.11195574E+00  4.82898750E+00  6.70936453E-01
 -1.11195574E+00  2.47280998E+00 -7.27348043E-01 -3.78088496E-01  2.47280998E+00
 -7.27348043E-01 -3.78088496E-01  2.47280998E+00 -7.27348043E-01 -3.78088496E-01
  2.47280998E+00 -7.27348043E-01 -3.78088496E-01  3.98450966E-01  3.53340714E-01
  6.06382515E-01  3.98450966E-01  3.53340714E-01  6.06382515E-01  3.98450966E-01
  3.53340714E-01  6.06382515E-01  3.98450966E-01  3.53340714E-01  6.06382515E-01
 -1.96654441E+00 -1.01984612E+00  1.33427392E+00 -1.96654441E+00 -1.01984612E+00
  1.33427392E+00 -1.96654441E+00 -1.01984612E+00  1.33427392E+00 -1.96654441E+00
 -1.01984612E+00  1.33427392E+00  7.12913420E+00 -1.78497659E-01  4.25622583E-01
  7.12913420E+00 -1.78497659E-01  4.25622583E-01  7.12913420E+00 -1.78497659E-01
  4.25622583E-01  7.12913420E+00 -1.78497659E-01  4.25622583E-01 -4.32635382E+00
  6.17374014E-02 -3.04484302E-02 -4.32635382E+00  6.17374014E-02 -3.04484302E-02
 -4.32635382E+00  6.17374014E-02 -3.04484302E-02 -4.32635382E+00  6.17374014E-02
 -3.04484302E-02  5.22414347E+00  3.76560286E-01 -3.12827292E+00  5.22414347E+00
  3.76560286E-01 -3.12827292E+00  4.52673669E+00  2.70519786E+00 -8.55717482E-01
  4.52673669E+00  2.70519786E+00 -8.55717482E-01  2.50295789E+00 -2.77387079E+00
 -6.54526942E-01  2.50295789E+00 -2.77387079E+00 -6.54526942E-01  3.59946559E-01
  2.39569093E+00  8.73152411E-01  3.59946559E-01  2.39569093E+00  8.73152411E-01
 -1.79011428E+00 -3.04295110E+00  9.35662321E-01 -1.79011428E+00 -3.04295110E+00
  9.35662321E-01 -2.29368997E+00 -8.04747457E-01  3.37637141E+00 -2.29368997E+00
 -8.04747457E-01  3.37637141E+00  7.46479955E+00 -2.20504373E+00  1.85273142E-01
  7.46479955E+00 -2.20504373E+00  1.85273142E-01  6.82738274E+00  1.82107709E-01
  2.43854137E+00  6.82738274E+00  1.82107709E-01  2.43854137E+00  8.83809953E+00
  8.25989625E-01 -1.64031676E-01  8.83809953E+00  8.25989625E-01 -1.64031676E-01
Constraint Structure                       R   N=          51
 -5.76245784E+00 -1.51584271E+00 -1.11043312E+00 -4.59743824E+00  2.43823398E+00
  1.00286906E-01  4.82898750E+00  6.70936453E-01 -1.11195574E+00  2.47280998E+00
 -7.27348043E-01 -3.78088496E-01  3.98450966E-01  3.53340714E-01  6.06382515E-01
 -1.96654441E+00 -1.01984612E+00  1.33427392E+00  7.12913420E+00 -1.78497659E-01
  4.25622583E-01 -4.32635382E+00  6.17374014E-02 -3.04484302E-02  5.22414347E+00
  3.76560286E-01 -3.12827292E+00  4.52673669E+00  2.70519786E+00 -8.55717482E-01
  2.50295789E+00 -2.77387079E+00 -6.54526942E-01  3.59946559E-01  2.39569093E+00
  8.73152411E-01 -1.79011428E+00 -3.04295110E+00  9.35662321E-01 -2.29368997E+00
 -8.04747457E-01  3.37637141E+00  7.46479955E+00 -2.20504373E+00  1.85273142E-01
  6.82738274E+00  1.82107709E-01  2.43854137E+00  8.83809953E+00  8.25989625E-01
 -1.64031676E-01
Num ILSW                                   I              100
ILSW                                       I   N=         100
           0           1           0           1           2           0
           0           0           0           0           0          -1
           0           0           0           0           0           0
           0           0           0           0           1           0
           1           0           0           0           0           0
           0           0      100000           0          -1           0
           0           0           0           0           0           0
           0           0           0           1           1           0
           0           0           1           0           0           0
           0           0           4          40           0           0
           0           0           0           0           0           0
           0           0           0           0           0           0
           0           0           0           0           0           0
           0           0           0           0           0           0
           0           0           0           0           0           0
           0           0           0           0           0           0
           0           0           0           0
Num RLSW                                   I               40
RLSW                                       R   N=          40
  1.00000000E+00  1.00000000E+00  1.00000000E+00  1.00000000E+00  1.00000000E+00
  0.00000000E+00  0.00000000E+00  1.00000000E+00  0.00000000E+00  0.00000000E+00
  0.00000000E+00  0.00000000E+00  1.00000000E+00  0.00000000E+00  0.00000000E+00
  0.00000000E+00  0.00000000E+00  1.00000000E+00  0.00000000E+00  0.00000000E+00
  0.00000000E+00  0.00000000E+00  1.00000000E+00  0.00000000E+00  0.00000000E+00
  0.00000000E+00  0.00000000E+00  1.00000000E+00  0.00000000E+00  0.00000000E+00
  0.00000000E+00  0.00000000E+00  0.00000000E+00  0.00000000E+00  0.00000000E+00
  0.00000000E+00  0.00000000E+00  0.00000000E+00  1.00000000E+00  1.00000000E+00
MxBond                                     I                4
NBond                                      I   N=          17
           1           1           4           3           3           4
           4           3           1           1           1           1
           1           1           1           1           1
IBond                                      I   N=          68
           8           0           0           0           8           0
           0           0           4           7           9          10
           3           5          11           0           4           6
          12           0           5           8          13          14
           3          15          16          17           1           2
           6           0           3           0           0           0
           3           0           0           0           4           0
           0           0           5           0           0           0
           6           0           0           0           6           0
           0           0           7           0           0           0
           7           0           0           0           7           0
           0           0
RBond                                      R   N=          68
  2.00000000E+00  0.00000000E+00  0.00000000E+00  0.00000000E+00  2.00000000E+00
  0.00000000E+00  0.00000000E+00  0.00000000E+00  1.00000000E+00  1.00000000E+00
  1.00000000E+00  1.00000000E+00  1.00000000E+00  2.00000000E+00  1.00000000E+00
  0.00000000E+00  2.00000000E+00  1.00000000E+00  1.00000000E+00  0.00000000E+00
  1.00000000E+00  1.00000000E+00  1.00000000E+00  1.00000000E+00  1.00000000E+00
  1.00000000E+00  1.00000000E+00  1.00000000E+00  2.00000000E+00  2.00000000E+00
  1.00000000E+00  0.00000000E+00  1.00000000E+00  0.00000000E+00  0.00000000E+00
  0.00000000E+00  1.00000000E+00  0.00000000E+00  0.00000000E+00  0.00000000E+00
  1.00000000E+00  0.00000000E+00  0.00000000E+00  0.00000000E+00  1.00000000E+00
  0.00000000E+00  0.00000000E+00  0.00000000E+00  1.00000000E+00  0.00000000E+00
  0.00000000E+00  0.00000000E+00  1.00000000E+00  0.00000000E+00  0.00000000E+00
  0.00000000E+00  1.00000000E+00  0.00000000E+00  0.00000000E+00  0.00000000E+00
  1.00000000E+00  0.00000000E+00  0.00000000E+00  0.00000000E+00  1.00000000E+00
  0.00000000E+00  0.00000000E+00  0.00000000E+00
Virial Ratio                               R      2.002275959945524E+00
SCF Energy                                 R     -3.822809534634200E+02
MP2 Energy                                 R     -3.834090610247384E+02
Total Energy                               R     -3.834090610247384E+02
Post-SCF wavefunction norm                 R      1.652279408874029E+00
RMS Force                                  R      3.920129610658695E-06
RMS Density                                R      8.165614953511607E-10
External E-field                           R   N=          35
  0.00000000E+00  0.00000000E+00  0.00000000E+00  0.00000000E+00  0.00000000E+00
  0.00000000E+00  0.00000000E+00  0.00000000E+00  0.00000000E+00  0.00000000E+00
  0.00000000E+00  0.00000000E+00  0.00000000E+00  0.00000000E+00  0.00000000E+00
  0.00000000E+00  0.00000000E+00  0.00000000E+00  0.00000000E+00  0.00000000E+00
  0.00000000E+00  0.00000000E+00  0.00000000E+00  0.00000000E+00  0.00000000E+00
  0.00000000E+00  0.00000000E+00  0.00000000E+00  0.00000000E+00  0.00000000E+00
  0.00000000E+00  0.00000000E+00  0.00000000E+00  0.00000000E+00  0.00000000E+00
IOpCl                                      I                0
IROHF                                      I                0
Alpha Orbital Energies                     R   N=         138
 -2.04637639E+01 -2.04618826E+01 -1.13074790E+01 -1.12193667E+01 -1.12183433E+01
 -1.12156398E+01 -1.12112282E+01 -1.12053249E+01 -1.32816252E+00 -1.22724937E+00
 -1.07790517E+00 -1.01357156E+00 -9.23953404E-01 -8.27997593E-01 -7.39156232E-01
 -6.80173142E-01 -6.17965444E-01 -6.14374404E-01 -5.86480683E-01 -5.70780382E-01
 -5.67165065E-01 -5.39882286E-01 -5.16397906E-01 -5.01728120E-01 -4.85708990E-01
 -4.74381533E-01 -4.59837569E-01 -3.81302560E-01 -3.72474981E-01 -3.61085672E-01
 -3.21782924E-01  1.90151972E-01  2.56989056E-01  2.61320851E-01  2.70283575E-01
  2.96563122E-01  3.06084494E-01  3.26482860E-01  3.31764438E-01  3.38246573E-01
  3.56844062E-01  3.63104722E-01  4.07116123E-01  4.44019649E-01  4.76983322E-01
  4.85672790E-01  5.52330857E-01  5.98589334E-01  6.30261182E-01  7.21207908E-01
  7.42645853E-01  7.50804895E-01  7.67779528E-01  8.01605299E-01  8.12740445E-01
  8.51629351E-01  8.82145043E-01  8.87969391E-01  9.04238010E-01  9.30840611E-01
  9.64209215E-01  9.74939411E-01  1.01091864E+00  1.03145321E+00  1.07109244E+00
  1.10740537E+00  1.11940004E+00  1.13936666E+00  1.14051766E+00  1.16366340E+00
  1.16868032E+00  1.17768804E+00  1.18145635E+00  1.19247345E+00  1.20711157E+00
  1.22608382E+00  1.25010889E+00  1.26516414E+00  1.28858859E+00  1.33506678E+00
  1.37732500E+00  1.40219966E+00  1.42193693E+00  1.44441964E+00  1.51322063E+00
  1.53683166E+00  1.59364395E+00  1.68904646E+00  1.74916956E+00  1.79010359E+00
  1.81392435E+00  1.86356834E+00  1.89124744E+00  1.94511469E+00  1.95845991E+00
  2.07340970E+00  2.11294084E+00  2.12177912E+00  2.13066014E+00  2.18792962E+00
  2.19780837E+00  2.20011571E+00  2.25724659E+00  2.26270119E+00  2.28697671E+00
  2.29495829E+00  2.31907420E+00  2.33427414E+00  2.36031125E+00  2.43647528E+00
  2.46281871E+00  2.52399446E+00  2.57322228E+00  2.62436897E+00  2.64417484E+00
  2.66304022E+00  2.71214129E+00  2.78385756E+00  2.81231926E+00  2.81971370E+00
  2.90292635E+00  2.96384745E+00  3.04613873E+00  3.10097620E+00  3.19580230E+00
  3.23461093E+00  3.29365703E+00  3.34261121E+00  3.38182938E+00  3.52652774E+00
  4.31748532E+00  4.54372680E+00  4.59662230E+00  4.68517684E+00  4.69890230E+00
  4.82433285E+00  4.90477735E+00  4.97577551E+00
Alpha MO coefficients                      R   N=       19044
  9.94649377E-01  2.09937043E-02  7.58895974E-04  8.45008053E-04  5.72302976E-04
  4.25426876E-03 -9.30001577E-05 -7.64365691E-05 -6.42175872E-05 -3.88710656E-03
 -3.85202513E-03 -3.97543371E-03  4.02961749E-05  1.15011030E-04  5.29008304E-05
 -8.62824823E-03 -2.13952230E-04  2.51708257E-05  1.53522515E-05  1.93264794E-05
  1.40249144E-04  2.89173491E-05 -1.07628176E-04 -3.76316501E-07  1.19597085E-05
  4.42864145E-05 -2.30818062E-05 -9.73910819E-05  1.11451476E-05 -5.00255524E-05
  2.33518042E-07  1.68531795E-08 -3.21344754E-06 -9.72894152E-07  3.89365930E-07
  1.77832937E-05 -8.53407357E-07 -3.53072908E-07  5.81829317E-06  1.18424801E-06
  4.14605856E-07  1.29903771E-06  3.61037915E-07 -5.83499426E-08 -9.17833085E-07
  1.18604162E-06  5.41791778E-06  4.99091411E-06 -1.56326973E-08  2.19466862E-06
 -7.09153461E-05 -7.83083763E-06 -3.13458064E-05 -2.07374558E-05  8.65547161E-07
 -2.68241301E-08  2.23235763E-06  9.25899570E-08  1.35084328E-06 -5.38201784E-07
  3.17752062E-06  1.22635182E-05 -1.18219360E-05 -6.44507622E-07  1.45815125E-06
 -7.54758691E-05  1.14039859E-04  1.92772399E-05 -2.63824112E-05  2.96249883E-06
  4.19966218E-06  1.19573243E-05  1.15925853E-06 -3.14729150E-06  5.98534926E-07
 -2.64515850E-06  1.61743719E-05  2.69031443E-05  1.00768288E-05  1.63621442E-05
  4.23721530E-05  1.27555439E-04 -3.22350678E-05  3.50261918E-05 -5.32699320E-05
  4.20198075E-06 -3.37038507E-05 -1.40138437E-05 -3.10039006E-05 -1.19270991E-05
 -5.18847443E-07 -1.49333708E-06  1.88271748E-06  5.69227938E-07 -2.87954809E-07
  3.78912576E-06 -6.78739719E-06 -5.74561333E-06  4.17295758E-06 -8.61313582E-07
 -1.33684366E-06 -1.01305493E-06 -2.31295139E-08 -2.30903356E-07  3.93067403E-07
 -6.69003021E-06  4.97140744E-04 -7.92095916E-05 -1.08824065E-04 -6.01304197E-05
 -3.08370335E-04  3.00919379E-04  1.05945534E-04  1.97563294E-04 -2.22665287E-04
 -3.23454338E-04 -1.55600435E-04 -2.48160300E-04 -1.49757267E-04 -1.92309975E-04
  3.16507301E-08  9.79007620E-08  3.89700599E-07 -4.92585452E-06 -3.16099828E-06
  3.88360634E-07  1.09334654E-05 -1.31571088E-05  1.09659335E-05 -8.56522732E-05
  4.64550012E-06 -2.99182412E-05 -5.30412935E-07 -3.83251376E-06 -1.18664104E-06
 -2.16238684E-06  5.51014333E-07  5.28790670E-06  8.61188380E-03  1.29929069E-04
  2.52983662E-05 -1.88217130E-05  1.14104521E-05  3.52981978E-04  1.03626533E-04
  7.38716386E-05  7.85904248E-05  3.24367011E-06 -1.46880890E-04 -6.01801912E-05
  2.41620958E-05  8.11928790E-05  8.71988546E-06  9.94652239E-01  2.10135865E-02
  1.38180087E-04 -1.26278356E-03 -6.94484873E-05  4.11744452E-03 -3.32758259E-05
  1.82327453E-04 -8.92888958E-06 -3.92051149E-03 -3.78791792E-03 -3.98916540E-03
 -2.85787358E-05  7.13315694E-05  1.70509058E-05  1.38835200E-06  3.39745480E-06
 -4.98819850E-06 -4.59383085E-07  1.83896401E-06  1.67135477E-05 -1.50197610E-05
 -1.09222349E-05  4.89054089E-06  3.66089026E-06  2.26712190E-06  4.21453723E-06
  9.76305160E-07 -8.41334133E-07 -1.50564453E-06  1.44505410E-06  8.24120689E-06
  8.83823834E-06 -6.15493315E-08  2.98323536E-06 -9.98986587E-05 -3.19751562E-05
 -8.81296072E-05 -3.25050215E-05  1.34768455E-06 -1.31486571E-06  1.32758078E-06
  1.95394375E-06  3.30822831E-06 -3.69303020E-06  4.73558170E-06  1.72545596E-05
 -1.89307461E-05 -7.40743015E-06 -8.32406946E-06 -4.89831348E-05  2.09000692E-04
  1.28288431E-04 -1.71055060E-05  2.88931590E-06 -1.94075978E-07  1.31337825E-05
 -8.85870187E-06  1.81288596E-07  6.07065310E-06 -4.45006089E-06  7.66347840E-06
  2.73647460E-05 -2.29531939E-05  8.84724544E-06  1.39862772E-04  1.55525728E-04
 -3.60961448E-05 -6.25259996E-06 -1.86922384E-05 -4.95730404E-05 -2.03877650E-05
  4.72398986E-05 -1.73837393E-06  1.88740702E-05 -1.12994165E-06 -4.08543832E-06
  2.63970814E-06  1.39373437E-06 -4.82267845E-07  2.00242273E-05 -1.53323457E-05
 -6.49666488E-06  3.26286652E-06 -1.33986484E-06 -2.46911701E-06 -1.97460497E-06
 -4.11071879E-07 -3.50951763E-07  1.34695474E-07 -7.90049300E-06  5.04224343E-04
 -9.48316420E-06  1.51794745E-04  1.74992956E-05 -3.07861585E-04  2.14668613E-04