347475                                                                  
Freq      RMP2-FC                                                     6-31G(d)            
Number of atoms                            I               21
Info1-9                                    I   N=           9
          33          31        1002           0           0         100
           6           2           1
Charge                                     I                0
Multiplicity                               I                1
Number of electrons                        I               64
Number of alpha electrons                  I               32
Number of beta electrons                   I               32
Number of basis functions                  I              146
Number of independent functions            I              146
Number of point charges in /Mol/           I                0
Number of translation vectors              I                0
Atomic numbers                             I   N=          21
           8           7           6           6           6           6
           6           6           1           1           1           1
           1           1           1           1           1           1
           1           1           1
Nuclear charges                            R   N=          21
  8.00000000E+00  7.00000000E+00  6.00000000E+00  6.00000000E+00  6.00000000E+00
  6.00000000E+00  6.00000000E+00  6.00000000E+00  1.00000000E+00  1.00000000E+00
  1.00000000E+00  1.00000000E+00  1.00000000E+00  1.00000000E+00  1.00000000E+00
  1.00000000E+00  1.00000000E+00  1.00000000E+00  1.00000000E+00  1.00000000E+00
  1.00000000E+00
Current cartesian coordinates              R   N=          63
  1.63757696E+00  2.20721534E+00 -1.38922383E+00 -6.91783841E-01 -9.61263856E-01
  3.64530457E-01 -3.10693623E+00  3.29656593E-02 -5.21829142E-01 -4.04638463E+00
  2.16226726E+00  1.18150687E+00 -4.99400217E+00 -2.12906963E+00 -7.25681148E-01
  1.52377320E+00  2.94075963E-01 -5.58680750E-02  3.83792531E+00 -8.17675008E-01
  1.23601418E+00  6.20316652E+00 -4.76862593E-01 -3.73401783E-01 -2.73372057E+00
  8.09004603E-01 -2.40174578E+00 -7.15271580E-01 -2.38264362E+00  1.64676798E+00
 -5.81768365E+00  2.95121825E+00  4.60345840E-01 -4.37958500E+00  1.45758206E+00
  3.09855693E+00 -2.63816044E+00  3.66930517E+00  1.25514077E+00 -4.28836489E+00
 -3.60804291E+00 -1.98379179E+00 -6.79717101E+00 -1.44279744E+00 -1.46520918E+00
 -5.35573514E+00 -2.96275589E+00  1.13597607E+00  4.06731754E+00  1.67044205E-01
  3.04663676E+00  3.52562390E+00 -2.81756551E+00  1.67677070E+00  6.43957349E+00
  1.51260380E+00 -8.56745604E-01  7.88046182E+00 -1.13134238E+00  6.39672933E-01
  6.04933466E+00 -1.54469596E+00 -2.13474356E+00
Force Field                                I                0
Int Atom Types                             I   N=          21
           0           0           0           0           0           0
           0           0           0           0           0           0
           0           0           0           0           0           0
           0           0           0
MM charges                                 R   N=          21
  0.00000000E+00  0.00000000E+00  0.00000000E+00  0.00000000E+00  0.00000000E+00
  0.00000000E+00  0.00000000E+00  0.00000000E+00  0.00000000E+00  0.00000000E+00
  0.00000000E+00  0.00000000E+00  0.00000000E+00  0.00000000E+00  0.00000000E+00
  0.00000000E+00  0.00000000E+00  0.00000000E+00  0.00000000E+00  0.00000000E+00
  0.00000000E+00
Integer atomic weights                     I   N=          21
          16          14          12          12          12          12
          12          12           1           1           1           1
           1           1           1           1           1           1
           1           1           1
Real atomic weights                        R   N=          21
  1.59949146E+01  1.40030740E+01  1.20000000E+01  1.20000000E+01  1.20000000E+01
  1.20000000E+01  1.20000000E+01  1.20000000E+01  1.00782504E+00  1.00782504E+00
  1.00782504E+00  1.00782504E+00  1.00782504E+00  1.00782504E+00  1.00782504E+00
  1.00782504E+00  1.00782504E+00  1.00782504E+00  1.00782504E+00  1.00782504E+00
  1.00782504E+00
Atom fragment info                         I   N=          21
           0           0           0           0           0           0
           0           0           0           0           0           0
           0           0           0           0           0           0
           0           0           0
Atom residue num                           I   N=          21
           0           0           0           0           0           0
           0           0           0           0           0           0
           0           0           0           0           0           0
           0           0           0
Nuclear spins                              I   N=          21
           0           2           0           0           0           0
           0           0           1           1           1           1
           1           1           1           1           1           1
           1           1           1
Nuclear ZEff                               R   N=          21
 -5.60000000E+00 -4.55000000E+00 -3.60000000E+00 -3.60000000E+00 -3.60000000E+00
 -3.60000000E+00 -3.60000000E+00 -3.60000000E+00 -1.00000000E+00 -1.00000000E+00
 -1.00000000E+00 -1.00000000E+00 -1.00000000E+00 -1.00000000E+00 -1.00000000E+00
 -1.00000000E+00 -1.00000000E+00 -1.00000000E+00 -1.00000000E+00 -1.00000000E+00
 -1.00000000E+00
Nuclear QMom                               R   N=          21
  0.00000000E+00  2.04400000E+00  0.00000000E+00  0.00000000E+00  0.00000000E+00
  0.00000000E+00  0.00000000E+00  0.00000000E+00  0.00000000E+00  0.00000000E+00
  0.00000000E+00  0.00000000E+00  0.00000000E+00  0.00000000E+00  0.00000000E+00
  0.00000000E+00  0.00000000E+00  0.00000000E+00  0.00000000E+00  0.00000000E+00
  0.00000000E+00
Nuclear GFac                               R   N=          21
  0.00000000E+00  4.03761000E-01  0.00000000E+00  0.00000000E+00  0.00000000E+00
  0.00000000E+00  0.00000000E+00  0.00000000E+00  2.79284600E+00  2.79284600E+00
  2.79284600E+00  2.79284600E+00  2.79284600E+00  2.79284600E+00  2.79284600E+00
  2.79284600E+00  2.79284600E+00  2.79284600E+00  2.79284600E+00  2.79284600E+00
  2.79284600E+00
MicOpt                                     I   N=          21
          -1          -1          -1          -1          -1          -1
          -1          -1          -1          -1          -1          -1
          -1          -1          -1          -1          -1          -1
          -1          -1          -1
Number of contracted shells                I               58
Number of primitive shells                 I              140
Pure/Cartesian d shells                    I                1
Pure/Cartesian f shells                    I                0
Highest angular momentum                   I                2
Largest degree of contraction              I                6
Shell types                                I   N=          58
           0          -1          -1           2           0          -1
          -1           2           0          -1          -1           2
           0          -1          -1           2           0          -1
          -1           2           0          -1          -1           2
           0          -1          -1           2           0          -1
          -1           2           0           0           0           0
           0           0           0           0           0           0
           0           0           0           0           0           0
           0           0           0           0           0           0
           0           0           0           0
Number of primitives per shell             I   N=          58
           6           3           1           1           6           3
           1           1           6           3           1           1
           6           3           1           1           6           3
           1           1           6           3           1           1
           6           3           1           1           6           3
           1           1           3           1           3           1
           3           1           3           1           3           1
           3           1           3           1           3           1
           3           1           3           1           3           1
           3           1           3           1
Shell to atom map                          I   N=          58
           1           1           1           1           2           2
           2           2           3           3           3           3
           4           4           4           4           5           5
           5           5           6           6           6           6
           7           7           7           7           8           8
           8           8           9           9          10          10
          11          11          12          12          13          13
          14          14          15          15          16          16
          17          17          18          18          19          19
          20          20          21          21
Primitive exponents                        R   N=         140
  5.48467166E+03  8.25234946E+02  1.88046958E+02  5.29645000E+01  1.68975704E+01
  5.79963534E+00  1.55396162E+01  3.59993359E+00  1.01376175E+00  2.70005823E-01
  8.00000000E-01  4.17351146E+03  6.27457911E+02  1.42902093E+02  4.02343293E+01
  1.28202129E+01  4.39043701E+00  1.16263619E+01  2.71627981E+00  7.72218397E-01
  2.12031498E-01  8.00000000E-01  3.04752488E+03  4.57369518E+02  1.03948685E+02
  2.92101553E+01  9.28666296E+00  3.16392696E+00  7.86827235E+00  1.88128854E+00
  5.44249258E-01  1.68714478E-01  8.00000000E-01  3.04752488E+03  4.57369518E+02
  1.03948685E+02  2.92101553E+01  9.28666296E+00  3.16392696E+00  7.86827235E+00
  1.88128854E+00  5.44249258E-01  1.68714478E-01  8.00000000E-01  3.04752488E+03
  4.57369518E+02  1.03948685E+02  2.92101553E+01  9.28666296E+00  3.16392696E+00
  7.86827235E+00  1.88128854E+00  5.44249258E-01  1.68714478E-01  8.00000000E-01
  3.04752488E+03  4.57369518E+02  1.03948685E+02  2.92101553E+01  9.28666296E+00
  3.16392696E+00  7.86827235E+00  1.88128854E+00  5.44249258E-01  1.68714478E-01
  8.00000000E-01  3.04752488E+03  4.57369518E+02  1.03948685E+02  2.92101553E+01
  9.28666296E+00  3.16392696E+00  7.86827235E+00  1.88128854E+00  5.44249258E-01
  1.68714478E-01  8.00000000E-01  3.04752488E+03  4.57369518E+02  1.03948685E+02
  2.92101553E+01  9.28666296E+00  3.16392696E+00  7.86827235E+00  1.88128854E+00
  5.44249258E-01  1.68714478E-01  8.00000000E-01  1.87311370E+01  2.82539436E+00
  6.40121692E-01  1.61277759E-01  1.87311370E+01  2.82539436E+00  6.40121692E-01
  1.61277759E-01  1.87311370E+01  2.82539436E+00  6.40121692E-01  1.61277759E-01
  1.87311370E+01  2.82539436E+00  6.40121692E-01  1.61277759E-01  1.87311370E+01
  2.82539436E+00  6.40121692E-01  1.61277759E-01  1.87311370E+01  2.82539436E+00
  6.40121692E-01  1.61277759E-01  1.87311370E+01  2.82539436E+00  6.40121692E-01
  1.61277759E-01  1.87311370E+01  2.82539436E+00  6.40121692E-01  1.61277759E-01
  1.87311370E+01  2.82539436E+00  6.40121692E-01  1.61277759E-01  1.87311370E+01
  2.82539436E+00  6.40121692E-01  1.61277759E-01  1.87311370E+01  2.82539436E+00
  6.40121692E-01  1.61277759E-01  1.87311370E+01  2.82539436E+00  6.40121692E-01
  1.61277759E-01  1.87311370E+01  2.82539436E+00  6.40121692E-01  1.61277759E-01
Contraction coefficients                   R   N=         140
  1.83107443E-03  1.39501722E-02  6.84450781E-02  2.32714336E-01  4.70192898E-01
  3.58520853E-01 -1.10777550E-01 -1.48026263E-01  1.13076702E+00  1.00000000E+00
  1.00000000E+00  1.83477216E-03  1.39946270E-02  6.85865518E-02  2.32240873E-01
  4.69069948E-01  3.60455199E-01 -1.14961182E-01 -1.69117479E-01  1.14585195E+00
  1.00000000E+00  1.00000000E+00  1.83473713E-03  1.40373228E-02  6.88426223E-02
  2.32184443E-01  4.67941348E-01  3.62311985E-01 -1.19332420E-01 -1.60854152E-01
  1.14345644E+00  1.00000000E+00  1.00000000E+00  1.83473713E-03  1.40373228E-02
  6.88426223E-02  2.32184443E-01  4.67941348E-01  3.62311985E-01 -1.19332420E-01
 -1.60854152E-01  1.14345644E+00  1.00000000E+00  1.00000000E+00  1.83473713E-03
  1.40373228E-02  6.88426223E-02  2.32184443E-01  4.67941348E-01  3.62311985E-01
 -1.19332420E-01 -1.60854152E-01  1.14345644E+00  1.00000000E+00  1.00000000E+00
  1.83473713E-03  1.40373228E-02  6.88426223E-02  2.32184443E-01  4.67941348E-01
  3.62311985E-01 -1.19332420E-01 -1.60854152E-01  1.14345644E+00  1.00000000E+00
  1.00000000E+00  1.83473713E-03  1.40373228E-02  6.88426223E-02  2.32184443E-01
  4.67941348E-01  3.62311985E-01 -1.19332420E-01 -1.60854152E-01  1.14345644E+00
  1.00000000E+00  1.00000000E+00  1.83473713E-03  1.40373228E-02  6.88426223E-02
  2.32184443E-01  4.67941348E-01  3.62311985E-01 -1.19332420E-01 -1.60854152E-01
  1.14345644E+00  1.00000000E+00  1.00000000E+00  3.34946043E-02  2.34726953E-01
  8.13757326E-01  1.00000000E+00  3.34946043E-02  2.34726953E-01  8.13757326E-01
  1.00000000E+00  3.34946043E-02  2.34726953E-01  8.13757326E-01  1.00000000E+00
  3.34946043E-02  2.34726953E-01  8.13757326E-01  1.00000000E+00  3.34946043E-02
  2.34726953E-01  8.13757326E-01  1.00000000E+00  3.34946043E-02  2.34726953E-01
  8.13757326E-01  1.00000000E+00  3.34946043E-02  2.34726953E-01  8.13757326E-01
  1.00000000E+00  3.34946043E-02  2.34726953E-01  8.13757326E-01  1.00000000E+00
  3.34946043E-02  2.34726953E-01  8.13757326E-01  1.00000000E+00  3.34946043E-02
  2.34726953E-01  8.13757326E-01  1.00000000E+00  3.34946043E-02  2.34726953E-01
  8.13757326E-01  1.00000000E+00  3.34946043E-02  2.34726953E-01  8.13757326E-01
  1.00000000E+00  3.34946043E-02  2.34726953E-01  8.13757326E-01  1.00000000E+00
P(S=P) Contraction coefficients            R   N=         140
  0.00000000E+00  0.00000000E+00  0.00000000E+00  0.00000000E+00  0.00000000E+00
  0.00000000E+00  7.08742682E-02  3.39752839E-01  7.27158577E-01  1.00000000E+00
  0.00000000E+00  0.00000000E+00  0.00000000E+00  0.00000000E+00  0.00000000E+00
  0.00000000E+00  0.00000000E+00  6.75797439E-02  3.23907296E-01  7.40895140E-01
  1.00000000E+00  0.00000000E+00  0.00000000E+00  0.00000000E+00  0.00000000E+00
  0.00000000E+00  0.00000000E+00  0.00000000E+00  6.89990666E-02  3.16423961E-01
  7.44308291E-01  1.00000000E+00  0.00000000E+00  0.00000000E+00  0.00000000E+00
  0.00000000E+00  0.00000000E+00  0.00000000E+00  0.00000000E+00  6.89990666E-02
  3.16423961E-01  7.44308291E-01  1.00000000E+00  0.00000000E+00  0.00000000E+00
  0.00000000E+00  0.00000000E+00  0.00000000E+00  0.00000000E+00  0.00000000E+00
  6.89990666E-02  3.16423961E-01  7.44308291E-01  1.00000000E+00  0.00000000E+00
  0.00000000E+00  0.00000000E+00  0.00000000E+00  0.00000000E+00  0.00000000E+00
  0.00000000E+00  6.89990666E-02  3.16423961E-01  7.44308291E-01  1.00000000E+00
  0.00000000E+00  0.00000000E+00  0.00000000E+00  0.00000000E+00  0.00000000E+00
  0.00000000E+00  0.00000000E+00  6.89990666E-02  3.16423961E-01  7.44308291E-01
  1.00000000E+00  0.00000000E+00  0.00000000E+00  0.00000000E+00  0.00000000E+00
  0.00000000E+00  0.00000000E+00  0.00000000E+00  6.89990666E-02  3.16423961E-01
  7.44308291E-01  1.00000000E+00  0.00000000E+00  0.00000000E+00  0.00000000E+00
  0.00000000E+00  0.00000000E+00  0.00000000E+00  0.00000000E+00  0.00000000E+00
  0.00000000E+00  0.00000000E+00  0.00000000E+00  0.00000000E+00  0.00000000E+00
  0.00000000E+00  0.00000000E+00  0.00000000E+00  0.00000000E+00  0.00000000E+00
  0.00000000E+00  0.00000000E+00  0.00000000E+00  0.00000000E+00  0.00000000E+00
  0.00000000E+00  0.00000000E+00  0.00000000E+00  0.00000000E+00  0.00000000E+00
  0.00000000E+00  0.00000000E+00  0.00000000E+00  0.00000000E+00  0.00000000E+00
  0.00000000E+00  0.00000000E+00  0.00000000E+00  0.00000000E+00  0.00000000E+00
  0.00000000E+00  0.00000000E+00  0.00000000E+00  0.00000000E+00  0.00000000E+00
  0.00000000E+00  0.00000000E+00  0.00000000E+00  0.00000000E+00  0.00000000E+00
  0.00000000E+00  0.00000000E+00  0.00000000E+00  0.00000000E+00  0.00000000E+00
Coordinates of each shell                  R   N=         174
  1.63757696E+00  2.20721534E+00 -1.38922383E+00  1.63757696E+00  2.20721534E+00
 -1.38922383E+00  1.63757696E+00  2.20721534E+00 -1.38922383E+00  1.63757696E+00
  2.20721534E+00 -1.38922383E+00 -6.91783841E-01 -9.61263856E-01  3.64530457E-01
 -6.91783841E-01 -9.61263856E-01  3.64530457E-01 -6.91783841E-01 -9.61263856E-01
  3.64530457E-01 -6.91783841E-01 -9.61263856E-01  3.64530457E-01 -3.10693623E+00
  3.29656593E-02 -5.21829142E-01 -3.10693623E+00  3.29656593E-02 -5.21829142E-01
 -3.10693623E+00  3.29656593E-02 -5.21829142E-01 -3.10693623E+00  3.29656593E-02
 -5.21829142E-01 -4.04638463E+00  2.16226726E+00  1.18150687E+00 -4.04638463E+00
  2.16226726E+00  1.18150687E+00 -4.04638463E+00  2.16226726E+00  1.18150687E+00
 -4.04638463E+00  2.16226726E+00  1.18150687E+00 -4.99400217E+00 -2.12906963E+00
 -7.25681148E-01 -4.99400217E+00 -2.12906963E+00 -7.25681148E-01 -4.99400217E+00
 -2.12906963E+00 -7.25681148E-01 -4.99400217E+00 -2.12906963E+00 -7.25681148E-01
  1.52377320E+00  2.94075963E-01 -5.58680750E-02  1.52377320E+00  2.94075963E-01
 -5.58680750E-02  1.52377320E+00  2.94075963E-01 -5.58680750E-02  1.52377320E+00
  2.94075963E-01 -5.58680750E-02  3.83792531E+00 -8.17675008E-01  1.23601418E+00
  3.83792531E+00 -8.17675008E-01  1.23601418E+00  3.83792531E+00 -8.17675008E-01
  1.23601418E+00  3.83792531E+00 -8.17675008E-01  1.23601418E+00  6.20316652E+00
 -4.76862593E-01 -3.73401783E-01  6.20316652E+00 -4.76862593E-01 -3.73401783E-01
  6.20316652E+00 -4.76862593E-01 -3.73401783E-01  6.20316652E+00 -4.76862593E-01
 -3.73401783E-01 -2.73372057E+00  8.09004603E-01 -2.40174578E+00 -2.73372057E+00
  8.09004603E-01 -2.40174578E+00 -7.15271580E-01 -2.38264362E+00  1.64676798E+00
 -7.15271580E-01 -2.38264362E+00  1.64676798E+00 -5.81768365E+00  2.95121825E+00
  4.60345840E-01 -5.81768365E+00  2.95121825E+00  4.60345840E-01 -4.37958500E+00
  1.45758206E+00  3.09855693E+00 -4.37958500E+00  1.45758206E+00  3.09855693E+00
 -2.63816044E+00  3.66930517E+00  1.25514077E+00 -2.63816044E+00  3.66930517E+00
  1.25514077E+00 -4.28836489E+00 -3.60804291E+00 -1.98379179E+00 -4.28836489E+00
 -3.60804291E+00 -1.98379179E+00 -6.79717101E+00 -1.44279744E+00 -1.46520918E+00
 -6.79717101E+00 -1.44279744E+00 -1.46520918E+00 -5.35573514E+00 -2.96275589E+00
  1.13597607E+00 -5.35573514E+00 -2.96275589E+00  1.13597607E+00  4.06731754E+00
  1.67044205E-01  3.04663676E+00  4.06731754E+00  1.67044205E-01  3.04663676E+00
  3.52562390E+00 -2.81756551E+00  1.67677070E+00  3.52562390E+00 -2.81756551E+00
  1.67677070E+00  6.43957349E+00  1.51260380E+00 -8.56745604E-01  6.43957349E+00
  1.51260380E+00 -8.56745604E-01  7.88046182E+00 -1.13134238E+00  6.39672933E-01
  7.88046182E+00 -1.13134238E+00  6.39672933E-01  6.04933466E+00 -1.54469596E+00
 -2.13474356E+00  6.04933466E+00 -1.54469596E+00 -2.13474356E+00
Constraint Structure                       R   N=          63
  1.63757696E+00  2.20721534E+00 -1.38922383E+00 -6.91783841E-01 -9.61263856E-01
  3.64530457E-01 -3.10693623E+00  3.29656593E-02 -5.21829142E-01 -4.04638463E+00
  2.16226726E+00  1.18150687E+00 -4.99400217E+00 -2.12906963E+00 -7.25681148E-01
  1.52377320E+00  2.94075963E-01 -5.58680750E-02  3.83792531E+00 -8.17675008E-01
  1.23601418E+00  6.20316652E+00 -4.76862593E-01 -3.73401783E-01 -2.73372057E+00
  8.09004603E-01 -2.40174578E+00 -7.15271580E-01 -2.38264362E+00  1.64676798E+00
 -5.81768365E+00  2.95121825E+00  4.60345840E-01 -4.37958500E+00  1.45758206E+00
  3.09855693E+00 -2.63816044E+00  3.66930517E+00  1.25514077E+00 -4.28836489E+00
 -3.60804291E+00 -1.98379179E+00 -6.79717101E+00 -1.44279744E+00 -1.46520918E+00
 -5.35573514E+00 -2.96275589E+00  1.13597607E+00  4.06731754E+00  1.67044205E-01
  3.04663676E+00  3.52562390E+00 -2.81756551E+00  1.67677070E+00  6.43957349E+00
  1.51260380E+00 -8.56745604E-01  7.88046182E+00 -1.13134238E+00  6.39672933E-01
  6.04933466E+00 -1.54469596E+00 -2.13474356E+00
Num ILSW                                   I              100
ILSW                                       I   N=         100
           0           1           0           1           2           0
           0           0           0           0           0          -1
           0           0           0           0           0           0
           0           0           0           0           1           0
           1           0           0           0           0           0
           0           0      100000           0          -1           0
           0           0           0           0           0           0
           0           0           0           1           1           0
           0           0           1           0           0           0
           0           0           4          40           0           0
           0           0           0           0           0           0
           0           0           0           0           0           0
           0           0           0           0           0           0
           0           0           0           0           0           0
           0           0           0           0           0           0
           0           0           0           0           0           0
           0           0           0           0
Num RLSW                                   I               40
RLSW                                       R   N=          40
  1.00000000E+00  1.00000000E+00  1.00000000E+00  1.00000000E+00  1.00000000E+00
  0.00000000E+00  0.00000000E+00  1.00000000E+00  0.00000000E+00  0.00000000E+00
  0.00000000E+00  0.00000000E+00  1.00000000E+00  0.00000000E+00  0.00000000E+00
  0.00000000E+00  0.00000000E+00  1.00000000E+00  0.00000000E+00  0.00000000E+00
  0.00000000E+00  0.00000000E+00  1.00000000E+00  0.00000000E+00  0.00000000E+00
  0.00000000E+00  0.00000000E+00  1.00000000E+00  0.00000000E+00  0.00000000E+00
  0.00000000E+00  0.00000000E+00  0.00000000E+00  0.00000000E+00  0.00000000E+00
  0.00000000E+00  0.00000000E+00  0.00000000E+00  1.00000000E+00  1.00000000E+00
MxBond                                     I                4
NBond                                      I   N=          21
           1           3           4           4           4           3
           4           4           1           1           1           1
           1           1           1           1           1           1
           1           1           1
IBond                                      I   N=          84
           6           0           0           0           3           6
          10           0           2           4           5           9
           3          11          12          13           3          14
          15          16           1           2           7           0
           6           8          17          18           7          19
          20          21           3           0           0           0
           2           0           0           0           4           0
           0           0           4           0           0           0
           4           0           0           0           5           0
           0           0           5           0           0           0
           5           0           0           0           7           0
           0           0           7           0           0           0
           8           0           0           0           8           0
           0           0           8           0           0           0
RBond                                      R   N=          84
  2.00000000E+00  0.00000000E+00  0.00000000E+00  0.00000000E+00  1.00000000E+00
  1.50000000E+00  1.00000000E+00  0.00000000E+00  1.00000000E+00  1.00000000E+00
  1.00000000E+00  1.00000000E+00  1.00000000E+00  1.00000000E+00  1.00000000E+00
  1.00000000E+00  1.00000000E+00  1.00000000E+00  1.00000000E+00  1.00000000E+00
  2.00000000E+00  1.50000000E+00  1.00000000E+00  0.00000000E+00  1.00000000E+00
  1.00000000E+00  1.00000000E+00  1.00000000E+00  1.00000000E+00  1.00000000E+00
  1.00000000E+00  1.00000000E+00  1.00000000E+00  0.00000000E+00  0.00000000E+00
  0.00000000E+00  1.00000000E+00  0.00000000E+00  0.00000000E+00  0.00000000E+00
  1.00000000E+00  0.00000000E+00  0.00000000E+00  0.00000000E+00  1.00000000E+00
  0.00000000E+00  0.00000000E+00  0.00000000E+00  1.00000000E+00  0.00000000E+00
  0.00000000E+00  0.00000000E+00  1.00000000E+00  0.00000000E+00  0.00000000E+00
  0.00000000E+00  1.00000000E+00  0.00000000E+00  0.00000000E+00  0.00000000E+00
  1.00000000E+00  0.00000000E+00  0.00000000E+00  0.00000000E+00  1.00000000E+00
  0.00000000E+00  0.00000000E+00  0.00000000E+00  1.00000000E+00  0.00000000E+00
  0.00000000E+00  0.00000000E+00  1.00000000E+00  0.00000000E+00  0.00000000E+00
  0.00000000E+00  1.00000000E+00  0.00000000E+00  0.00000000E+00  0.00000000E+00
  1.00000000E+00  0.00000000E+00  0.00000000E+00  0.00000000E+00
Virial Ratio                               R      2.002065019441878E+00
SCF Energy                                 R     -3.641130124026946E+02
MP2 Energy                                 R     -3.652360390016635E+02
Total Energy                               R     -3.652360390016635E+02
Post-SCF wavefunction norm                 R      1.649658245153636E+00
RMS Force                                  R      3.639515885095885E-07
RMS Density                                R      1.444137212455643E-09
External E-field                           R   N=          35
  0.00000000E+00  0.00000000E+00  0.00000000E+00  0.00000000E+00  0.00000000E+00
  0.00000000E+00  0.00000000E+00  0.00000000E+00  0.00000000E+00  0.00000000E+00
  0.00000000E+00  0.00000000E+00  0.00000000E+00  0.00000000E+00  0.00000000E+00
  0.00000000E+00  0.00000000E+00  0.00000000E+00  0.00000000E+00  0.00000000E+00
  0.00000000E+00  0.00000000E+00  0.00000000E+00  0.00000000E+00  0.00000000E+00
  0.00000000E+00  0.00000000E+00  0.00000000E+00  0.00000000E+00  0.00000000E+00
  0.00000000E+00  0.00000000E+00  0.00000000E+00  0.00000000E+00  0.00000000E+00
IOpCl                                      I                0
IROHF                                      I                0
Alpha Orbital Energies                     R   N=         146
 -2.05160640E+01 -1.55830190E+01 -1.13458352E+01 -1.12653181E+01 -1.12395749E+01
 -1.12247195E+01 -1.12163374E+01 -1.12121273E+01 -1.36284721E+00 -1.22629204E+00
 -1.06563896E+00 -1.02972720E+00 -9.39211581E-01 -8.87058933E-01 -8.08616324E-01
 -7.78199960E-01 -6.79345571E-01 -6.56372800E-01 -6.24231794E-01 -6.15753772E-01
 -5.89701507E-01 -5.75939630E-01 -5.54891790E-01 -5.45048371E-01 -5.25245111E-01
 -5.11699075E-01 -5.08297580E-01 -4.95835731E-01 -4.85516931E-01 -4.73714768E-01
 -4.08602889E-01 -3.80306391E-01  1.95684176E-01  2.14162122E-01  2.43459415E-01
  2.61195003E-01  2.88320819E-01  2.96422616E-01  2.97688537E-01  3.02445459E-01
  3.23665309E-01  3.27968315E-01  3.30063418E-01  3.45562166E-01  3.49598871E-01
  3.55112899E-01  3.84829901E-01  4.04660421E-01  4.30498106E-01  4.41219153E-01
  4.46629492E-01  5.28064766E-01  5.92571259E-01  6.96790475E-01  7.19772838E-01
  7.32231404E-01  7.39771746E-01  7.44379809E-01  7.66320849E-01  7.95127280E-01
  8.05427460E-01  8.42827724E-01  8.98133415E-01  9.14972913E-01  9.40130536E-01
  9.46710383E-01  9.67083835E-01  9.86602932E-01  1.00030687E+00  1.03201557E+00
  1.05502943E+00  1.09547399E+00  1.10849504E+00  1.13449621E+00  1.14089356E+00
  1.15217963E+00  1.15694332E+00  1.16624772E+00  1.17380502E+00  1.18275749E+00
  1.18562535E+00  1.19362859E+00  1.20290858E+00  1.22852281E+00  1.23605943E+00
  1.24742555E+00  1.25912462E+00  1.26655424E+00  1.33140810E+00  1.38516140E+00
  1.45337512E+00  1.50597237E+00  1.54977651E+00  1.61329465E+00  1.63845703E+00
  1.67791745E+00  1.71359417E+00  1.72446443E+00  1.82773168E+00  1.86262897E+00
  1.93329965E+00  1.95826975E+00  2.03386215E+00  2.06958118E+00  2.09421513E+00
  2.11485182E+00  2.12190704E+00  2.17244171E+00  2.20240490E+00  2.23847605E+00
  2.26999611E+00  2.28430591E+00  2.29712982E+00  2.32184351E+00  2.34616745E+00
  2.38191862E+00  2.41041993E+00  2.44769976E+00  2.49865475E+00  2.57778401E+00
  2.58027447E+00  2.59317509E+00  2.62297836E+00  2.63667988E+00  2.67430158E+00
  2.70122018E+00  2.73008253E+00  2.81076994E+00  2.81920908E+00  2.86478514E+00
  2.92524688E+00  2.98812410E+00  3.04366391E+00  3.08876073E+00  3.11243621E+00
  3.27406044E+00  3.38219781E+00  3.52639813E+00  4.42050432E+00  4.51990962E+00
  4.59369332E+00  4.62301865E+00  4.72234600E+00  4.79032065E+00  4.93183825E+00
  5.00236067E+00
Alpha MO coefficients                      R   N=       21316
  9.94693213E-01  2.09899819E-02 -9.61318018E-05 -1.24568002E-03  8.65488621E-04
  4.32319396E-03 -1.15918386E-05  1.04986860E-04 -7.93541336E-05 -3.89605112E-03
 -3.81259078E-03 -3.95587408E-03  2.54598247E-05  1.89683837E-05 -2.31274116E-04
 -8.91391313E-06 -4.32046047E-05 -8.47311887E-06 -3.35765767E-05  1.90138343E-05
  1.79570037E-04  5.11681770E-07  1.02273686E-04 -4.68215932E-05  7.07323145E-05
 -7.27258510E-05 -5.65562171E-05 -2.67304627E-05  4.21361873E-05  1.64705570E-05
 -4.19102233E-06  3.22675607E-06 -9.56802366E-06  2.21950744E-05 -9.99950072E-07
  7.13091308E-05 -1.37358842E-04 -5.80555142E-05 -6.04159671E-05 -3.52478331E-05
 -1.31867489E-05 -1.47849574E-05  1.87570839E-05 -1.21543298E-05  8.05510696E-06
 -2.24700414E-06 -1.32943179E-05  4.82131442E-06 -1.00710559E-05 -4.56872180E-06