11124                                                                   
Freq      RMP2-FC                                                     6-31G(d)            
Number of atoms                            I               14
Info1-9                                    I   N=           9
          26          24        1002           0           0         100
           6           2           1
Charge                                     I                0
Multiplicity                               I                1
Number of electrons                        I               48
Number of alpha electrons                  I               24
Number of beta electrons                   I               24
Number of basis functions                  I              106
Number of independent functions            I              106
Number of point charges in /Mol/           I                0
Number of translation vectors              I                0
Atomic numbers                             I   N=          14
           8           8           6           6           6           6
           1           1           1           1           1           1
           1           1
Nuclear charges                            R   N=          14
  8.00000000E+00  8.00000000E+00  6.00000000E+00  6.00000000E+00  6.00000000E+00
  6.00000000E+00  1.00000000E+00  1.00000000E+00  1.00000000E+00  1.00000000E+00
  1.00000000E+00  1.00000000E+00  1.00000000E+00  1.00000000E+00
Current cartesian coordinates              R   N=          42
  2.16486129E+00 -1.36175481E+00 -3.54963724E-06  2.01438757E-01  2.45445715E+00
  1.04360372E-05 -2.29521391E+00 -1.40784664E+00  1.42675144E-05 -4.66360396E+00
  2.24335080E-01 -1.59107162E-05  9.30030060E-02  1.51223018E-01  5.52964599E-06
  4.52840488E+00 -7.78452552E-03 -8.13661513E-06 -2.23112109E+00 -2.65553619E+00
 -1.65105927E+00 -2.23113307E+00 -2.65548620E+00  1.65112683E+00 -4.71423692E+00
  1.44105236E+00 -1.66520984E+00 -6.35366607E+00 -9.63020165E-01 -8.84002842E-05
 -4.71433332E+00  1.44097963E+00  1.66522857E+00  5.97988826E+00 -1.46461469E+00
 -3.93890513E-05  4.67934622E+00  1.17770078E+00  1.68014249E+00  4.67931558E+00
  1.17774418E+00 -1.68013059E+00
Force Field                                I                0
Int Atom Types                             I   N=          14
           0           0           0           0           0           0
           0           0           0           0           0           0
           0           0
MM charges                                 R   N=          14
  0.00000000E+00  0.00000000E+00  0.00000000E+00  0.00000000E+00  0.00000000E+00
  0.00000000E+00  0.00000000E+00  0.00000000E+00  0.00000000E+00  0.00000000E+00
  0.00000000E+00  0.00000000E+00  0.00000000E+00  0.00000000E+00
Integer atomic weights                     I   N=          14
          16          16          12          12          12          12
           1           1           1           1           1           1
           1           1
Real atomic weights                        R   N=          14
  1.59949146E+01  1.59949146E+01  1.20000000E+01  1.20000000E+01  1.20000000E+01
  1.20000000E+01  1.00782504E+00  1.00782504E+00  1.00782504E+00  1.00782504E+00
  1.00782504E+00  1.00782504E+00  1.00782504E+00  1.00782504E+00
Atom fragment info                         I   N=          14
           0           0           0           0           0           0
           0           0           0           0           0           0
           0           0
Atom residue num                           I   N=          14
           0           0           0           0           0           0
           0           0           0           0           0           0
           0           0
Nuclear spins                              I   N=          14
           0           0           0           0           0           0
           1           1           1           1           1           1
           1           1
Nuclear ZEff                               R   N=          14
 -5.60000000E+00 -5.60000000E+00 -3.60000000E+00 -3.60000000E+00 -3.60000000E+00
 -3.60000000E+00 -1.00000000E+00 -1.00000000E+00 -1.00000000E+00 -1.00000000E+00
 -1.00000000E+00 -1.00000000E+00 -1.00000000E+00 -1.00000000E+00
Nuclear QMom                               R   N=          14
  0.00000000E+00  0.00000000E+00  0.00000000E+00  0.00000000E+00  0.00000000E+00
  0.00000000E+00  0.00000000E+00  0.00000000E+00  0.00000000E+00  0.00000000E+00
  0.00000000E+00  0.00000000E+00  0.00000000E+00  0.00000000E+00
Nuclear GFac                               R   N=          14
  0.00000000E+00  0.00000000E+00  0.00000000E+00  0.00000000E+00  0.00000000E+00
  0.00000000E+00  2.79284600E+00  2.79284600E+00  2.79284600E+00  2.79284600E+00
  2.79284600E+00  2.79284600E+00  2.79284600E+00  2.79284600E+00
MicOpt                                     I   N=          14
          -1          -1          -1          -1          -1          -1
          -1          -1          -1          -1          -1          -1
          -1          -1
Number of contracted shells                I               40
Number of primitive shells                 I               98
Pure/Cartesian d shells                    I                1
Pure/Cartesian f shells                    I                0
Highest angular momentum                   I                2
Largest degree of contraction              I                6
Shell types                                I   N=          40
           0          -1          -1           2           0          -1
          -1           2           0          -1          -1           2
           0          -1          -1           2           0          -1
          -1           2           0          -1          -1           2
           0           0           0           0           0           0
           0           0           0           0           0           0
           0           0           0           0
Number of primitives per shell             I   N=          40
           6           3           1           1           6           3
           1           1           6           3           1           1
           6           3           1           1           6           3
           1           1           6           3           1           1
           3           1           3           1           3           1
           3           1           3           1           3           1
           3           1           3           1
Shell to atom map                          I   N=          40
           1           1           1           1           2           2
           2           2           3           3           3           3
           4           4           4           4           5           5
           5           5           6           6           6           6
           7           7           8           8           9           9
          10          10          11          11          12          12
          13          13          14          14
Primitive exponents                        R   N=          98
  5.48467166E+03  8.25234946E+02  1.88046958E+02  5.29645000E+01  1.68975704E+01
  5.79963534E+00  1.55396162E+01  3.59993359E+00  1.01376175E+00  2.70005823E-01
  8.00000000E-01  5.48467166E+03  8.25234946E+02  1.88046958E+02  5.29645000E+01
  1.68975704E+01  5.79963534E+00  1.55396162E+01  3.59993359E+00  1.01376175E+00
  2.70005823E-01  8.00000000E-01  3.04752488E+03  4.57369518E+02  1.03948685E+02
  2.92101553E+01  9.28666296E+00  3.16392696E+00  7.86827235E+00  1.88128854E+00
  5.44249258E-01  1.68714478E-01  8.00000000E-01  3.04752488E+03  4.57369518E+02
  1.03948685E+02  2.92101553E+01  9.28666296E+00  3.16392696E+00  7.86827235E+00
  1.88128854E+00  5.44249258E-01  1.68714478E-01  8.00000000E-01  3.04752488E+03
  4.57369518E+02  1.03948685E+02  2.92101553E+01  9.28666296E+00  3.16392696E+00
  7.86827235E+00  1.88128854E+00  5.44249258E-01  1.68714478E-01  8.00000000E-01
  3.04752488E+03  4.57369518E+02  1.03948685E+02  2.92101553E+01  9.28666296E+00
  3.16392696E+00  7.86827235E+00  1.88128854E+00  5.44249258E-01  1.68714478E-01
  8.00000000E-01  1.87311370E+01  2.82539436E+00  6.40121692E-01  1.61277759E-01
  1.87311370E+01  2.82539436E+00  6.40121692E-01  1.61277759E-01  1.87311370E+01
  2.82539436E+00  6.40121692E-01  1.61277759E-01  1.87311370E+01  2.82539436E+00
  6.40121692E-01  1.61277759E-01  1.87311370E+01  2.82539436E+00  6.40121692E-01
  1.61277759E-01  1.87311370E+01  2.82539436E+00  6.40121692E-01  1.61277759E-01
  1.87311370E+01  2.82539436E+00  6.40121692E-01  1.61277759E-01  1.87311370E+01
  2.82539436E+00  6.40121692E-01  1.61277759E-01
Contraction coefficients                   R   N=          98
  1.83107443E-03  1.39501722E-02  6.84450781E-02  2.32714336E-01  4.70192898E-01
  3.58520853E-01 -1.10777550E-01 -1.48026263E-01  1.13076702E+00  1.00000000E+00
  1.00000000E+00  1.83107443E-03  1.39501722E-02  6.84450781E-02  2.32714336E-01
  4.70192898E-01  3.58520853E-01 -1.10777550E-01 -1.48026263E-01  1.13076702E+00
  1.00000000E+00  1.00000000E+00  1.83473713E-03  1.40373228E-02  6.88426223E-02
  2.32184443E-01  4.67941348E-01  3.62311985E-01 -1.19332420E-01 -1.60854152E-01
  1.14345644E+00  1.00000000E+00  1.00000000E+00  1.83473713E-03  1.40373228E-02
  6.88426223E-02  2.32184443E-01  4.67941348E-01  3.62311985E-01 -1.19332420E-01
 -1.60854152E-01  1.14345644E+00  1.00000000E+00  1.00000000E+00  1.83473713E-03
  1.40373228E-02  6.88426223E-02  2.32184443E-01  4.67941348E-01  3.62311985E-01
 -1.19332420E-01 -1.60854152E-01  1.14345644E+00  1.00000000E+00  1.00000000E+00
  1.83473713E-03  1.40373228E-02  6.88426223E-02  2.32184443E-01  4.67941348E-01
  3.62311985E-01 -1.19332420E-01 -1.60854152E-01  1.14345644E+00  1.00000000E+00
  1.00000000E+00  3.34946043E-02  2.34726953E-01  8.13757326E-01  1.00000000E+00
  3.34946043E-02  2.34726953E-01  8.13757326E-01  1.00000000E+00  3.34946043E-02
  2.34726953E-01  8.13757326E-01  1.00000000E+00  3.34946043E-02  2.34726953E-01
  8.13757326E-01  1.00000000E+00  3.34946043E-02  2.34726953E-01  8.13757326E-01
  1.00000000E+00  3.34946043E-02  2.34726953E-01  8.13757326E-01  1.00000000E+00
  3.34946043E-02  2.34726953E-01  8.13757326E-01  1.00000000E+00  3.34946043E-02
  2.34726953E-01  8.13757326E-01  1.00000000E+00
P(S=P) Contraction coefficients            R   N=          98
  0.00000000E+00  0.00000000E+00  0.00000000E+00  0.00000000E+00  0.00000000E+00
  0.00000000E+00  7.08742682E-02  3.39752839E-01  7.27158577E-01  1.00000000E+00
  0.00000000E+00  0.00000000E+00  0.00000000E+00  0.00000000E+00  0.00000000E+00
  0.00000000E+00  0.00000000E+00  7.08742682E-02  3.39752839E-01  7.27158577E-01
  1.00000000E+00  0.00000000E+00  0.00000000E+00  0.00000000E+00  0.00000000E+00
  0.00000000E+00  0.00000000E+00  0.00000000E+00  6.89990666E-02  3.16423961E-01
  7.44308291E-01  1.00000000E+00  0.00000000E+00  0.00000000E+00  0.00000000E+00
  0.00000000E+00  0.00000000E+00  0.00000000E+00  0.00000000E+00  6.89990666E-02
  3.16423961E-01  7.44308291E-01  1.00000000E+00  0.00000000E+00  0.00000000E+00
  0.00000000E+00  0.00000000E+00  0.00000000E+00  0.00000000E+00  0.00000000E+00
  6.89990666E-02  3.16423961E-01  7.44308291E-01  1.00000000E+00  0.00000000E+00
  0.00000000E+00  0.00000000E+00  0.00000000E+00  0.00000000E+00  0.00000000E+00
  0.00000000E+00  6.89990666E-02  3.16423961E-01  7.44308291E-01  1.00000000E+00
  0.00000000E+00  0.00000000E+00  0.00000000E+00  0.00000000E+00  0.00000000E+00
  0.00000000E+00  0.00000000E+00  0.00000000E+00  0.00000000E+00  0.00000000E+00
  0.00000000E+00  0.00000000E+00  0.00000000E+00  0.00000000E+00  0.00000000E+00
  0.00000000E+00  0.00000000E+00  0.00000000E+00  0.00000000E+00  0.00000000E+00
  0.00000000E+00  0.00000000E+00  0.00000000E+00  0.00000000E+00  0.00000000E+00
  0.00000000E+00  0.00000000E+00  0.00000000E+00  0.00000000E+00  0.00000000E+00
  0.00000000E+00  0.00000000E+00  0.00000000E+00
Coordinates of each shell                  R   N=         120
  2.16486129E+00 -1.36175481E+00 -3.54963724E-06  2.16486129E+00 -1.36175481E+00
 -3.54963724E-06  2.16486129E+00 -1.36175481E+00 -3.54963724E-06  2.16486129E+00
 -1.36175481E+00 -3.54963724E-06  2.01438757E-01  2.45445715E+00  1.04360372E-05
  2.01438757E-01  2.45445715E+00  1.04360372E-05  2.01438757E-01  2.45445715E+00
  1.04360372E-05  2.01438757E-01  2.45445715E+00  1.04360372E-05 -2.29521391E+00
 -1.40784664E+00  1.42675144E-05 -2.29521391E+00 -1.40784664E+00  1.42675144E-05
 -2.29521391E+00 -1.40784664E+00  1.42675144E-05 -2.29521391E+00 -1.40784664E+00
  1.42675144E-05 -4.66360396E+00  2.24335080E-01 -1.59107162E-05 -4.66360396E+00
  2.24335080E-01 -1.59107162E-05 -4.66360396E+00  2.24335080E-01 -1.59107162E-05
 -4.66360396E+00  2.24335080E-01 -1.59107162E-05  9.30030060E-02  1.51223018E-01
  5.52964599E-06  9.30030060E-02  1.51223018E-01  5.52964599E-06  9.30030060E-02
  1.51223018E-01  5.52964599E-06  9.30030060E-02  1.51223018E-01  5.52964599E-06
  4.52840488E+00 -7.78452552E-03 -8.13661513E-06  4.52840488E+00 -7.78452552E-03
 -8.13661513E-06  4.52840488E+00 -7.78452552E-03 -8.13661513E-06  4.52840488E+00
 -7.78452552E-03 -8.13661513E-06 -2.23112109E+00 -2.65553619E+00 -1.65105927E+00
 -2.23112109E+00 -2.65553619E+00 -1.65105927E+00 -2.23113307E+00 -2.65548620E+00
  1.65112683E+00 -2.23113307E+00 -2.65548620E+00  1.65112683E+00 -4.71423692E+00
  1.44105236E+00 -1.66520984E+00 -4.71423692E+00  1.44105236E+00 -1.66520984E+00
 -6.35366607E+00 -9.63020165E-01 -8.84002842E-05 -6.35366607E+00 -9.63020165E-01
 -8.84002842E-05 -4.71433332E+00  1.44097963E+00  1.66522857E+00 -4.71433332E+00
  1.44097963E+00  1.66522857E+00  5.97988826E+00 -1.46461469E+00 -3.93890513E-05
  5.97988826E+00 -1.46461469E+00 -3.93890513E-05  4.67934622E+00  1.17770078E+00
  1.68014249E+00  4.67934622E+00  1.17770078E+00  1.68014249E+00  4.67931558E+00
  1.17774418E+00 -1.68013059E+00  4.67931558E+00  1.17774418E+00 -1.68013059E+00
Constraint Structure                       R   N=          42
  2.16486129E+00 -1.36175481E+00 -3.54963724E-06  2.01438757E-01  2.45445715E+00
  1.04360372E-05 -2.29521391E+00 -1.40784664E+00  1.42675144E-05 -4.66360396E+00
  2.24335080E-01 -1.59107162E-05  9.30030060E-02  1.51223018E-01  5.52964599E-06
  4.52840488E+00 -7.78452552E-03 -8.13661513E-06 -2.23112109E+00 -2.65553619E+00
 -1.65105927E+00 -2.23113307E+00 -2.65548620E+00  1.65112683E+00 -4.71423692E+00
  1.44105236E+00 -1.66520984E+00 -6.35366607E+00 -9.63020165E-01 -8.84002842E-05
 -4.71433332E+00  1.44097963E+00  1.66522857E+00  5.97988826E+00 -1.46461469E+00
 -3.93890513E-05  4.67934622E+00  1.17770078E+00  1.68014249E+00  4.67931558E+00
  1.17774418E+00 -1.68013059E+00
Num ILSW                                   I              100
ILSW                                       I   N=         100
           0           1           0           1           2           0
           0           0           0           0           0          -1
           0           0           0           0           0           0
           0           0           0           0           1           0
           1           0           0           0           0           0
           0           0      100000           0          -1           0
           0           0           0           0           0           0
           0           0           0           1           1           0
           0           0           1           0           0           0
           0           0           4          40           0           0
           0           0           0           0           0           0
           0           0           0           0           0           0
           0           0           0           0           0           0
           0           0           0           0           0           0
           0           0           0           0           0           0
           0           0           0           0           0           0
           0           0           0           0
Num RLSW                                   I               40
RLSW                                       R   N=          40
  1.00000000E+00  1.00000000E+00  1.00000000E+00  1.00000000E+00  1.00000000E+00
  0.00000000E+00  0.00000000E+00  1.00000000E+00  0.00000000E+00  0.00000000E+00
  0.00000000E+00  0.00000000E+00  1.00000000E+00  0.00000000E+00  0.00000000E+00
  0.00000000E+00  0.00000000E+00  1.00000000E+00  0.00000000E+00  0.00000000E+00
  0.00000000E+00  0.00000000E+00  1.00000000E+00  0.00000000E+00  0.00000000E+00
  0.00000000E+00  0.00000000E+00  1.00000000E+00  0.00000000E+00  0.00000000E+00
  0.00000000E+00  0.00000000E+00  0.00000000E+00  0.00000000E+00  0.00000000E+00
  0.00000000E+00  0.00000000E+00  0.00000000E+00  1.00000000E+00  1.00000000E+00
MxBond                                     I                4
NBond                                      I   N=          14
           2           1           4           4           3           4
           1           1           1           1           1           1
           1           1
IBond                                      I   N=          56
           5           6           0           0           5           0
           0           0           4           5           7           8
           3           9          10          11           1           2
           3           0           1          12          13          14
           3           0           0           0           3           0
           0           0           4           0           0           0
           4           0           0           0           4           0
           0           0           6           0           0           0
           6           0           0           0           6           0
           0           0
RBond                                      R   N=          56
  1.50000000E+00  1.00000000E+00  0.00000000E+00  0.00000000E+00  2.00000000E+00
  0.00000000E+00  0.00000000E+00  0.00000000E+00  1.00000000E+00  1.00000000E+00
  1.00000000E+00  1.00000000E+00  1.00000000E+00  1.00000000E+00  1.00000000E+00
  1.00000000E+00  1.50000000E+00  2.00000000E+00  1.00000000E+00  0.00000000E+00
  1.00000000E+00  1.00000000E+00  1.00000000E+00  1.00000000E+00  1.00000000E+00
  0.00000000E+00  0.00000000E+00  0.00000000E+00  1.00000000E+00  0.00000000E+00
  0.00000000E+00  0.00000000E+00  1.00000000E+00  0.00000000E+00  0.00000000E+00
  0.00000000E+00  1.00000000E+00  0.00000000E+00  0.00000000E+00  0.00000000E+00
  1.00000000E+00  0.00000000E+00  0.00000000E+00  0.00000000E+00  1.00000000E+00
  0.00000000E+00  0.00000000E+00  0.00000000E+00  1.00000000E+00  0.00000000E+00
  0.00000000E+00  0.00000000E+00  1.00000000E+00  0.00000000E+00  0.00000000E+00
  0.00000000E+00
Virial Ratio                               R      2.002635806714463E+00
SCF Energy                                 R     -3.058685318987099E+02
MP2 Energy                                 R     -3.067396726022350E+02
Total Energy                               R     -3.067396726022350E+02
Post-SCF wavefunction norm                 R      1.593465043196644E+00
RMS Force                                  R      2.602353637597287E-07
RMS Density                                R      1.346979607904960E-09
External E-field                           R   N=          35
  0.00000000E+00  0.00000000E+00  0.00000000E+00  0.00000000E+00  0.00000000E+00
  0.00000000E+00  0.00000000E+00  0.00000000E+00  0.00000000E+00  0.00000000E+00
  0.00000000E+00  0.00000000E+00  0.00000000E+00  0.00000000E+00  0.00000000E+00
  0.00000000E+00  0.00000000E+00  0.00000000E+00  0.00000000E+00  0.00000000E+00
  0.00000000E+00  0.00000000E+00  0.00000000E+00  0.00000000E+00  0.00000000E+00
  0.00000000E+00  0.00000000E+00  0.00000000E+00  0.00000000E+00  0.00000000E+00
  0.00000000E+00  0.00000000E+00  0.00000000E+00  0.00000000E+00  0.00000000E+00
IOpCl                                      I                0
IROHF                                      I                0
Alpha Orbital Energies                     R   N=         106
 -2.06079552E+01 -2.05517371E+01 -1.13819214E+01 -1.12855096E+01 -1.12448932E+01
 -1.12208744E+01 -1.45040652E+00 -1.34890034E+00 -1.06444131E+00 -9.70644858E-01
 -8.76901926E-01 -7.63426604E-01 -6.96251723E-01 -6.73321664E-01 -6.63244753E-01
 -6.19209522E-01 -5.97203575E-01 -5.37126952E-01 -5.34441078E-01 -5.22750688E-01
 -5.16333610E-01 -4.94062624E-01 -4.56302136E-01 -4.41683631E-01  1.84250244E-01
  2.36087036E-01  2.63155028E-01  2.91614467E-01  3.02777459E-01  3.03117566E-01
  3.14143079E-01  3.25713033E-01  3.26391684E-01  3.58813904E-01  4.07825091E-01
  4.37783253E-01  5.03851024E-01  5.42732625E-01  7.17571068E-01  7.25691412E-01
  7.46930763E-01  7.62259011E-01  7.90666289E-01  8.03322462E-01  8.10370552E-01
  9.00147288E-01  9.07595601E-01  9.60176059E-01  9.77776272E-01  9.86699938E-01
  1.05918294E+00  1.11268566E+00  1.11655808E+00  1.12429384E+00  1.13232792E+00
  1.16872945E+00  1.17552298E+00  1.18658153E+00  1.20100365E+00  1.22066763E+00
  1.24041044E+00  1.28977441E+00  1.31959418E+00  1.36570727E+00  1.39199886E+00
  1.53743870E+00  1.62352187E+00  1.65829023E+00  1.68061023E+00  1.77322620E+00
  1.79130050E+00  1.80163362E+00  1.89684138E+00  1.97420506E+00  2.06440612E+00
  2.07520986E+00  2.11959357E+00  2.17965968E+00  2.18924856E+00  2.26167096E+00
  2.27679267E+00  2.31859515E+00  2.35441876E+00  2.38297172E+00  2.42739141E+00
  2.47076434E+00  2.55353916E+00  2.61643131E+00  2.64061945E+00  2.65143368E+00
  2.67942901E+00  2.74558787E+00  2.78783183E+00  2.87043025E+00  3.00270460E+00
  3.01738072E+00  3.09585727E+00  3.30219697E+00  3.40420034E+00  3.50740035E+00
  4.38623864E+00  4.53352748E+00  4.58170326E+00  4.68949032E+00  4.75222643E+00
  4.94335377E+00
Alpha MO coefficients                      R   N=       11236
  9.94648298E-01  2.12085254E-02  5.23768744E-06  1.22950679E-03  2.57717880E-09
  3.92621923E-03 -1.95430987E-04 -7.07401584E-04 -8.01003730E-10 -4.18791126E-03
 -4.06776225E-03 -3.91199064E-03 -5.02822924E-05  8.33615042E-10 -1.16758793E-10
 -2.88435758E-04  4.47510762E-05 -2.17494095E-05  2.98270042E-05  3.20692792E-10
 -3.63339254E-04 -8.84201838E-05  9.91456632E-05 -1.84009594E-10  2.60651535E-05
 -1.10305106E-05  1.17122022E-05  6.95066376E-05  1.02403780E-10 -1.91935743E-10
 -4.81432418E-06  2.62013344E-05  1.72604671E-05 -1.58142051E-05  6.12453188E-10
  4.57854948E-04 -2.66512627E-04  2.20723506E-04 -4.71847640E-09 -7.81558755E-05
  1.09809364E-06 -3.02821733E-05 -1.97080564E-05  7.73407444E-10 -6.48715001E-10
  7.49073766E-06  4.24826860E-05 -1.10103208E-05  3.33246996E-06  3.97709499E-10
 -4.02947475E-04 -1.54067627E-04  1.08386954E-04 -4.33752305E-09 -5.37336722E-06
  9.85882969E-06  1.05499640E-05  5.51041953E-06 -2.04099165E-10 -3.00596408E-10
 -8.43681389E-07  3.71909291E-04  2.71413644E-04 -1.84163564E-04 -1.00572630E-09
 -4.50897401E-05  1.73368090E-04  3.79959722E-04  1.20659738E-09 -4.01051706E-05
 -1.76179101E-05 -5.18161765E-05  5.58591569E-05 -1.06554469E-10 -1.63060511E-10
 -1.24976906E-05  2.07606911E-04 -3.51461552E-04 -2.06271431E-04  7.95644982E-10
  8.66454355E-05  6.18137963E-05  2.07327540E-04 -5.04968080E-10  1.11557985E-04
 -1.77259170E-05 -2.32417491E-05  8.96110715E-05 -5.81591441E-11 -8.08284049E-10
  3.06683452E-05 -3.45862582E-05  3.06668779E-05 -3.45803016E-05  1.68313174E-05
 -3.23167732E-06  1.45133114E-05  8.97445878E-06  1.68317762E-05 -3.22857180E-06
  8.68779866E-06 -4.99635106E-05 -3.35200621E-05 -1.14659336E-04 -3.35208285E-05
 -1.14661323E-04  2.89048343E-04 -6.02374242E-05  1.49962424E-05 -3.71349205E-05
 -3.26205179E-10  2.48816594E-04 -1.17074184E-04  7.78585301E-05  1.56480585E-09
  7.11475591E-05 -1.06097527E-04 -7.85052669E-05  9.25355777E-06 -4.19141116E-10
  3.40157904E-11  9.94694556E-01  2.10035560E-02 -4.10309503E-05 -1.56712261E-03
 -3.78590659E-09  4.35713183E-03  1.38513884E-05  6.18592882E-05  1.42997371E-10
 -3.89820821E-03 -3.59048437E-03 -4.13096818E-03  2.19627149E-05 -6.28852787E-10
  1.28599012E-09 -4.20324398E-06 -2.86183519E-05  1.45254178E-05 -2.15088200E-05
 -3.03583432E-10  1.35229699E-04 -9.58296123E-05  5.54761223E-05  2.43667710E-09
  6.11172397E-05 -5.25991912E-05 -1.98268144E-05 -2.48566340E-05 -6.13844383E-10
 -1.71230721E-10  6.07011038E-06  3.41492024E-05  1.38485932E-05  1.91295874E-05
  1.35412744E-09 -1.33815290E-04 -1.53892760E-04 -1.35304319E-05 -9.73733909E-09
  4.86142276E-07 -3.92413662E-06  6.09526096E-06  1.42625297E-05  1.86361039E-10
  6.58722336E-10 -3.85133460E-06  4.98763430E-04 -1.42293237E-05 -5.21160457E-05
  1.78347187E-10 -4.46762130E-04 -1.07602021E-04 -3.01837279E-04 -1.98161415E-09
 -7.53730097E-05 -8.15253110E-04 -3.69008509E-05 -1.80231090E-05  1.67948922E-10
 -1.84134964E-09 -2.95389732E-06  2.02061103E-05  5.85128981E-06  1.84556668E-05
  3.80785482E-10  9.04853612E-05  7.03548678E-05 -6.35922046E-05 -3.00635647E-09
 -3.38722498E-05 -2.42077164E-05 -1.49159493E-05 -7.30542779E-06 -3.30573345E-11
  1.22548619E-10  4.24131314E-06 -2.55157218E-05  4.24042998E-06 -2.55167292E-05
  3.03050692E-05 -2.24077982E-05 -6.30289359E-06 -5.91973566E-05  3.03034443E-05
 -2.23952663E-05 -1.02564876E-05 -6.18555491E-05  2.29735520E-05 -4.45988115E-05
  2.29739174E-05 -4.46033360E-05 -6.18054250E-05  7.82737141E-04 -7.44375103E-05
  2.00429287E-04  8.32320156E-10 -2.20377714E-03  7.47457645E-04 -1.80860384E-03
 -6.15714304E-09 -3.03635001E-04 -1.13357040E-04  6.05357264E-04  4.74647295E-04
  4.25824582E-09 -2.90956112E-09 -2.71257948E-04  6.47119280E-04  4.96507063E-05
 -2.95823110E-04 -9.54011807E-10 -3.08784799E-03 -6.66399522E-04  1.75396406E-03
  7.11648851E-09  2.11563477E-04  3.22627629E-05  4.41184418E-04  1.61988176E-04
  8.72273598E-10 -1.84774072E-09  2.20221700E-03  1.81703180E-04 -8.88487637E-05
 -7.57371861E-05  2.81271044E-09  3.11181293E-03  2.05099053E-03  8.11343453E-04
 -2.59435054E-08 -4.35988480E-04 -2.56133312E-04 -8.60848173E-05 -1.39904004E-04
  1.42805450E-09  2.06628608E-09 -5.85655460E-05 -2.26596912E-04 -9.40990504E-05
 -2.50350330E-05 -4.56155675E-09  6.39615811E-04  5.87965620E-04 -9.37660465E-05
  3.85811180E-08  3.23996243E-05  5.83948417E-06 -7.87250925E-05 -2.44697872E-05
  3.05973510E-10 -2.19067368E-09  9.95898498E-01  2.59098394E-02  1.03742391E-03
 -4.04152379E-05 -2.30256461E-09 -5.78095391E-03  2.90644042E-03  2.65843219E-03
 -2.58591848E-09 -1.12763291E-03 -4.84529278E-04 -2.26511416E-03 -1.77242033E-04
 -5.26529314E-09  4.43855294E-09 -6.40006211E-05 -1.67077004E-04 -1.43045723E-04
 -8.08659398E-05  6.75893446E-10  5.43201740E-04 -4.88931315E-04  2.64327483E-04
 -5.00747985E-10  2.69387473E-04 -5.39308948E-05  6.49409055E-05  5.04806262E-05
  1.55971097E-10 -2.19097527E-09 -1.36510059E-04  2.66371980E-04 -1.36507254E-04
  2.66393935E-04 -7.84902400E-05  2.42435702E-05 -6.47252688E-06  2.96376540E-04
 -7.84861462E-05  2.41997471E-05  5.69238239E-05  5.63358556E-05 -1.22912159E-04
 -6.23440797E-05 -1.22914833E-04 -6.23503431E-05 -1.11236306E-04  3.30609736E-04
  1.76980926E-04  1.71249884E-04 -5.09669462E-10  4.86935619E-04 -2.08543462E-04
 -7.78094997E-04  1.29541202E-09 -5.88996709E-04 -2.23992006E-04  1.89794018E-04
 -3.65194702E-04  2.60732003E-09  2.76726171E-10 -4.74570715E-06 -4.03113167E-05
 -4.40417771E-05  5.17686555E-05 -6.42179321E-10 -4.65934365E-04 -1.22792127E-04
  5.45713264E-05  3.76980824E-09  5.86122933E-05 -3.42831768E-05 -1.18879200E-04
  7.77259906E-06  4.09608693E-10 -1.13969263E-10  1.74316009E-05 -1.01721637E-04
  1.08332473E-04 -6.62502497E-06  6.86641558E-10  1.78042544E-03  9.33959967E-05
  6.91938232E-04 -1.07269966E-08 -1.70631314E-05  2.45226674E-06 -4.10416537E-05
 -5.58083187E-06  1.09969176E-09 -1.07278444E-09 -1.07037014E-05  1.11307824E-05
 -6.97792346E-05 -3.75034081E-06 -1.80865955E-09 -4.94518631E-04 -1.99585607E-05
  2.76286090E-04  7.24851732E-09 -1.89589503E-05 -1.11045830E-05 -8.28057132E-06
  1.95002549E-05 -1.32341679E-09 -8.87041229E-10  6.09200177E-05 -2.40104378E-04
 -8.96001966E-05 -7.23652802E-05 -3.17712676E-10  2.66485406E-04  2.15920103E-03
  8.92856612E-04 -3.71575734E-09  2.28492174E-04  9.15063414E-05 -4.31404189E-05
 -3.54906583E-05 -9.20914988E-10 -2.61421625E-11  9.95808333E-01  2.75820179E-02
 -1.07092210E-03 -4.52906753E-04  4.90530869E-09 -1.22595753E-02  4.95714709E-04
 -6.12404704E-04 -1.32792430E-08 -1.59880704E-03 -1.60661884E-03 -1.70063192E-03
  5.36097441E-05 -9.52528337E-10  1.21524505E-09 -4.55290080E-06  6.65369431E-06
 -4.55428169E-06  6.65993241E-06 -1.66469124E-06 -3.33511359E-05  3.06106353E-05
  1.80983582E-04 -1.66281654E-06 -3.33605333E-05 -1.21272240E-05  1.97212850E-03
  1.61025703E-04  2.47015459E-03  1.61027799E-04  2.47014576E-03 -3.09637680E-05
 -2.56613345E-04  9.81361955E-05 -4.97176251E-06 -7.66600277E-10  8.37360859E-04
 -5.31220407E-04  2.09175796E-04  4.86616870E-09  1.38934085E-05 -5.39853877E-05
 -2.03352070E-04 -2.84141762E-05 -1.85125741E-09  2.08497397E-10  7.42246393E-06
 -3.75123632E-05  3.64381137E-06  8.53574994E-07 -1.26185789E-09 -1.89777745E-04
  5.40429374E-04 -6.90217333E-05  2.84706232E-09  2.52751714E-05  1.37728212E-04
 -8.14400680E-05 -9.15371139E-05 -1.72928762E-09  1.54785502E-10  9.95762261E-01
  2.88970743E-02  2.70568311E-04  1.41704057E-04  3.17995787E-09 -1.86326652E-02
 -7.12811525E-04 -1.45731801E-03  7.84244630E-09 -1.62437858E-03 -1.70279307E-03
 -1.58213447E-03 -3.11475120E-05 -9.73044581E-10  2.68046674E-09  1.25194099E-02
  4.24259302E-04  1.20933930E-04 -8.20315320E-06  4.97312971E-09  4.01505093E-03
  1.47385077E-03 -1.15984771E-03 -3.74606393E-09 -3.56377438E-04 -2.78540547E-04
 -9.12152861E-05  1.87002425E-04 -3.05818345E-09  2.92780833E-09 -2.52738482E-03