8375                                                                    
Freq      RMP2-FC                                                     6-31G(d)            
Number of atoms                            I               18
Info1-9                                    I   N=           9
          30          28        1002           0           0         100
           6           2           1
Charge                                     I                0
Multiplicity                               I                1
Number of electrons                        I               72
Number of alpha electrons                  I               36
Number of beta electrons                   I               36
Number of basis functions                  I              166
Number of independent functions            I              166
Number of point charges in /Mol/           I                0
Number of translation vectors              I                0
Atomic numbers                             I   N=          18
           8           8           6           6           6           6
           6           6           6           6           1           1
           1           1           1           1           1           1
Nuclear charges                            R   N=          18
  8.00000000E+00  8.00000000E+00  6.00000000E+00  6.00000000E+00  6.00000000E+00
  6.00000000E+00  6.00000000E+00  6.00000000E+00  6.00000000E+00  6.00000000E+00
  1.00000000E+00  1.00000000E+00  1.00000000E+00  1.00000000E+00  1.00000000E+00
  1.00000000E+00  1.00000000E+00  1.00000000E+00
Current cartesian coordinates              R   N=          54
 -9.11842528E-03  4.10859636E+00  4.11673307E-01  4.28271773E+00  1.71676663E+00
 -1.11887559E+00  4.18759112E-01 -3.56637369E-01 -7.86836455E-02 -1.13344149E+00
  1.79758938E+00  1.50138115E-01 -7.44052317E-01 -2.73134481E+00 -2.70743824E-01
  3.23782021E+00 -1.39003063E-01 -1.91085883E-01 -3.76388041E+00  1.52932495E+00
  1.88202920E-01 -3.36404247E+00 -2.99431519E+00 -2.64561729E-01 -4.87588888E+00
 -8.47095716E-01 -3.64384460E-02  4.77612218E+00 -2.31445556E+00  8.67530427E-01
  4.27554156E-01 -4.40822118E+00 -4.49560976E-01 -4.94692583E+00  3.20363637E+00
  3.81634220E-01 -4.21644747E+00 -4.85375548E+00 -4.40930526E-01 -6.92384597E+00
 -1.01224943E+00 -1.78061293E-02  4.08544239E+00 -2.88712131E+00  2.72879866E+00
  6.74189237E+00 -1.70592532E+00  9.91623444E-01  4.67495088E+00 -3.96100383E+00
 -3.81303960E-01 -1.33979063E+00  5.35736054E+00  6.59015892E-01
Force Field                                I                0
Int Atom Types                             I   N=          18
           0           0           0           0           0           0
           0           0           0           0           0           0
           0           0           0           0           0           0
MM charges                                 R   N=          18
  0.00000000E+00  0.00000000E+00  0.00000000E+00  0.00000000E+00  0.00000000E+00
  0.00000000E+00  0.00000000E+00  0.00000000E+00  0.00000000E+00  0.00000000E+00
  0.00000000E+00  0.00000000E+00  0.00000000E+00  0.00000000E+00  0.00000000E+00
  0.00000000E+00  0.00000000E+00  0.00000000E+00
Integer atomic weights                     I   N=          18
          16          16          12          12          12          12
          12          12          12          12           1           1
           1           1           1           1           1           1
Real atomic weights                        R   N=          18
  1.59949146E+01  1.59949146E+01  1.20000000E+01  1.20000000E+01  1.20000000E+01
  1.20000000E+01  1.20000000E+01  1.20000000E+01  1.20000000E+01  1.20000000E+01
  1.00782504E+00  1.00782504E+00  1.00782504E+00  1.00782504E+00  1.00782504E+00
  1.00782504E+00  1.00782504E+00  1.00782504E+00
Atom fragment info                         I   N=          18
           0           0           0           0           0           0
           0           0           0           0           0           0
           0           0           0           0           0           0
Atom residue num                           I   N=          18
           0           0           0           0           0           0
           0           0           0           0           0           0
           0           0           0           0           0           0
Nuclear spins                              I   N=          18
           0           0           0           0           0           0
           0           0           0           0           1           1
           1           1           1           1           1           1
Nuclear ZEff                               R   N=          18
 -5.60000000E+00 -5.60000000E+00 -3.60000000E+00 -3.60000000E+00 -3.60000000E+00
 -3.60000000E+00 -3.60000000E+00 -3.60000000E+00 -3.60000000E+00 -3.60000000E+00
 -1.00000000E+00 -1.00000000E+00 -1.00000000E+00 -1.00000000E+00 -1.00000000E+00
 -1.00000000E+00 -1.00000000E+00 -1.00000000E+00
Nuclear QMom                               R   N=          18
  0.00000000E+00  0.00000000E+00  0.00000000E+00  0.00000000E+00  0.00000000E+00
  0.00000000E+00  0.00000000E+00  0.00000000E+00  0.00000000E+00  0.00000000E+00
  0.00000000E+00  0.00000000E+00  0.00000000E+00  0.00000000E+00  0.00000000E+00
  0.00000000E+00  0.00000000E+00  0.00000000E+00
Nuclear GFac                               R   N=          18
  0.00000000E+00  0.00000000E+00  0.00000000E+00  0.00000000E+00  0.00000000E+00
  0.00000000E+00  0.00000000E+00  0.00000000E+00  0.00000000E+00  0.00000000E+00
  2.79284600E+00  2.79284600E+00  2.79284600E+00  2.79284600E+00  2.79284600E+00
  2.79284600E+00  2.79284600E+00  2.79284600E+00
MicOpt                                     I   N=          18
          -1          -1          -1          -1          -1          -1
          -1          -1          -1          -1          -1          -1
          -1          -1          -1          -1          -1          -1
Number of contracted shells                I               56
Number of primitive shells                 I              142
Pure/Cartesian d shells                    I                1
Pure/Cartesian f shells                    I                0
Highest angular momentum                   I                2
Largest degree of contraction              I                6
Shell types                                I   N=          56
           0          -1          -1           2           0          -1
          -1           2           0          -1          -1           2
           0          -1          -1           2           0          -1
          -1           2           0          -1          -1           2
           0          -1          -1           2           0          -1
          -1           2           0          -1          -1           2
           0          -1          -1           2           0           0
           0           0           0           0           0           0
           0           0           0           0           0           0
           0           0
Number of primitives per shell             I   N=          56
           6           3           1           1           6           3
           1           1           6           3           1           1
           6           3           1           1           6           3
           1           1           6           3           1           1
           6           3           1           1           6           3
           1           1           6           3           1           1
           6           3           1           1           3           1
           3           1           3           1           3           1
           3           1           3           1           3           1
           3           1
Shell to atom map                          I   N=          56
           1           1           1           1           2           2
           2           2           3           3           3           3
           4           4           4           4           5           5
           5           5           6           6           6           6
           7           7           7           7           8           8
           8           8           9           9           9           9
          10          10          10          10          11          11
          12          12          13          13          14          14
          15          15          16          16          17          17
          18          18
Primitive exponents                        R   N=         142
  5.48467166E+03  8.25234946E+02  1.88046958E+02  5.29645000E+01  1.68975704E+01
  5.79963534E+00  1.55396162E+01  3.59993359E+00  1.01376175E+00  2.70005823E-01
  8.00000000E-01  5.48467166E+03  8.25234946E+02  1.88046958E+02  5.29645000E+01
  1.68975704E+01  5.79963534E+00  1.55396162E+01  3.59993359E+00  1.01376175E+00
  2.70005823E-01  8.00000000E-01  3.04752488E+03  4.57369518E+02  1.03948685E+02
  2.92101553E+01  9.28666296E+00  3.16392696E+00  7.86827235E+00  1.88128854E+00
  5.44249258E-01  1.68714478E-01  8.00000000E-01  3.04752488E+03  4.57369518E+02
  1.03948685E+02  2.92101553E+01  9.28666296E+00  3.16392696E+00  7.86827235E+00
  1.88128854E+00  5.44249258E-01  1.68714478E-01  8.00000000E-01  3.04752488E+03
  4.57369518E+02  1.03948685E+02  2.92101553E+01  9.28666296E+00  3.16392696E+00
  7.86827235E+00  1.88128854E+00  5.44249258E-01  1.68714478E-01  8.00000000E-01
  3.04752488E+03  4.57369518E+02  1.03948685E+02  2.92101553E+01  9.28666296E+00
  3.16392696E+00  7.86827235E+00  1.88128854E+00  5.44249258E-01  1.68714478E-01
  8.00000000E-01  3.04752488E+03  4.57369518E+02  1.03948685E+02  2.92101553E+01
  9.28666296E+00  3.16392696E+00  7.86827235E+00  1.88128854E+00  5.44249258E-01
  1.68714478E-01  8.00000000E-01  3.04752488E+03  4.57369518E+02  1.03948685E+02
  2.92101553E+01  9.28666296E+00  3.16392696E+00  7.86827235E+00  1.88128854E+00
  5.44249258E-01  1.68714478E-01  8.00000000E-01  3.04752488E+03  4.57369518E+02
  1.03948685E+02  2.92101553E+01  9.28666296E+00  3.16392696E+00  7.86827235E+00
  1.88128854E+00  5.44249258E-01  1.68714478E-01  8.00000000E-01  3.04752488E+03
  4.57369518E+02  1.03948685E+02  2.92101553E+01  9.28666296E+00  3.16392696E+00
  7.86827235E+00  1.88128854E+00  5.44249258E-01  1.68714478E-01  8.00000000E-01
  1.87311370E+01  2.82539436E+00  6.40121692E-01  1.61277759E-01  1.87311370E+01
  2.82539436E+00  6.40121692E-01  1.61277759E-01  1.87311370E+01  2.82539436E+00
  6.40121692E-01  1.61277759E-01  1.87311370E+01  2.82539436E+00  6.40121692E-01
  1.61277759E-01  1.87311370E+01  2.82539436E+00  6.40121692E-01  1.61277759E-01
  1.87311370E+01  2.82539436E+00  6.40121692E-01  1.61277759E-01  1.87311370E+01
  2.82539436E+00  6.40121692E-01  1.61277759E-01  1.87311370E+01  2.82539436E+00
  6.40121692E-01  1.61277759E-01
Contraction coefficients                   R   N=         142
  1.83107443E-03  1.39501722E-02  6.84450781E-02  2.32714336E-01  4.70192898E-01
  3.58520853E-01 -1.10777550E-01 -1.48026263E-01  1.13076702E+00  1.00000000E+00
  1.00000000E+00  1.83107443E-03  1.39501722E-02  6.84450781E-02  2.32714336E-01
  4.70192898E-01  3.58520853E-01 -1.10777550E-01 -1.48026263E-01  1.13076702E+00
  1.00000000E+00  1.00000000E+00  1.83473713E-03  1.40373228E-02  6.88426223E-02
  2.32184443E-01  4.67941348E-01  3.62311985E-01 -1.19332420E-01 -1.60854152E-01
  1.14345644E+00  1.00000000E+00  1.00000000E+00  1.83473713E-03  1.40373228E-02
  6.88426223E-02  2.32184443E-01  4.67941348E-01  3.62311985E-01 -1.19332420E-01
 -1.60854152E-01  1.14345644E+00  1.00000000E+00  1.00000000E+00  1.83473713E-03
  1.40373228E-02  6.88426223E-02  2.32184443E-01  4.67941348E-01  3.62311985E-01
 -1.19332420E-01 -1.60854152E-01  1.14345644E+00  1.00000000E+00  1.00000000E+00
  1.83473713E-03  1.40373228E-02  6.88426223E-02  2.32184443E-01  4.67941348E-01
  3.62311985E-01 -1.19332420E-01 -1.60854152E-01  1.14345644E+00  1.00000000E+00
  1.00000000E+00  1.83473713E-03  1.40373228E-02  6.88426223E-02  2.32184443E-01
  4.67941348E-01  3.62311985E-01 -1.19332420E-01 -1.60854152E-01  1.14345644E+00
  1.00000000E+00  1.00000000E+00  1.83473713E-03  1.40373228E-02  6.88426223E-02
  2.32184443E-01  4.67941348E-01  3.62311985E-01 -1.19332420E-01 -1.60854152E-01
  1.14345644E+00  1.00000000E+00  1.00000000E+00  1.83473713E-03  1.40373228E-02
  6.88426223E-02  2.32184443E-01  4.67941348E-01  3.62311985E-01 -1.19332420E-01
 -1.60854152E-01  1.14345644E+00  1.00000000E+00  1.00000000E+00  1.83473713E-03
  1.40373228E-02  6.88426223E-02  2.32184443E-01  4.67941348E-01  3.62311985E-01
 -1.19332420E-01 -1.60854152E-01  1.14345644E+00  1.00000000E+00  1.00000000E+00
  3.34946043E-02  2.34726953E-01  8.13757326E-01  1.00000000E+00  3.34946043E-02
  2.34726953E-01  8.13757326E-01  1.00000000E+00  3.34946043E-02  2.34726953E-01
  8.13757326E-01  1.00000000E+00  3.34946043E-02  2.34726953E-01  8.13757326E-01
  1.00000000E+00  3.34946043E-02  2.34726953E-01  8.13757326E-01  1.00000000E+00
  3.34946043E-02  2.34726953E-01  8.13757326E-01  1.00000000E+00  3.34946043E-02
  2.34726953E-01  8.13757326E-01  1.00000000E+00  3.34946043E-02  2.34726953E-01
  8.13757326E-01  1.00000000E+00
P(S=P) Contraction coefficients            R   N=         142
  0.00000000E+00  0.00000000E+00  0.00000000E+00  0.00000000E+00  0.00000000E+00
  0.00000000E+00  7.08742682E-02  3.39752839E-01  7.27158577E-01  1.00000000E+00
  0.00000000E+00  0.00000000E+00  0.00000000E+00  0.00000000E+00  0.00000000E+00
  0.00000000E+00  0.00000000E+00  7.08742682E-02  3.39752839E-01  7.27158577E-01
  1.00000000E+00  0.00000000E+00  0.00000000E+00  0.00000000E+00  0.00000000E+00
  0.00000000E+00  0.00000000E+00  0.00000000E+00  6.89990666E-02  3.16423961E-01
  7.44308291E-01  1.00000000E+00  0.00000000E+00  0.00000000E+00  0.00000000E+00
  0.00000000E+00  0.00000000E+00  0.00000000E+00  0.00000000E+00  6.89990666E-02
  3.16423961E-01  7.44308291E-01  1.00000000E+00  0.00000000E+00  0.00000000E+00
  0.00000000E+00  0.00000000E+00  0.00000000E+00  0.00000000E+00  0.00000000E+00
  6.89990666E-02  3.16423961E-01  7.44308291E-01  1.00000000E+00  0.00000000E+00
  0.00000000E+00  0.00000000E+00  0.00000000E+00  0.00000000E+00  0.00000000E+00
  0.00000000E+00  6.89990666E-02  3.16423961E-01  7.44308291E-01  1.00000000E+00
  0.00000000E+00  0.00000000E+00  0.00000000E+00  0.00000000E+00  0.00000000E+00
  0.00000000E+00  0.00000000E+00  6.89990666E-02  3.16423961E-01  7.44308291E-01
  1.00000000E+00  0.00000000E+00  0.00000000E+00  0.00000000E+00  0.00000000E+00
  0.00000000E+00  0.00000000E+00  0.00000000E+00  6.89990666E-02  3.16423961E-01
  7.44308291E-01  1.00000000E+00  0.00000000E+00  0.00000000E+00  0.00000000E+00
  0.00000000E+00  0.00000000E+00  0.00000000E+00  0.00000000E+00  6.89990666E-02
  3.16423961E-01  7.44308291E-01  1.00000000E+00  0.00000000E+00  0.00000000E+00
  0.00000000E+00  0.00000000E+00  0.00000000E+00  0.00000000E+00  0.00000000E+00
  6.89990666E-02  3.16423961E-01  7.44308291E-01  1.00000000E+00  0.00000000E+00
  0.00000000E+00  0.00000000E+00  0.00000000E+00  0.00000000E+00  0.00000000E+00
  0.00000000E+00  0.00000000E+00  0.00000000E+00  0.00000000E+00  0.00000000E+00
  0.00000000E+00  0.00000000E+00  0.00000000E+00  0.00000000E+00  0.00000000E+00
  0.00000000E+00  0.00000000E+00  0.00000000E+00  0.00000000E+00  0.00000000E+00
  0.00000000E+00  0.00000000E+00  0.00000000E+00  0.00000000E+00  0.00000000E+00
  0.00000000E+00  0.00000000E+00  0.00000000E+00  0.00000000E+00  0.00000000E+00
  0.00000000E+00  0.00000000E+00
Coordinates of each shell                  R   N=         168
 -9.11842528E-03  4.10859636E+00  4.11673307E-01 -9.11842528E-03  4.10859636E+00
  4.11673307E-01 -9.11842528E-03  4.10859636E+00  4.11673307E-01 -9.11842528E-03
  4.10859636E+00  4.11673307E-01  4.28271773E+00  1.71676663E+00 -1.11887559E+00
  4.28271773E+00  1.71676663E+00 -1.11887559E+00  4.28271773E+00  1.71676663E+00
 -1.11887559E+00  4.28271773E+00  1.71676663E+00 -1.11887559E+00  4.18759112E-01
 -3.56637369E-01 -7.86836455E-02  4.18759112E-01 -3.56637369E-01 -7.86836455E-02
  4.18759112E-01 -3.56637369E-01 -7.86836455E-02  4.18759112E-01 -3.56637369E-01
 -7.86836455E-02 -1.13344149E+00  1.79758938E+00  1.50138115E-01 -1.13344149E+00
  1.79758938E+00  1.50138115E-01 -1.13344149E+00  1.79758938E+00  1.50138115E-01
 -1.13344149E+00  1.79758938E+00  1.50138115E-01 -7.44052317E-01 -2.73134481E+00
 -2.70743824E-01 -7.44052317E-01 -2.73134481E+00 -2.70743824E-01 -7.44052317E-01
 -2.73134481E+00 -2.70743824E-01 -7.44052317E-01 -2.73134481E+00 -2.70743824E-01
  3.23782021E+00 -1.39003063E-01 -1.91085883E-01  3.23782021E+00 -1.39003063E-01
 -1.91085883E-01  3.23782021E+00 -1.39003063E-01 -1.91085883E-01  3.23782021E+00
 -1.39003063E-01 -1.91085883E-01 -3.76388041E+00  1.52932495E+00  1.88202920E-01
 -3.76388041E+00  1.52932495E+00  1.88202920E-01 -3.76388041E+00  1.52932495E+00
  1.88202920E-01 -3.76388041E+00  1.52932495E+00  1.88202920E-01 -3.36404247E+00
 -2.99431519E+00 -2.64561729E-01 -3.36404247E+00 -2.99431519E+00 -2.64561729E-01
 -3.36404247E+00 -2.99431519E+00 -2.64561729E-01 -3.36404247E+00 -2.99431519E+00
 -2.64561729E-01 -4.87588888E+00 -8.47095716E-01 -3.64384460E-02 -4.87588888E+00
 -8.47095716E-01 -3.64384460E-02 -4.87588888E+00 -8.47095716E-01 -3.64384460E-02
 -4.87588888E+00 -8.47095716E-01 -3.64384460E-02  4.77612218E+00 -2.31445556E+00
  8.67530427E-01  4.77612218E+00 -2.31445556E+00  8.67530427E-01  4.77612218E+00
 -2.31445556E+00  8.67530427E-01  4.77612218E+00 -2.31445556E+00  8.67530427E-01
  4.27554156E-01 -4.40822118E+00 -4.49560976E-01  4.27554156E-01 -4.40822118E+00
 -4.49560976E-01 -4.94692583E+00  3.20363637E+00  3.81634220E-01 -4.94692583E+00
  3.20363637E+00  3.81634220E-01 -4.21644747E+00 -4.85375548E+00 -4.40930526E-01
 -4.21644747E+00 -4.85375548E+00 -4.40930526E-01 -6.92384597E+00 -1.01224943E+00
 -1.78061293E-02 -6.92384597E+00 -1.01224943E+00 -1.78061293E-02  4.08544239E+00
 -2.88712131E+00  2.72879866E+00  4.08544239E+00 -2.88712131E+00  2.72879866E+00
  6.74189237E+00 -1.70592532E+00  9.91623444E-01  6.74189237E+00 -1.70592532E+00
  9.91623444E-01  4.67495088E+00 -3.96100383E+00 -3.81303960E-01  4.67495088E+00
 -3.96100383E+00 -3.81303960E-01 -1.33979063E+00  5.35736054E+00  6.59015892E-01
 -1.33979063E+00  5.35736054E+00  6.59015892E-01
Constraint Structure                       R   N=          54
 -9.11842528E-03  4.10859636E+00  4.11673307E-01  4.28271773E+00  1.71676663E+00
 -1.11887559E+00  4.18759112E-01 -3.56637369E-01 -7.86836455E-02 -1.13344149E+00
  1.79758938E+00  1.50138115E-01 -7.44052317E-01 -2.73134481E+00 -2.70743824E-01
  3.23782021E+00 -1.39003063E-01 -1.91085883E-01 -3.76388041E+00  1.52932495E+00
  1.88202920E-01 -3.36404247E+00 -2.99431519E+00 -2.64561729E-01 -4.87588888E+00
 -8.47095716E-01 -3.64384460E-02  4.77612218E+00 -2.31445556E+00  8.67530427E-01
  4.27554156E-01 -4.40822118E+00 -4.49560976E-01 -4.94692583E+00  3.20363637E+00
  3.81634220E-01 -4.21644747E+00 -4.85375548E+00 -4.40930526E-01 -6.92384597E+00
 -1.01224943E+00 -1.78061293E-02  4.08544239E+00 -2.88712131E+00  2.72879866E+00
  6.74189237E+00 -1.70592532E+00  9.91623444E-01  4.67495088E+00 -3.96100383E+00
 -3.81303960E-01 -1.33979063E+00  5.35736054E+00  6.59015892E-01
Num ILSW                                   I              100
ILSW                                       I   N=         100
           0           1           0           0           2           0
           0           0           0           0           0          -1
           0           0           0           0           0           0
           0           0           0           0           1           0
           1           0           0           0           0           0
           0           0      100000           0          -1           0
           0           0           0           0           0           0
           0           0           0           1           1           0
           0           0           1           0           0           0
           0           0           4          40           0           0
           0           0           0           0           0           0
           0           0           0           0           0           0
           0           0           0           0           0           0
           0           0           0           0           0           0
           0           0           0           0           0           0
           0           0           0           0           0           0
           0           0           0           0
Num RLSW                                   I               40
RLSW                                       R   N=          40
  1.00000000E+00  1.00000000E+00  1.00000000E+00  1.00000000E+00  1.00000000E+00
  0.00000000E+00  0.00000000E+00  1.00000000E+00  0.00000000E+00  0.00000000E+00
  0.00000000E+00  0.00000000E+00  1.00000000E+00  0.00000000E+00  0.00000000E+00
  0.00000000E+00  0.00000000E+00  1.00000000E+00  0.00000000E+00  0.00000000E+00
  0.00000000E+00  0.00000000E+00  1.00000000E+00  0.00000000E+00  0.00000000E+00
  0.00000000E+00  0.00000000E+00  1.00000000E+00  0.00000000E+00  0.00000000E+00
  0.00000000E+00  0.00000000E+00  0.00000000E+00  0.00000000E+00  0.00000000E+00
  0.00000000E+00  0.00000000E+00  0.00000000E+00  1.00000000E+00  1.00000000E+00
MxBond                                     I                4
NBond                                      I   N=          18
           2           1           3           3           3           3
           3           3           3           4           1           1
           1           1           1           1           1           1
IBond                                      I   N=          72
           4          18           0           0           6           0
           0           0           4           5           6           0
           1           3           7           0           3           8
          11           0           2           3          10           0
           4           9          12           0           5           9
          13           0           7           8          14           0
           6          15          16          17           5           0
           0           0           7           0           0           0
           8           0           0           0           9           0
           0           0          10           0           0           0
          10           0           0           0          10           0
           0           0           1           0           0           0
RBond                                      R   N=          72
  1.50000000E+00  1.00000000E+00  0.00000000E+00  0.00000000E+00  2.00000000E+00
  0.00000000E+00  0.00000000E+00  0.00000000E+00  1.50000000E+00  1.50000000E+00
  1.00000000E+00  0.00000000E+00  1.50000000E+00  1.50000000E+00  1.50000000E+00
  0.00000000E+00  1.50000000E+00  1.50000000E+00  1.00000000E+00  0.00000000E+00
  2.00000000E+00  1.00000000E+00  1.00000000E+00  0.00000000E+00  1.50000000E+00
  1.50000000E+00  1.00000000E+00  0.00000000E+00  1.50000000E+00  1.50000000E+00
  1.00000000E+00  0.00000000E+00  1.50000000E+00  1.50000000E+00  1.00000000E+00
  0.00000000E+00  1.00000000E+00  1.00000000E+00  1.00000000E+00  1.00000000E+00
  1.00000000E+00  0.00000000E+00  0.00000000E+00  0.00000000E+00  1.00000000E+00
  0.00000000E+00  0.00000000E+00  0.00000000E+00  1.00000000E+00  0.00000000E+00
  0.00000000E+00  0.00000000E+00  1.00000000E+00  0.00000000E+00  0.00000000E+00
  0.00000000E+00  1.00000000E+00  0.00000000E+00  0.00000000E+00  0.00000000E+00
  1.00000000E+00  0.00000000E+00  0.00000000E+00  0.00000000E+00  1.00000000E+00
  0.00000000E+00  0.00000000E+00  0.00000000E+00  1.00000000E+00  0.00000000E+00
  0.00000000E+00  0.00000000E+00
Virial Ratio                               R      2.002548340267078E+00
SCF Energy                                 R     -4.573160568438691E+02
MP2 Energy                                 R     -4.586864927602909E+02
Total Energy                               R     -4.586864927602909E+02
Post-SCF wavefunction norm                 R      1.713069065626644E+00
RMS Force                                  R      1.136144328239653E-07
RMS Density                                R      2.056034473986864E-09
External E-field                           R   N=          35
  0.00000000E+00  0.00000000E+00  0.00000000E+00  0.00000000E+00  0.00000000E+00
  0.00000000E+00  0.00000000E+00  0.00000000E+00  0.00000000E+00  0.00000000E+00
  0.00000000E+00  0.00000000E+00  0.00000000E+00  0.00000000E+00  0.00000000E+00
  0.00000000E+00  0.00000000E+00  0.00000000E+00  0.00000000E+00  0.00000000E+00
  0.00000000E+00  0.00000000E+00  0.00000000E+00  0.00000000E+00  0.00000000E+00
  0.00000000E+00  0.00000000E+00  0.00000000E+00  0.00000000E+00  0.00000000E+00
  0.00000000E+00  0.00000000E+00  0.00000000E+00  0.00000000E+00  0.00000000E+00
IOpCl                                      I                0
IROHF                                      I                0
Alpha Orbital Energies                     R   N=         166
 -2.05992937E+01 -2.05421935E+01 -1.13310014E+01 -1.13221621E+01 -1.12598051E+01
 -1.12597073E+01 -1.12469903E+01 -1.12460700E+01 -1.12406546E+01 -1.12309378E+01
 -1.40577970E+00 -1.36238204E+00 -1.15909159E+00 -1.05302840E+00 -1.01512404E+00
 -9.91720334E-01 -8.66695866E-01 -8.43621259E-01 -7.59472650E-01 -7.35871644E-01
 -6.75573906E-01 -6.64335977E-01 -6.32587914E-01 -6.17270442E-01 -6.05627039E-01
 -5.94339487E-01 -5.82454209E-01 -5.69333584E-01 -5.47880916E-01 -5.27357935E-01
 -5.16389963E-01 -4.93771203E-01 -4.72980195E-01 -4.03109100E-01 -3.50791884E-01
 -3.20826468E-01  9.61638289E-02  1.43257277E-01  1.99845895E-01  2.13708715E-01
  2.25716829E-01  2.53878101E-01  2.93305467E-01  3.00825410E-01  3.15173498E-01
  3.22798918E-01  3.59214507E-01  3.70182214E-01  3.95703301E-01  4.31809809E-01
  4.48632850E-01  4.78913509E-01  5.08676718E-01  5.23483539E-01  5.49495111E-01
  5.87711257E-01  6.89258531E-01  7.09246802E-01  7.31067788E-01  7.47951874E-01
  7.48612230E-01  7.67638612E-01  7.92855050E-01  8.07428066E-01  8.13230936E-01
  8.16863311E-01  8.26408474E-01  8.38583739E-01  8.49353172E-01  8.79337756E-01
  8.88148015E-01  9.10508530E-01  9.50101863E-01  9.72761182E-01  9.97094530E-01
  1.01120000E+00  1.03623542E+00  1.07201718E+00  1.08259470E+00  1.09908003E+00
  1.10701775E+00  1.13384165E+00  1.14822610E+00  1.15421156E+00  1.16401873E+00
  1.19659433E+00  1.20952850E+00  1.21064747E+00  1.24329504E+00  1.24776705E+00
  1.27318750E+00  1.29703390E+00  1.30670612E+00  1.33715503E+00  1.34924864E+00
  1.37284205E+00  1.41985994E+00  1.43818879E+00  1.47454653E+00  1.49081099E+00
  1.59386762E+00  1.60320875E+00  1.63629733E+00  1.65958903E+00  1.68854744E+00
  1.71286100E+00  1.72799923E+00  1.75020002E+00  1.76746913E+00  1.78453218E+00
  1.92919308E+00  1.94990253E+00  2.01828409E+00  2.02661395E+00  2.04622763E+00
  2.06323275E+00  2.07710975E+00  2.12048471E+00  2.15914945E+00  2.17689880E+00
  2.20980734E+00  2.21570774E+00  2.24162085E+00  2.27397018E+00  2.29181267E+00
  2.30333421E+00  2.35722660E+00  2.37741410E+00  2.42027475E+00  2.44508720E+00
  2.50166170E+00  2.54523405E+00  2.55306329E+00  2.59791679E+00  2.60697656E+00
  2.62507128E+00  2.63785675E+00  2.70634022E+00  2.72276156E+00  2.77360430E+00
  2.82779910E+00  2.88097910E+00  2.90714499E+00  2.91433119E+00  2.96106708E+00
  2.99806721E+00  3.01782239E+00  3.06447716E+00  3.11031554E+00  3.17046827E+00
  3.21912255E+00  3.26850418E+00  3.34761230E+00  3.37483527E+00  3.57070337E+00
  3.78836819E+00  4.32861272E+00  4.43826063E+00  4.50049573E+00  4.53274970E+00
  4.57544314E+00  4.67319607E+00  4.73170773E+00  4.83272595E+00  4.93870649E+00
  5.18211542E+00
Alpha MO coefficients                      R   N=       27556
  9.94646293E-01  2.11819289E-02 -1.38780648E-03 -2.90752087E-04  5.26035270E-05
  3.96760192E-03  8.61312771E-04 -3.50518518E-05 -6.06706268E-05 -4.10468218E-03
 -4.15672100E-03 -3.90324408E-03  9.29391087E-06  1.03374281E-05 -4.32756699E-05
 -1.02966879E-05  2.33072548E-05 -3.82849631E-05  2.50017478E-05  1.61931722E-05
  7.57811548E-05  5.64075923E-05 -1.27249059E-04 -6.06022586E-06  2.81562025E-05
  5.50525991E-05  6.49866915E-05  2.33833084E-05  2.13919958E-05 -8.48934513E-06
 -1.07200732E-05 -2.55106736E-05  3.18219450E-06 -2.03271081E-05  9.70972637E-06
  9.48378664E-04 -3.34507497E-04  9.19036216E-04 -4.05543136E-06  1.75122792E-05
 -6.31929018E-05 -3.28133601E-05 -2.06947595E-05 -6.94259659E-06 -8.10337184E-06
 -4.90930259E-06  4.05703648E-04  1.67861328E-04  2.81243155E-04  3.06151492E-05
 -5.35203700E-04 -1.25740206E-03  6.34233462E-04  1.26231698E-04 -2.66881245E-05
 -9.32924433E-05 -6.31072156E-05 -1.02347935E-05 -1.54618567E-06 -5.37680307E-06
  1.01991974E-07 -4.55485830E-06  1.47260406E-06  5.69520305E-06 -4.09651207E-06
  2.69149451E-04  2.26322546E-04  8.70510143E-05  4.37259997E-05  2.14037605E-05
  9.48443632E-07 -2.00741239E-07  2.14622188E-05  1.99002111E-06  5.01686758E-06
  1.37395838E-06 -3.88736144E-06 -1.64749061E-05  3.31061586E-05  1.08074001E-05
 -1.02223253E-06  2.38521393E-05 -4.39005085E-04  1.12153067E-04 -1.68883033E-05
  1.78466809E-05  5.49824100E-06 -2.09219794E-05  2.49951228E-05  1.28024624E-05
  4.69819338E-06  7.39760861E-05 -4.05823347E-05 -2.66853317E-05 -4.16828615E-06
 -9.00501514E-04 -3.88510002E-04 -1.52810906E-04 -1.07334784E-05 -4.75246556E-05
 -4.23861447E-05 -8.63254938E-06 -7.08113217E-05 -8.27264339E-06 -2.04974790E-06
  2.89394171E-06  1.95248506E-05  7.97250347E-06 -6.66836729E-07  5.00884701E-07