85053                                                                   
Freq      RMP2-FC                                                     6-31G(d)            
Number of atoms                            I               14
Info1-9                                    I   N=           9
          26          24        1002           0           0         100
           6           2           1
Charge                                     I                0
Multiplicity                               I                1
Number of electrons                        I               60
Number of alpha electrons                  I               30
Number of beta electrons                   I               30
Number of basis functions                  I              123
Number of independent functions            I              123
Number of point charges in /Mol/           I                0
Number of translation vectors              I                0
Atomic numbers                             I   N=          14
          16           7           6           6           6           6
           6           1           1           1           1           1
           1           1
Nuclear charges                            R   N=          14
  1.60000000E+01  7.00000000E+00  6.00000000E+00  6.00000000E+00  6.00000000E+00
  6.00000000E+00  6.00000000E+00  1.00000000E+00  1.00000000E+00  1.00000000E+00
  1.00000000E+00  1.00000000E+00  1.00000000E+00  1.00000000E+00
Current cartesian coordinates              R   N=          42
 -1.57781903E+00 -2.22501034E+00  5.63056229E-02 -3.20591159E-01  2.44759344E+00
 -4.87018491E-01  3.34372246E+00 -4.08327063E-01 -1.09145960E+00  6.11290154E-01
  1.39454182E-01 -5.98239037E-01  4.99372329E+00  3.40049943E-01  1.16350732E+00
 -3.86303252E+00  2.96777542E-02  4.82585083E-01 -2.84194979E+00  2.38913997E+00
  1.13723644E-01  3.58958112E+00 -2.41499992E+00 -1.53624721E+00  3.91046582E+00
  6.65584622E-01 -2.76691593E+00  4.74166167E+00  2.34556802E+00  1.58048982E+00
  6.99098237E+00 -9.49500697E-03  7.60353948E-01  4.46899268E+00 -7.44067315E-01
  2.84287815E+00 -5.79142181E+00 -4.63993686E-01  9.48521276E-01 -3.88354073E+00
  4.14844595E+00  2.58454988E-01
Force Field                                I                0
Int Atom Types                             I   N=          14
           0           0           0           0           0           0
           0           0           0           0           0           0
           0           0
MM charges                                 R   N=          14
  0.00000000E+00  0.00000000E+00  0.00000000E+00  0.00000000E+00  0.00000000E+00
  0.00000000E+00  0.00000000E+00  0.00000000E+00  0.00000000E+00  0.00000000E+00
  0.00000000E+00  0.00000000E+00  0.00000000E+00  0.00000000E+00
Integer atomic weights                     I   N=          14
          32          14          12          12          12          12
          12           1           1           1           1           1
           1           1
Real atomic weights                        R   N=          14
  3.19720718E+01  1.40030740E+01  1.20000000E+01  1.20000000E+01  1.20000000E+01
  1.20000000E+01  1.20000000E+01  1.00782504E+00  1.00782504E+00  1.00782504E+00
  1.00782504E+00  1.00782504E+00  1.00782504E+00  1.00782504E+00
Atom fragment info                         I   N=          14
           0           0           0           0           0           0
           0           0           0           0           0           0
           0           0
Atom residue num                           I   N=          14
           0           0           0           0           0           0
           0           0           0           0           0           0
           0           0
Nuclear spins                              I   N=          14
           0           2           0           0           0           0
           0           1           1           1           1           1
           1           1
Nuclear ZEff                               R   N=          14
 -1.36000000E+01 -4.55000000E+00 -3.60000000E+00 -3.60000000E+00 -3.60000000E+00
 -3.60000000E+00 -3.60000000E+00 -1.00000000E+00 -1.00000000E+00 -1.00000000E+00
 -1.00000000E+00 -1.00000000E+00 -1.00000000E+00 -1.00000000E+00
Nuclear QMom                               R   N=          14
  0.00000000E+00  2.04400000E+00  0.00000000E+00  0.00000000E+00  0.00000000E+00
  0.00000000E+00  0.00000000E+00  0.00000000E+00  0.00000000E+00  0.00000000E+00
  0.00000000E+00  0.00000000E+00  0.00000000E+00  0.00000000E+00
Nuclear GFac                               R   N=          14
  0.00000000E+00  4.03761000E-01  0.00000000E+00  0.00000000E+00  0.00000000E+00
  0.00000000E+00  0.00000000E+00  2.79284600E+00  2.79284600E+00  2.79284600E+00
  2.79284600E+00  2.79284600E+00  2.79284600E+00  2.79284600E+00
MicOpt                                     I   N=          14
          -1          -1          -1          -1          -1          -1
          -1          -1          -1          -1          -1          -1
          -1          -1
Number of contracted shells                I               43
Number of primitive shells                 I              111
Pure/Cartesian d shells                    I                1
Pure/Cartesian f shells                    I                0
Highest angular momentum                   I                2
Largest degree of contraction              I                6
Shell types                                I   N=          43
           0          -1          -1          -1           2           0
          -1          -1           2           0          -1          -1
           2           0          -1          -1           2           0
          -1          -1           2           0          -1          -1
           2           0          -1          -1           2           0
           0           0           0           0           0           0
           0           0           0           0           0           0
           0
Number of primitives per shell             I   N=          43
           6           6           3           1           1           6
           3           1           1           6           3           1
           1           6           3           1           1           6
           3           1           1           6           3           1
           1           6           3           1           1           3
           1           3           1           3           1           3
           1           3           1           3           1           3
           1
Shell to atom map                          I   N=          43
           1           1           1           1           1           2
           2           2           2           3           3           3
           3           4           4           4           4           5
           5           5           5           6           6           6
           6           7           7           7           7           8
           8           9           9          10          10          11
          11          12          12          13          13          14
          14
Primitive exponents                        R   N=         111
  2.19171000E+04  3.30149000E+03  7.54146000E+02  2.12711000E+02  6.79896000E+01
  2.30515000E+01  4.23735000E+02  1.00710000E+02  3.21599000E+01  1.18079000E+01
  4.63110000E+00  1.87025000E+00  2.61584000E+00  9.22167000E-01  3.41287000E-01
  1.17167000E-01  6.50000000E-01  4.17351146E+03  6.27457911E+02  1.42902093E+02
  4.02343293E+01  1.28202129E+01  4.39043701E+00  1.16263619E+01  2.71627981E+00
  7.72218397E-01  2.12031498E-01  8.00000000E-01  3.04752488E+03  4.57369518E+02
  1.03948685E+02  2.92101553E+01  9.28666296E+00  3.16392696E+00  7.86827235E+00
  1.88128854E+00  5.44249258E-01  1.68714478E-01  8.00000000E-01  3.04752488E+03
  4.57369518E+02  1.03948685E+02  2.92101553E+01  9.28666296E+00  3.16392696E+00
  7.86827235E+00  1.88128854E+00  5.44249258E-01  1.68714478E-01  8.00000000E-01
  3.04752488E+03  4.57369518E+02  1.03948685E+02  2.92101553E+01  9.28666296E+00
  3.16392696E+00  7.86827235E+00  1.88128854E+00  5.44249258E-01  1.68714478E-01
  8.00000000E-01  3.04752488E+03  4.57369518E+02  1.03948685E+02  2.92101553E+01
  9.28666296E+00  3.16392696E+00  7.86827235E+00  1.88128854E+00  5.44249258E-01
  1.68714478E-01  8.00000000E-01  3.04752488E+03  4.57369518E+02  1.03948685E+02
  2.92101553E+01  9.28666296E+00  3.16392696E+00  7.86827235E+00  1.88128854E+00
  5.44249258E-01  1.68714478E-01  8.00000000E-01  1.87311370E+01  2.82539436E+00
  6.40121692E-01  1.61277759E-01  1.87311370E+01  2.82539436E+00  6.40121692E-01
  1.61277759E-01  1.87311370E+01  2.82539436E+00  6.40121692E-01  1.61277759E-01
  1.87311370E+01  2.82539436E+00  6.40121692E-01  1.61277759E-01  1.87311370E+01
  2.82539436E+00  6.40121692E-01  1.61277759E-01  1.87311370E+01  2.82539436E+00
  6.40121692E-01  1.61277759E-01  1.87311370E+01  2.82539436E+00  6.40121692E-01
  1.61277759E-01
Contraction coefficients                   R   N=         111
  1.86924085E-03  1.42303065E-02  6.96962317E-02  2.38487108E-01  4.83307220E-01
  3.38074154E-01 -2.37677050E-03 -3.16930067E-02 -1.13317024E-01  5.60900118E-02
  5.92255124E-01  4.55006095E-01 -2.50373114E-01  6.69567631E-02  1.05450627E+00
  1.00000000E+00  1.00000000E+00  1.83477216E-03  1.39946270E-02  6.85865518E-02
  2.32240873E-01  4.69069948E-01  3.60455199E-01 -1.14961182E-01 -1.69117479E-01
  1.14585195E+00  1.00000000E+00  1.00000000E+00  1.83473713E-03  1.40373228E-02
  6.88426223E-02  2.32184443E-01  4.67941348E-01  3.62311985E-01 -1.19332420E-01
 -1.60854152E-01  1.14345644E+00  1.00000000E+00  1.00000000E+00  1.83473713E-03
  1.40373228E-02  6.88426223E-02  2.32184443E-01  4.67941348E-01  3.62311985E-01
 -1.19332420E-01 -1.60854152E-01  1.14345644E+00  1.00000000E+00  1.00000000E+00
  1.83473713E-03  1.40373228E-02  6.88426223E-02  2.32184443E-01  4.67941348E-01
  3.62311985E-01 -1.19332420E-01 -1.60854152E-01  1.14345644E+00  1.00000000E+00
  1.00000000E+00  1.83473713E-03  1.40373228E-02  6.88426223E-02  2.32184443E-01
  4.67941348E-01  3.62311985E-01 -1.19332420E-01 -1.60854152E-01  1.14345644E+00
  1.00000000E+00  1.00000000E+00  1.83473713E-03  1.40373228E-02  6.88426223E-02
  2.32184443E-01  4.67941348E-01  3.62311985E-01 -1.19332420E-01 -1.60854152E-01
  1.14345644E+00  1.00000000E+00  1.00000000E+00  3.34946043E-02  2.34726953E-01
  8.13757326E-01  1.00000000E+00  3.34946043E-02  2.34726953E-01  8.13757326E-01
  1.00000000E+00  3.34946043E-02  2.34726953E-01  8.13757326E-01  1.00000000E+00
  3.34946043E-02  2.34726953E-01  8.13757326E-01  1.00000000E+00  3.34946043E-02
  2.34726953E-01  8.13757326E-01  1.00000000E+00  3.34946043E-02  2.34726953E-01
  8.13757326E-01  1.00000000E+00  3.34946043E-02  2.34726953E-01  8.13757326E-01
  1.00000000E+00
P(S=P) Contraction coefficients            R   N=         111
  0.00000000E+00  0.00000000E+00  0.00000000E+00  0.00000000E+00  0.00000000E+00
  0.00000000E+00  4.06100998E-03  3.06812999E-02  1.30451999E-01  3.27204999E-01
  4.52850998E-01  2.56041999E-01 -1.45104895E-02  3.10262776E-01  7.54482456E-01
  1.00000000E+00  0.00000000E+00  0.00000000E+00  0.00000000E+00  0.00000000E+00
  0.00000000E+00  0.00000000E+00  0.00000000E+00  6.75797439E-02  3.23907296E-01
  7.40895140E-01  1.00000000E+00  0.00000000E+00  0.00000000E+00  0.00000000E+00
  0.00000000E+00  0.00000000E+00  0.00000000E+00  0.00000000E+00  6.89990666E-02
  3.16423961E-01  7.44308291E-01  1.00000000E+00  0.00000000E+00  0.00000000E+00
  0.00000000E+00  0.00000000E+00  0.00000000E+00  0.00000000E+00  0.00000000E+00
  6.89990666E-02  3.16423961E-01  7.44308291E-01  1.00000000E+00  0.00000000E+00
  0.00000000E+00  0.00000000E+00  0.00000000E+00  0.00000000E+00  0.00000000E+00
  0.00000000E+00  6.89990666E-02  3.16423961E-01  7.44308291E-01  1.00000000E+00
  0.00000000E+00  0.00000000E+00  0.00000000E+00  0.00000000E+00  0.00000000E+00
  0.00000000E+00  0.00000000E+00  6.89990666E-02  3.16423961E-01  7.44308291E-01
  1.00000000E+00  0.00000000E+00  0.00000000E+00  0.00000000E+00  0.00000000E+00
  0.00000000E+00  0.00000000E+00  0.00000000E+00  6.89990666E-02  3.16423961E-01
  7.44308291E-01  1.00000000E+00  0.00000000E+00  0.00000000E+00  0.00000000E+00
  0.00000000E+00  0.00000000E+00  0.00000000E+00  0.00000000E+00  0.00000000E+00
  0.00000000E+00  0.00000000E+00  0.00000000E+00  0.00000000E+00  0.00000000E+00
  0.00000000E+00  0.00000000E+00  0.00000000E+00  0.00000000E+00  0.00000000E+00
  0.00000000E+00  0.00000000E+00  0.00000000E+00  0.00000000E+00  0.00000000E+00
  0.00000000E+00  0.00000000E+00  0.00000000E+00  0.00000000E+00  0.00000000E+00
  0.00000000E+00
Coordinates of each shell                  R   N=         129
 -1.57781903E+00 -2.22501034E+00  5.63056229E-02 -1.57781903E+00 -2.22501034E+00
  5.63056229E-02 -1.57781903E+00 -2.22501034E+00  5.63056229E-02 -1.57781903E+00
 -2.22501034E+00  5.63056229E-02 -1.57781903E+00 -2.22501034E+00  5.63056229E-02
 -3.20591159E-01  2.44759344E+00 -4.87018491E-01 -3.20591159E-01  2.44759344E+00
 -4.87018491E-01 -3.20591159E-01  2.44759344E+00 -4.87018491E-01 -3.20591159E-01
  2.44759344E+00 -4.87018491E-01  3.34372246E+00 -4.08327063E-01 -1.09145960E+00
  3.34372246E+00 -4.08327063E-01 -1.09145960E+00  3.34372246E+00 -4.08327063E-01
 -1.09145960E+00  3.34372246E+00 -4.08327063E-01 -1.09145960E+00  6.11290154E-01
  1.39454182E-01 -5.98239037E-01  6.11290154E-01  1.39454182E-01 -5.98239037E-01
  6.11290154E-01  1.39454182E-01 -5.98239037E-01  6.11290154E-01  1.39454182E-01
 -5.98239037E-01  4.99372329E+00  3.40049943E-01  1.16350732E+00  4.99372329E+00
  3.40049943E-01  1.16350732E+00  4.99372329E+00  3.40049943E-01  1.16350732E+00
  4.99372329E+00  3.40049943E-01  1.16350732E+00 -3.86303252E+00  2.96777542E-02
  4.82585083E-01 -3.86303252E+00  2.96777542E-02  4.82585083E-01 -3.86303252E+00
  2.96777542E-02  4.82585083E-01 -3.86303252E+00  2.96777542E-02  4.82585083E-01
 -2.84194979E+00  2.38913997E+00  1.13723644E-01 -2.84194979E+00  2.38913997E+00
  1.13723644E-01 -2.84194979E+00  2.38913997E+00  1.13723644E-01 -2.84194979E+00
  2.38913997E+00  1.13723644E-01  3.58958112E+00 -2.41499992E+00 -1.53624721E+00
  3.58958112E+00 -2.41499992E+00 -1.53624721E+00  3.91046582E+00  6.65584622E-01
 -2.76691593E+00  3.91046582E+00  6.65584622E-01 -2.76691593E+00  4.74166167E+00
  2.34556802E+00  1.58048982E+00  4.74166167E+00  2.34556802E+00  1.58048982E+00
  6.99098237E+00 -9.49500697E-03  7.60353948E-01  6.99098237E+00 -9.49500697E-03
  7.60353948E-01  4.46899268E+00 -7.44067315E-01  2.84287815E+00  4.46899268E+00
 -7.44067315E-01  2.84287815E+00 -5.79142181E+00 -4.63993686E-01  9.48521276E-01
 -5.79142181E+00 -4.63993686E-01  9.48521276E-01 -3.88354073E+00  4.14844595E+00
  2.58454988E-01 -3.88354073E+00  4.14844595E+00  2.58454988E-01
Constraint Structure                       R   N=          42
 -1.57781903E+00 -2.22501034E+00  5.63056229E-02 -3.20591159E-01  2.44759344E+00
 -4.87018491E-01  3.34372246E+00 -4.08327063E-01 -1.09145960E+00  6.11290154E-01
  1.39454182E-01 -5.98239037E-01  4.99372329E+00  3.40049943E-01  1.16350732E+00
 -3.86303252E+00  2.96777542E-02  4.82585083E-01 -2.84194979E+00  2.38913997E+00
  1.13723644E-01  3.58958112E+00 -2.41499992E+00 -1.53624721E+00  3.91046582E+00
  6.65584622E-01 -2.76691593E+00  4.74166167E+00  2.34556802E+00  1.58048982E+00
  6.99098237E+00 -9.49500697E-03  7.60353948E-01  4.46899268E+00 -7.44067315E-01
  2.84287815E+00 -5.79142181E+00 -4.63993686E-01  9.48521276E-01 -3.88354073E+00
  4.14844595E+00  2.58454988E-01
Num ILSW                                   I              100
ILSW                                       I   N=         100
           0           1           0           0           2           0
           0           0           0           0           0          -1
           0           0           0           0           0           0
           0           0           0           0           1           0
           1           0           0           0           0           0
           0           0      100000           0          -1           0
           0           0           0           0           0           0
           0           0           0           1           1           0
           0           0           1           0           0           0
           0           0           4          40           0           0
           0           0           0           0           0           0
           0           0           0           0           0           0
           0           0           0           0           0           0
           0           0           0           0           0           0
           0           0           0           0           0           0
           0           0           0           0           0           0
           0           0           0           0
Num RLSW                                   I               40
RLSW                                       R   N=          40
  1.00000000E+00  1.00000000E+00  1.00000000E+00  1.00000000E+00  1.00000000E+00
  0.00000000E+00  0.00000000E+00  1.00000000E+00  0.00000000E+00  0.00000000E+00
  0.00000000E+00  0.00000000E+00  1.00000000E+00  0.00000000E+00  0.00000000E+00
  0.00000000E+00  0.00000000E+00  1.00000000E+00  0.00000000E+00  0.00000000E+00
  0.00000000E+00  0.00000000E+00  1.00000000E+00  0.00000000E+00  0.00000000E+00
  0.00000000E+00  0.00000000E+00  1.00000000E+00  0.00000000E+00  0.00000000E+00
  0.00000000E+00  0.00000000E+00  0.00000000E+00  0.00000000E+00  0.00000000E+00
  0.00000000E+00  0.00000000E+00  0.00000000E+00  1.00000000E+00  1.00000000E+00
MxBond                                     I                4
NBond                                      I   N=          14
           2           2           4           3           4           3
           3           1           1           1           1           1
           1           1
IBond                                      I   N=          56
           4           6           0           0           4           7
           0           0           4           5           8           9
           1           2           3           0           3          10
          11          12           1           7          13           0
           2           6          14           0           3           0
           0           0           3           0           0           0
           5           0           0           0           5           0
           0           0           5           0           0           0
           6           0           0           0           7           0
           0           0
RBond                                      R   N=          56
  1.00000000E+00  1.00000000E+00  0.00000000E+00  0.00000000E+00  1.50000000E+00
  1.00000000E+00  0.00000000E+00  0.00000000E+00  1.00000000E+00  1.00000000E+00
  1.00000000E+00  1.00000000E+00  1.00000000E+00  1.50000000E+00  1.00000000E+00
  0.00000000E+00  1.00000000E+00  1.00000000E+00  1.00000000E+00  1.00000000E+00
  1.00000000E+00  1.50000000E+00  1.00000000E+00  0.00000000E+00  1.00000000E+00
  1.50000000E+00  1.00000000E+00  0.00000000E+00  1.00000000E+00  0.00000000E+00
  0.00000000E+00  0.00000000E+00  1.00000000E+00  0.00000000E+00  0.00000000E+00
  0.00000000E+00  1.00000000E+00  0.00000000E+00  0.00000000E+00  0.00000000E+00
  1.00000000E+00  0.00000000E+00  0.00000000E+00  0.00000000E+00  1.00000000E+00
  0.00000000E+00  0.00000000E+00  0.00000000E+00  1.00000000E+00  0.00000000E+00
  0.00000000E+00  0.00000000E+00  1.00000000E+00  0.00000000E+00  0.00000000E+00
  0.00000000E+00
Virial Ratio                               R      2.001039526163562E+00
SCF Energy                                 R     -6.453627388719239E+02
MP2 Energy                                 R     -6.462997214063128E+02
Total Energy                               R     -6.462997214063128E+02
Post-SCF wavefunction norm                 R      1.640740759027406E+00
RMS Force                                  R      5.559524543077639E-07
RMS Density                                R      1.162967870272476E-09
External E-field                           R   N=          35
  0.00000000E+00  0.00000000E+00  0.00000000E+00  0.00000000E+00  0.00000000E+00
  0.00000000E+00  0.00000000E+00  0.00000000E+00  0.00000000E+00  0.00000000E+00
  0.00000000E+00  0.00000000E+00  0.00000000E+00  0.00000000E+00  0.00000000E+00
  0.00000000E+00  0.00000000E+00  0.00000000E+00  0.00000000E+00  0.00000000E+00
  0.00000000E+00  0.00000000E+00  0.00000000E+00  0.00000000E+00  0.00000000E+00
  0.00000000E+00  0.00000000E+00  0.00000000E+00  0.00000000E+00  0.00000000E+00
  0.00000000E+00  0.00000000E+00  0.00000000E+00  0.00000000E+00  0.00000000E+00
IOpCl                                      I                0
IROHF                                      I                0
Alpha Orbital Energies                     R   N=         123
 -9.19795045E+01 -1.55672293E+01 -1.13115275E+01 -1.12677656E+01 -1.12617630E+01
 -1.12453470E+01 -1.12240141E+01 -8.99056590E+00 -6.67300491E+00 -6.67208658E+00
 -6.67054827E+00 -1.27327257E+00 -1.07109309E+00 -1.06086857E+00 -9.73929768E-01
 -8.68875841E-01 -7.89468021E-01 -7.27571590E-01 -6.78790367E-01 -6.27866296E-01
 -6.00269293E-01 -5.69676468E-01 -5.53790654E-01 -5.16002836E-01 -5.10756509E-01
 -5.01533793E-01 -4.94957562E-01 -4.21002618E-01 -3.82997960E-01 -3.25359295E-01
  1.22100650E-01  1.70554218E-01  2.14682933E-01  2.53123749E-01  2.62634520E-01
  2.67521918E-01  2.98634256E-01  3.00390801E-01  3.17164842E-01  3.23961506E-01
  3.39277475E-01  3.83689766E-01  4.07227336E-01  4.18821759E-01  4.60107326E-01
  4.91294575E-01  5.32871220E-01  5.71301340E-01  6.19194144E-01  6.68223850E-01
  7.20552239E-01  7.30367552E-01  7.59779537E-01  7.69122709E-01  7.78755925E-01
  7.89358881E-01  8.15867242E-01  8.50950117E-01  8.98307431E-01  9.27916669E-01
  9.39312744E-01  9.75332420E-01  1.00708983E+00  1.03514687E+00  1.05624357E+00
  1.06717136E+00  1.08689782E+00  1.11391371E+00  1.13100398E+00  1.13444169E+00
  1.14775522E+00  1.16700589E+00  1.18441637E+00  1.20225733E+00  1.21256983E+00
  1.24111181E+00  1.25340450E+00  1.27250450E+00  1.30440762E+00  1.32993584E+00
  1.34691367E+00  1.44482508E+00  1.58393126E+00  1.60780942E+00  1.63560720E+00
  1.69441837E+00  1.72714721E+00  1.75246518E+00  1.82654260E+00  1.87256251E+00
  1.99421411E+00  2.04976918E+00  2.08156356E+00  2.14237163E+00  2.22535357E+00
  2.25438398E+00  2.27003363E+00  2.29026919E+00  2.34900393E+00  2.42874167E+00
  2.50364719E+00  2.54068953E+00  2.56636482E+00  2.59761843E+00  2.61881317E+00
  2.64876667E+00  2.67617471E+00  2.74153571E+00  2.78214272E+00  2.86121203E+00
  2.89985535E+00  2.95822054E+00  3.02955983E+00  3.10750399E+00  3.34729882E+00
  3.40081245E+00  4.35083019E+00  4.42513851E+00  4.51762819E+00  4.58989374E+00
  4.74088941E+00  4.76547820E+00  4.90577408E+00
Alpha MO coefficients                      R   N=       15129
  9.96254121E-01  1.42581388E-02  1.64263129E-06  8.73915000E-05 -4.15175552E-06
 -2.00140442E-02 -2.63293672E-05 -1.71178833E-04  1.05201022E-05  2.29671296E-03
 -2.56835752E-05  4.81886476E-05  9.59467376E-06  6.89559338E-03  6.90333733E-03
  6.91601988E-03  5.62647862E-06  4.65691200E-06 -1.29901813E-06 -2.92936560E-05
 -1.22634655E-04 -4.20209349E-06  3.44218570E-05  1.46806264E-06  1.07620084E-03
 -4.07320099E-06 -3.23285783E-04  4.52153961E-06 -3.02100596E-05 -5.85340394E-05
 -8.64506568E-05 -1.19037083E-05 -1.65547254E-05  2.76394605E-06 -4.92272319E-06
  1.28959016E-06 -1.12545989E-06 -8.19618544E-06  4.04627131E-06  1.81349195E-04
  1.47934188E-04  3.16506552E-04 -3.59564153E-05 -4.22656823E-05 -8.14123416E-06
 -3.67132217E-06 -4.02986410E-05  1.39259234E-05  3.20382867E-06  8.86430806E-06
  9.35126917E-05 -2.51294503E-05 -4.36891921E-05  4.25340352E-06 -4.35056291E-04
 -3.38354952E-05 -5.95827044E-04  5.64955708E-05 -3.53984698E-06 -3.62000925E-05
 -9.22710939E-06 -4.63345036E-05  3.09069912E-06  1.26981543E-05  2.23801958E-06
  5.91164297E-06 -9.01047469E-06  9.87522859E-06 -6.23862909E-06 -9.45201049E-05
  4.04040756E-05 -1.08590400E-04  1.45729103E-04  1.21759496E-05  8.98790551E-06
 -7.77062488E-06  2.42292335E-06 -7.12276659E-06  4.21904809E-06  8.26081217E-06
  7.81475393E-05  3.20098791E-05 -2.71785993E-05 -5.15458865E-06  4.66149510E-04
  4.87051325E-04  1.70807168E-04 -1.29059416E-04 -2.34958998E-05 -3.96784060E-06
 -1.94117841E-05  6.52023278E-05 -3.54717366E-06 -1.67422679E-05  1.16197881E-05
  2.95586584E-05  9.13516047E-06  1.52648012E-05 -2.63971245E-06 -7.98125928E-04
 -3.24113694E-04  5.54608788E-04  5.01564574E-05  1.47776609E-05  6.51343754E-06
  2.12621853E-05 -1.89611695E-05  3.73316400E-06  5.45212187E-06  3.76249405E-05
 -1.31417323E-05 -3.28810111E-05 -9.95052443E-05  7.64431838E-06  6.80991140E-05
 -5.49567417E-07 -8.25416818E-06  2.14939753E-05 -1.50633142E-04  2.19876424E-05
  1.04008182E-04 -3.94957649E-05 -1.84966408E-04  2.05062444E-06 -2.63549112E-06
  1.25392319E-05  1.53501623E-05 -4.20739417E-06  1.05877471E-04 -1.01233244E-04
 -1.05543044E-04  3.27341653E-05 -2.50426840E-04  1.25839360E-04 -1.81379344E-04
 -3.89888557E-05 -3.81860471E-06 -9.15166899E-05 -4.16182814E-05 -5.28185276E-05
 -1.18757628E-05  1.34572819E-05  9.95220039E-01  2.48472716E-02 -9.89035669E-04
 -1.70887241E-03  3.09332066E-04 -5.73885279E-03  1.13267161E-03  2.34193325E-03
 -3.73539143E-04 -2.81847921E-03 -2.73228521E-03 -3.12879466E-03 -8.24394470E-05
 -8.50642779E-05 -3.47416995E-06 -4.90515910E-06 -3.26530431E-05  9.33480109E-06
  1.37604615E-05 -6.56464603E-06  4.97137365E-04 -1.84841161E-04 -5.08628646E-04
  1.43646414E-04  2.33394625E-05 -7.09427454E-06 -3.17061857E-05  7.01111724E-05
 -8.72769424E-06  2.06575789E-06  2.96674644E-05  3.50142090E-04 -1.41160615E-05
  1.24198628E-05 -1.17419005E-05  2.76592879E-03 -1.23360870E-03  1.54056735E-03
  2.45680791E-04 -1.58560031E-04 -4.82063516E-04 -6.08871391E-05  2.00555954E-04
  1.67848740E-05 -1.98750022E-05  8.13967717E-06  3.08998577E-05 -2.59432761E-05
 -1.62143107E-05  5.48208693E-06 -7.95354761E-05  1.75473530E-04  1.94900959E-04
 -7.70105637E-05  5.75971183E-06  9.28930825E-06  1.71528389E-05 -1.39969861E-05
 -2.07479178E-06 -5.45762492E-06  4.29836986E-06 -2.12814371E-05 -2.31545630E-05
 -7.27534684E-05  7.96059712E-06 -1.17615682E-03 -7.30851138E-04 -5.66420536E-04
  2.11610880E-04  2.64382968E-05  5.81921050E-06 -2.21591709E-05 -4.22128576E-05
 -1.03039486E-05  8.34157213E-06  1.02192909E-05  3.51175742E-04  1.42288206E-04
  1.91015945E-05 -3.39668861E-05  3.00745067E-03  9.61944875E-04 -1.31559539E-03
 -1.65555291E-04 -4.58950383E-04 -5.87446712E-05 -1.09089732E-04 -8.14900971E-06
  1.00549830E-04  4.56669782E-07 -6.35808044E-05 -1.77233886E-04  5.16422925E-05
  6.55293544E-05  8.06798358E-06 -1.13133997E-04 -1.11524228E-05 -6.07182417E-05
  3.86242435E-05  9.74160555E-05 -4.46983302E-05 -2.15312025E-04  1.01680829E-05
  3.19701407E-04 -5.65544954E-06 -2.43260367E-05 -5.85200422E-06 -2.51302477E-05
 -6.39220242E-07  3.30378533E-04  1.31180888E-04  3.68243269E-04 -3.74514859E-05
  4.58536289E-03  1.08371079E-03  2.21417743E-03 -3.31731127E-04 -1.35264608E-04
 -2.44643266E-04 -2.05278644E-04 -1.54803873E-04  7.09020411E-06  5.83060010E-05
 -3.29224097E-04  2.83690306E-04  4.45247002E-05  2.10568556E-06 -2.13501310E-06
 -1.03406882E-03  6.94000693E-04  7.07169308E-04 -1.45910023E-04 -2.11082634E-04
 -2.85295713E-04  1.62102291E-04 -1.34167508E-05  1.15478887E-04  5.51911699E-06
  4.94847112E-03  4.61288327E-04  8.64602300E-05  4.45215905E-05 -1.66145405E-05
  1.17404981E-03 -1.37626612E-03 -8.96377632E-04 -3.83001843E-04 -4.93578906E-04
 -6.73544827E-05 -1.32570594E-04  1.20325223E-04  5.83881352E-05 -5.53679696E-05
  9.95839663E-01  2.70582808E-02 -4.17233871E-04 -1.16706644E-04  2.05028452E-04
 -1.13590589E-02  3.31714703E-04  2.05505762E-03 -4.19618404E-04 -1.35756041E-03
 -1.25376226E-03 -2.00401463E-03 -3.70969616E-04 -1.34009985E-04  2.24350722E-05
 -1.21957090E-04 -3.75213684E-04  1.36878818E-04 -1.84472452E-05 -1.59180692E-05
  1.69585553E-03 -1.06724345E-03  1.90560045E-04 -3.56951155E-04 -3.71135271E-05
 -1.24907433E-04 -5.88064008E-05 -1.82351401E-07  7.10905607E-05 -7.23302650E-06
 -1.27852785E-04  2.52602030E-04  8.43082440E-05 -5.26825667E-05 -1.96215751E-05
 -3.85958911E-03 -1.98249371E-03 -5.94385576E-04  4.95778919E-04  2.12683132E-04
  4.25494940E-05  1.41415069E-04 -1.02712902E-05 -1.85551515E-05  9.22455798E-06
 -2.62467867E-04 -3.46103359E-04  8.15605666E-05  9.62406332E-06 -2.71788063E-05
  2.97898168E-03  1.09662738E-03 -2.38353435E-03 -1.20029626E-04  2.17421952E-04
  8.64319509E-05 -6.01500919E-05 -8.44375519E-05 -7.63838878E-05  7.14162833E-06
 -9.68689167E-05 -4.81378079E-04 -2.64636620E-05  3.17205266E-04 -1.39954873E-04
 -3.15302173E-04 -5.87428135E-06  4.12506933E-04 -1.43514324E-04 -9.99250069E-05
 -8.55143543E-05 -4.19718077E-04  9.88090431E-05  8.95954105E-04 -8.52140103E-06
 -2.65604563E-05  6.83472455E-06  6.33037584E-06 -2.53363987E-06 -3.57874929E-04
 -7.33900113E-05 -5.92814919E-05  2.42474031E-05  1.28419884E-03 -2.25245525E-04
  6.40571663E-04  1.26557147E-05  5.74512972E-05  7.05699813E-05 -6.74711051E-05
 -6.39109231E-05 -3.38896408E-05  6.93626529E-06 -2.24136089E-04  4.03891013E-04
 -2.78719469E-05  4.37975758E-05 -8.90142801E-07 -1.05968974E-03  6.56616789E-04
  6.59596601E-04 -1.69424858E-04 -5.00014302E-04 -1.76070719E-04  1.81258460E-04
  2.56812017E-05  1.97355158E-04  1.61330986E-05  9.44222472E-05 -2.79290861E-05
 -4.02854401E-05  7.79915410E-05  4.62334209E-06  1.08485577E-03 -5.63239224E-04
 -4.76930486E-04  1.17810726E-04  1.74035958E-07  1.35862751E-05 -9.25543163E-06