
    -----------------------------------------------------------------------
          Psi4: An Open-Source Ab Initio Electronic Structure Package
                               Psi4 1.3.2 release

                         Git: Rev {HEAD} ecbda83 


    R. M. Parrish, L. A. Burns, D. G. A. Smith, A. C. Simmonett,
    A. E. DePrince III, E. G. Hohenstein, U. Bozkaya, A. Yu. Sokolov,
    R. Di Remigio, R. M. Richard, J. F. Gonthier, A. M. James,
    H. R. McAlexander, A. Kumar, M. Saitow, X. Wang, B. P. Pritchard,
    P. Verma, H. F. Schaefer III, K. Patkowski, R. A. King, E. F. Valeev,
    F. A. Evangelista, J. M. Turney, T. D. Crawford, and C. D. Sherrill,
    J. Chem. Theory Comput. 13(7) pp 3185--3197 (2017).
    (doi: 10.1021/acs.jctc.7b00174)


                         Additional Contributions by
    P. Kraus, H. Kruse, M. H. Lechner, M. C. Schieber, R. A. Shaw,
    A. Alenaizan, R. Galvelis, Z. L. Glick, S. Lehtola, and J. P. Misiewicz

    -----------------------------------------------------------------------


    Psi4 started on: Friday, 06 November 2020 12:25AM

    Process ID: 12222
    Host:       node142.bme.utexas.edu
    PSIDATADIR: /home/xy3866/psi4conda/share/psi4
    Memory:     500.0 MiB
    Threads:    8
    
  ==> Input File <==

--------------------------------------------------------------------------
#psi4
#
memory 32 gb

molecule  {
0 1
  S       -0.0138920    -0.9048335    -0.0264623
  C        1.4128680     0.2392510    -0.2347660
  C       -1.4128850     0.2392870     0.2347580
  C        1.6248350     1.1731860     0.9503430
  C        2.6401330    -0.6379020    -0.4731570
  C       -1.6249850     1.1730530    -0.9504290
  C       -2.6400040    -0.6379180     0.4735190
  H        1.2307130     0.8299810    -1.1389880
  H       -1.2303680     0.8300180     1.1389060
  H        2.5085220     1.7977530     0.7780440
  H        0.7732350     1.8400660     1.1083290
  H        1.7816100     0.5938770     1.8649360
  H        3.5150250    -0.0075390    -0.6610770
  H        2.4981610    -1.2958220    -1.3346530
  H        2.8465490    -1.2576700     0.4045140
  H       -2.5085150     1.7978030    -0.7780110
  H       -0.7733120     1.8397630    -1.1087700
  H       -1.7821140     0.5936310    -1.8648980
  H       -3.5149340    -0.0075940     0.6613800
  H       -2.4978860    -1.2956150     1.3351630
  H       -2.8465220    -1.2579300    -0.4039620
units angstrom
no_reorient  #important for SAPT in psi4, default
symmetry c1  #important for SAPT in psi4, default
}

set PROPERTIES_ORIGIN ["COM"]
properties('MP2/aug-cc-pvtz', properties = ['dipole'])
--------------------------------------------------------------------------

  Memory set to  29.802 GiB by Python driver.
    SCF Algorithm Type (re)set to DF.

*** tstart() called on node142.bme.utexas.edu
*** at Fri Nov  6 00:25:39 2020

   => Loading Basis Set <=

    Name: AUG-CC-PVTZ
    Role: ORBITAL
    Keyword: BASIS
    atoms 1    entry S          line   902 file /home/xy3866/psi4conda/share/psi4/basis/aug-cc-pvtz.gbs 
    atoms 2-7  entry C          line   235 file /home/xy3866/psi4conda/share/psi4/basis/aug-cc-pvtz.gbs 
    atoms 8-21 entry H          line    36 file /home/xy3866/psi4conda/share/psi4/basis/aug-cc-pvtz.gbs 


         ---------------------------------------------------------
                                   SCF
               by Justin Turney, Rob Parrish, Andy Simmonett
                          and Daniel G. A. Smith
                              RHF Reference
                        8 Threads,  30517 MiB Core
         ---------------------------------------------------------

  ==> Geometry <==

    Molecular point group: c1
    Full point group: C1

    Geometry (in Angstrom), charge = 0, multiplicity = 1:

       Center              X                  Y                   Z               Mass       
    ------------   -----------------  -----------------  -----------------  -----------------
         S           -0.010128105811    -0.859931810989    -0.019332330211    31.972071174400
         C            1.416631894189     0.284152689011    -0.227636030211    12.000000000000
         C           -1.409121105811     0.284188689011     0.241887969789    12.000000000000
         C            1.628598894189     1.218087689011     0.957472969789    12.000000000000
         C            2.643896894189    -0.593000310989    -0.466027030211    12.000000000000
         C           -1.621221105811     1.217954689011    -0.943299030211    12.000000000000
         C           -2.636240105811    -0.593016310989     0.480648969789    12.000000000000
         H            1.234476894189     0.874882689011    -1.131858030211     1.007825032230
         H           -1.226604105811     0.874919689011     1.146035969789     1.007825032230
         H            2.512285894189     1.842654689011     0.785173969789     1.007825032230
         H            0.776998894189     1.884967689011     1.115458969789     1.007825032230
         H            1.785373894189     0.638778689011     1.872065969789     1.007825032230
         H            3.518788894189     0.037362689011    -0.653947030211     1.007825032230
         H            2.501924894189    -1.250920310989    -1.327523030211     1.007825032230
         H            2.850312894189    -1.212768310989     0.411643969789     1.007825032230
         H           -2.504751105811     1.842704689011    -0.770881030211     1.007825032230
         H           -0.769548105811     1.884664689011    -1.101640030211     1.007825032230
         H           -1.778350105811     0.638532689011    -1.857768030211     1.007825032230
         H           -3.511170105811     0.037307689011     0.668509969789     1.007825032230
         H           -2.494122105811    -1.250713310989     1.342292969789     1.007825032230
         H           -2.842758105811    -1.213028310989    -0.396832030211     1.007825032230

  Running in c1 symmetry.

  Rotational constants: A =      0.12160  B =      0.04191  C =      0.03764 [cm^-1]
  Rotational constants: A =   3645.38659  B =   1256.46444  C =   1128.46704 [MHz]
  Nuclear repulsion =  400.189281957502317

  Charge       = 0
  Multiplicity = 1
  Electrons    = 66
  Nalpha       = 33
  Nbeta        = 33

  ==> Algorithm <==

  SCF Algorithm Type is DF.
  DIIS enabled.
  MOM disabled.
  Fractional occupation disabled.
  Guess Type is SAD.
  Energy threshold   = 1.00e-10
  Density threshold  = 1.00e-10
  Integral threshold = 0.00e+00

  ==> Primary Basis <==

  Basis Set: AUG-CC-PVTZ
    Blend: AUG-CC-PVTZ
    Number of shells: 226
    Number of basis function: 648
    Number of Cartesian functions: 739
    Spherical Harmonics?: true
    Max angular momentum: 3

   => Loading Basis Set <=

    Name: (AUG-CC-PVTZ AUX)
    Role: JKFIT
    Keyword: DF_BASIS_SCF
    atoms 1    entry S          line   730 file /home/xy3866/psi4conda/share/psi4/basis/aug-cc-pvtz-jkfit.gbs 
    atoms 2-7  entry C          line   162 file /home/xy3866/psi4conda/share/psi4/basis/aug-cc-pvtz-jkfit.gbs 
    atoms 8-21 entry H          line    70 file /home/xy3866/psi4conda/share/psi4/basis/aug-cc-pvtz-jkfit.gbs 

  ==> Pre-Iterations <==

   -------------------------------------------------------
    Irrep   Nso     Nmo     Nalpha   Nbeta   Ndocc  Nsocc
   -------------------------------------------------------
     A        648     648       0       0       0       0
   -------------------------------------------------------
    Total     648     648      33      33      33       0
   -------------------------------------------------------

  ==> Integral Setup <==

  DFHelper Memory: AOs need 4.331 GiB; user supplied 22.352 GiB. Using in-core AOs.

  ==> MemDFJK: Density-Fitted J/K Matrices <==

    J tasked:                   Yes
    K tasked:                   Yes
    wK tasked:                   No
    OpenMP threads:               8
    Memory [MiB]:             22888
    Algorithm:                 Disk
    Schwarz Cutoff:           1E-12
    Mask sparsity (%):       4.9030
    Fitting Condition:        1E-10

   => Auxiliary Basis Set <=

  Basis Set: (AUG-CC-PVTZ AUX)
    Blend: AUG-CC-PVTZ-JKFIT
    Number of shells: 418
    Number of basis function: 1414
    Number of Cartesian functions: 1736
    Spherical Harmonics?: true
    Max angular momentum: 4

  Minimum eigenvalue in the overlap matrix is 3.5429830047E-06.
  Using Symmetric Orthogonalization.

  SCF Guess: Superposition of Atomic Densities via on-the-fly atomic UHF.

  ==> Iterations <==

                           Total Energy        Delta E     RMS |[F,P]|

   @DF-RHF iter SAD:  -632.52472396819542   -6.32525e+02   0.00000e+00 
   @DF-RHF iter   1:  -632.68130866302295   -1.56585e-01   1.08562e-03 DIIS
   @DF-RHF iter   2:  -632.93689139579749   -2.55583e-01   4.89975e-04 DIIS
   @DF-RHF iter   3:  -632.98895054135539   -5.20591e-02   1.00093e-04 DIIS
   @DF-RHF iter   4:  -632.99285297292272   -3.90243e-03   3.35643e-05 DIIS
   @DF-RHF iter   5:  -632.99316504599869   -3.12073e-04   6.26665e-06 DIIS
   @DF-RHF iter   6:  -632.99318071621599   -1.56702e-05   1.42304e-06 DIIS
   @DF-RHF iter   7:  -632.99318152539649   -8.09181e-07   3.97198e-07 DIIS
   @DF-RHF iter   8:  -632.99318161174551   -8.63490e-08   1.21614e-07 DIIS
   @DF-RHF iter   9:  -632.99318162112684   -9.38132e-09   3.21661e-08 DIIS
   @DF-RHF iter  10:  -632.99318162193458   -8.07745e-10   7.41880e-09 DIIS
   @DF-RHF iter  11:  -632.99318162196869   -3.41061e-11   2.14146e-09 DIIS
   @DF-RHF iter  12:  -632.99318162197153   -2.84217e-12   7.83262e-10 DIIS
   @DF-RHF iter  13:  -632.99318162197460   -3.06954e-12   2.70452e-10 DIIS
   @DF-RHF iter  14:  -632.99318162197073    3.86535e-12   8.81413e-11 DIIS
  Energy and wave function converged.


  ==> Post-Iterations <==

    Orbital Energies [Eh]
    ---------------------

    Doubly Occupied:                                                      

       1A    -91.932070     2A    -11.258735     3A    -11.257638  
       4A    -11.220347     5A    -11.219315     6A    -11.219153  
       7A    -11.218971     8A     -8.932875     9A     -6.614065  
      10A     -6.613084    11A     -6.612233    12A     -1.106775  
      13A     -1.064322    14A     -0.938640    15A     -0.934836  
      16A     -0.919214    17A     -0.800051    18A     -0.746043  
      19A     -0.643793    20A     -0.627509    21A     -0.603148  
      22A     -0.581608    23A     -0.562011    24A     -0.556404  
      25A     -0.541372    26A     -0.540827    27A     -0.497473  
      28A     -0.493874    29A     -0.493575    30A     -0.483309  
      31A     -0.436900    32A     -0.410402    33A     -0.331719  

    Virtual:                                                              

      34A      0.029177    35A      0.033088    36A      0.037549  
      37A      0.037931    38A      0.050536    39A      0.051408  
      40A      0.052452    41A      0.056655    42A      0.059421  
      43A      0.069417    44A      0.074230    45A      0.074615  
      46A      0.083555    47A      0.087775    48A      0.114487  
      49A      0.114903    50A      0.117401    51A      0.121337  
      52A      0.121752    53A      0.123405    54A      0.133214  
      55A      0.134589    56A      0.144007    57A      0.145497  
      58A      0.147225    59A      0.147667    60A      0.154213  
      61A      0.156699    62A      0.157742    63A      0.160595  
      64A      0.164469    65A      0.175042    66A      0.180307  
      67A      0.188219    68A      0.189142    69A      0.193568  
      70A      0.204246    71A      0.207744    72A      0.217790  
      73A      0.218964    74A      0.244703    75A      0.247234  
      76A      0.254778    77A      0.255949    78A      0.256675  
      79A      0.266999    80A      0.267873    81A      0.281836  
      82A      0.282754    83A      0.290844    84A      0.297529  
      85A      0.299345    86A      0.303314    87A      0.313622  
      88A      0.316134    89A      0.318420    90A      0.329759  
      91A      0.336603    92A      0.337436    93A      0.342695  
      94A      0.346276    95A      0.354970    96A      0.361345  
      97A      0.363761    98A      0.367173    99A      0.368972  
     100A      0.373313   101A      0.378592   102A      0.383033  
     103A      0.383896   104A      0.386211   105A      0.391362  
     106A      0.393158   107A      0.393422   108A      0.405357  
     109A      0.407716   110A      0.409428   111A      0.420098  
     112A      0.420666   113A      0.423824   114A      0.427688  
     115A      0.435279   116A      0.436199   117A      0.443066  
     118A      0.445321   119A      0.452337   120A      0.458211  
     121A      0.464104   122A      0.467816   123A      0.468349  
     124A      0.474397   125A      0.477257   126A      0.482097  
     127A      0.484136   128A      0.491393   129A      0.494676  
     130A      0.496593   131A      0.502681   132A      0.505235  
     133A      0.516676   134A      0.521706   135A      0.522406  
     136A      0.529773   137A      0.537169   138A      0.538687  
     139A      0.543446   140A      0.547660   141A      0.549025  
     142A      0.558044   143A      0.561900   144A      0.569223  
     145A      0.574019   146A      0.576543   147A      0.592036  
     148A      0.596493   149A      0.600325   150A      0.603376  
     151A      0.608557   152A      0.616115   153A      0.620284  
     154A      0.625025   155A      0.628525   156A      0.631153  
     157A      0.632923   158A      0.642206   159A      0.650984  
     160A      0.668828   161A      0.673108   162A      0.673370  
     163A      0.686484   164A      0.694174   165A      0.695203  
     166A      0.699774   167A      0.700130   168A      0.713193  
     169A      0.720454   170A      0.730328   171A      0.736680  
     172A      0.761477   173A      0.780775   174A      0.783110  
     175A      0.793480   176A      0.801989   177A      0.811582  
     178A      0.813070   179A      0.824486   180A      0.830835  
     181A      0.835098   182A      0.839306   183A      0.848438  
     184A      0.853734   185A      0.853952   186A      0.861130  
     187A      0.869610   188A      0.869934   189A      0.877370  
     190A      0.884958   191A      0.887246   192A      0.898097  
     193A      0.900094   194A      0.900588   195A      0.915123  
     196A      0.918707   197A      0.922878   198A      0.929203  
     199A      0.937597   200A      0.945583   201A      0.952657  
     202A      0.953216   203A      0.961677   204A      0.964046  
     205A      0.970031   206A      0.971855   207A      0.978335  
     208A      0.980783   209A      0.987474   210A      0.991111  
     211A      1.000786   212A      1.007408   213A      1.014043  
     214A      1.018930   215A      1.022738   216A      1.025375  
     217A      1.029602   218A      1.031673   219A      1.045710  
     220A      1.051305   221A      1.055349   222A      1.069534  
     223A      1.070454   224A      1.072238   225A      1.088597  
     226A      1.090309   227A      1.101987   228A      1.117242  
     229A      1.118580   230A      1.124663   231A      1.128691  
     232A      1.133809   233A      1.136992   234A      1.143440  
     235A      1.148293   236A      1.153369   237A      1.154751  
     238A      1.157728   239A      1.161142   240A      1.169336  
     241A      1.183040   242A      1.184750   243A      1.194005  
     244A      1.204935   245A      1.214798   246A      1.218502  
     247A      1.221167   248A      1.223515   249A      1.241855  
     250A      1.249355   251A      1.251007   252A      1.254087  
     253A      1.259347   254A      1.264659   255A      1.268961  
     256A      1.285631   257A      1.297686   258A      1.307119  
     259A      1.309391   260A      1.321416   261A      1.330258  
     262A      1.333825   263A      1.341076   264A      1.347984  
     265A      1.359824   266A      1.374461   267A      1.375814  
     268A      1.381633   269A      1.389089   270A      1.391683  
     271A      1.396230   272A      1.403536   273A      1.407405  
     274A      1.435307   275A      1.446526   276A      1.452267  
     277A      1.456149   278A      1.465020   279A      1.465306  
     280A      1.476267   281A      1.485831   282A      1.492091  
     283A      1.498571   284A      1.522243   285A      1.526139  
     286A      1.529114   287A      1.536999   288A      1.539039  
     289A      1.545248   290A      1.550533   291A      1.559300  
     292A      1.571109   293A      1.581122   294A      1.583644  
     295A      1.594768   296A      1.605861   297A      1.608323  
     298A      1.618556   299A      1.626445   300A      1.629546  
     301A      1.659999   302A      1.663828   303A      1.672298  
     304A      1.681197   305A      1.686348   306A      1.697938  
     307A      1.700798   308A      1.704419   309A      1.706971  
     310A      1.715267   311A      1.720399   312A      1.721378  
     313A      1.728019   314A      1.740677   315A      1.742023  
     316A      1.755919   317A      1.760430   318A      1.761939  
     319A      1.772355   320A      1.775426   321A      1.782045  
     322A      1.786726   323A      1.791284   324A      1.800993  
     325A      1.808511   326A      1.813742   327A      1.818021  
     328A      1.827553   329A      1.837408   330A      1.863135  
     331A      1.865933   332A      1.875312   333A      1.889148  
     334A      1.898717   335A      1.909574   336A      1.912939  
     337A      1.919555   338A      1.922065   339A      1.941514  
     340A      1.943814   341A      1.950860   342A      1.959455  
     343A      1.965836   344A      1.967505   345A      1.976542  
     346A      1.983308   347A      1.996687   348A      1.998949  
     349A      2.019405   350A      2.025906   351A      2.030722  
     352A      2.043851   353A      2.044673   354A      2.069077  
     355A      2.077009   356A      2.079206   357A      2.084184  
     358A      2.086591   359A      2.091525   360A      2.104375  
     361A      2.121816   362A      2.137320   363A      2.138463  
     364A      2.146484   365A      2.160085   366A      2.164688  
     367A      2.177020   368A      2.196293   369A      2.199964  
     370A      2.228854   371A      2.234182   372A      2.244258  
     373A      2.246802   374A      2.256821   375A      2.259143  
     376A      2.271880   377A      2.279762   378A      2.285679  
     379A      2.293654   380A      2.299106   381A      2.327322  
     382A      2.333179   383A      2.355440   384A      2.362610  
     385A      2.374949   386A      2.380461   387A      2.391929  
     388A      2.400610   389A      2.422289   390A      2.426616  
     391A      2.440481   392A      2.448888   393A      2.480794  
     394A      2.481700   395A      2.503553   396A      2.523290  
     397A      2.525049   398A      2.538786   399A      2.548605  
     400A      2.561357   401A      2.571295   402A      2.606981  
     403A      2.629985   404A      2.660120   405A      2.667327  
     406A      2.711682   407A      2.725493   408A      2.730482  
     409A      2.754683   410A      2.783001   411A      2.795257  
     412A      2.823455   413A      2.830502   414A      2.847956  
     415A      2.903171   416A      2.915482   417A      2.929092  
     418A      2.974090   419A      3.021417   420A      3.076163  
     421A      3.131799   422A      3.140209   423A      3.219317  
     424A      3.267702   425A      3.283868   426A      3.298862  
     427A      3.334392   428A      3.343548   429A      3.392929  
     430A      3.434262   431A      3.472242   432A      3.489659  
     433A      3.491471   434A      3.495466   435A      3.499900  
     436A      3.540563   437A      3.555393   438A      3.562502  
     439A      3.565321   440A      3.577084   441A      3.597062  
     442A      3.619054   443A      3.629745   444A      3.642676  
     445A      3.656772   446A      3.668435   447A      3.675919  
     448A      3.683388   449A      3.691363   450A      3.707573  
     451A      3.714657   452A      3.726645   453A      3.730287  
     454A      3.737593   455A      3.747926   456A      3.757825  
     457A      3.762461   458A      3.776026   459A      3.782228  
     460A      3.785561   461A      3.809306   462A      3.814190  
     463A      3.819180   464A      3.822831   465A      3.840819  
     466A      3.849208   467A      3.866373   468A      3.880711  
     469A      3.895682   470A      3.905164   471A      3.908377  
     472A      3.917024   473A      3.928170   474A      3.936441  
     475A      3.939310   476A      3.971092   477A      3.974794  
     478A      3.983082   479A      4.004018   480A      4.007914  
     481A      4.020725   482A      4.026728   483A      4.033642  
     484A      4.040156   485A      4.061467   486A      4.064029  
     487A      4.068121   488A      4.085502   489A      4.097575  
     490A      4.097768   491A      4.106753   492A      4.118417  
     493A      4.123246   494A      4.129201   495A      4.154869  
     496A      4.161472   497A      4.187239   498A      4.211020  
     499A      4.228096   500A      4.230812   501A      4.242324  
     502A      4.247511   503A      4.250608   504A      4.255270  
     505A      4.260587   506A      4.273748   507A      4.280588  
     508A      4.283413   509A      4.307766   510A      4.325535  
     511A      4.326466   512A      4.336578   513A      4.344621  
     514A      4.352891   515A      4.386621   516A      4.397594  
     517A      4.405242   518A      4.420621   519A      4.460606  
     520A      4.466670   521A      4.489871   522A      4.492472  
     523A      4.506599   524A      4.528620   525A      4.532752  
     526A      4.549619   527A      4.555619   528A      4.594251  
     529A      4.621193   530A      4.623220   531A      4.642822  
     532A      4.656421   533A      4.676340   534A      4.680013  
     535A      4.713778   536A      4.726879   537A      4.730617  
     538A      4.739868   539A      4.771452   540A      4.793205  
     541A      4.800862   542A      4.804135   543A      4.834591  
     544A      4.842325   545A      4.856155   546A      4.867462  
     547A      4.869112   548A      4.885162   549A      4.888259  
     550A      4.899065   551A      4.927777   552A      4.932351  
     553A      4.944246   554A      4.948749   555A      4.958277  
     556A      4.970219   557A      4.971718   558A      4.975257  
     559A      4.984905   560A      5.028613   561A      5.037115  
     562A      5.052240   563A      5.095376   564A      5.102551  
     565A      5.107138   566A      5.122233   567A      5.125526  
     568A      5.165920   569A      5.183577   570A      5.196453  
     571A      5.201840   572A      5.214480   573A      5.250158  
     574A      5.272312   575A      5.274834   576A      5.288492  
     577A      5.307336   578A      5.311061   579A      5.323163  
     580A      5.353753   581A      5.358003   582A      5.378984  
     583A      5.404156   584A      5.410329   585A      5.417679  
     586A      5.420281   587A      5.433261   588A      5.445279  
     589A      5.458005   590A      5.484117   591A      5.496679  
     592A      5.496917   593A      5.505214   594A      5.515291  
     595A      5.531414   596A      5.555610   597A      5.564776  
     598A      5.586419   599A      5.590821   600A      5.645229  
     601A      5.656825   602A      5.688220   603A      5.690675  
     604A      5.718431   605A      5.726892   606A      5.774510  
     607A      5.795285   608A      5.821111   609A      5.822837  
     610A      5.836919   611A      5.861300   612A      5.870086  
     613A      5.907405   614A      5.939771   615A      5.978849  
     616A      6.072458   617A      6.096636   618A      6.099077  
     619A      6.123324   620A      6.160892   621A      6.176455  
     622A      6.188995   623A      6.205460   624A      6.214785  
     625A      6.229533   626A      6.243515   627A      6.260215  
     628A      6.300288   629A      6.341389   630A      6.366481  
     631A      6.373783   632A      6.645781   633A      6.670137  
     634A      6.829498   635A      6.835160   636A      6.840518  
     637A      6.843032   638A      6.887600   639A      6.899521  
     640A      6.964675   641A      6.985716   642A      8.683393  
     643A     17.387544   644A     17.422199   645A     18.101418  
     646A     18.241702   647A     18.826647   648A     18.835085  

    Final Occupation by Irrep:
              A 
    DOCC [    33 ]

  @DF-RHF Final Energy:  -632.99318162197073

   => Energetics <=

    Nuclear Repulsion Energy =            400.1892819575023168
    One-Electron Energy =               -1661.5403446196273762
    Two-Electron Energy =                 628.3578810401543251
    Total Energy =                       -632.9931816219707343

Computation Completed

*** tstop() called on node142.bme.utexas.edu at Fri Nov  6 00:27:23 2020
Module time:
	user time   =     480.29 seconds =       8.00 minutes
	system time =      46.33 seconds =       0.77 minutes
	total time  =        104 seconds =       1.73 minutes
Total time:
	user time   =     480.29 seconds =       8.00 minutes
	system time =      46.33 seconds =       0.77 minutes
	total time  =        104 seconds =       1.73 minutes
   => Loading Basis Set <=

    Name: (AUG-CC-PVTZ AUX)
    Role: RIFIT
    Keyword: DF_BASIS_MP2
    atoms 1    entry S          line   666 file /home/xy3866/psi4conda/share/psi4/basis/aug-cc-pvtz-ri.gbs 
    atoms 2-7  entry C          line   148 file /home/xy3866/psi4conda/share/psi4/basis/aug-cc-pvtz-ri.gbs 
    atoms 8-21 entry H          line    30 file /home/xy3866/psi4conda/share/psi4/basis/aug-cc-pvtz-ri.gbs 


*** tstart() called on node142.bme.utexas.edu
*** at Fri Nov  6 00:27:24 2020


  //>>>>>>>>>>>>>>>>>>>>>>>>>>>>>>>>>>>//
  //               DFMP2               //
  //<<<<<<<<<<<<<<<<<<<<<<<<<<<<<<<<<<<//

	 --------------------------------------------------------
	                          DF-MP2                         
	      2nd-Order Density-Fitted Moller-Plesset Theory     
	              RMP2 Wavefunction,   8 Threads             
	                                                         
	        Rob Parrish, Justin Turney, Andy Simmonett,      
	           Ed Hohenstein, and C. David Sherrill          
	 --------------------------------------------------------

   => Auxiliary Basis Set <=

  Basis Set: (AUG-CC-PVTZ AUX)
    Blend: AUG-CC-PVTZ-RI
    Number of shells: 401
    Number of basis function: 1427
    Number of Cartesian functions: 1777
    Spherical Harmonics?: true
    Max angular momentum: 4

	 --------------------------------------------------------
	                 NBF =   648, NAUX =  1427
	 --------------------------------------------------------
	   CLASS    FOCC     OCC    AOCC    AVIR     VIR    FVIR
	   PAIRS       0      33      33     615     615       0
	 --------------------------------------------------------

  DFHelper Memory: AOs need 4.331 GiB; user supplied 22.352 GiB. Using in-core AOs.


         ------------------------------------------------------------
                                     CPHF                           
                                  Rob Parrish                       
         ------------------------------------------------------------

  ==> Geometry <==

    Molecular point group: c1
    Full point group: C1

    Geometry (in Angstrom), charge = 0, multiplicity = 1:

       Center              X                  Y                   Z               Mass       
    ------------   -----------------  -----------------  -----------------  -----------------
         S           -0.010128105811    -0.859931810989    -0.019332330211    31.972071174400
         C            1.416631894189     0.284152689011    -0.227636030211    12.000000000000
         C           -1.409121105811     0.284188689011     0.241887969789    12.000000000000
         C            1.628598894189     1.218087689011     0.957472969789    12.000000000000
         C            2.643896894189    -0.593000310989    -0.466027030211    12.000000000000
         C           -1.621221105811     1.217954689011    -0.943299030211    12.000000000000
         C           -2.636240105811    -0.593016310989     0.480648969789    12.000000000000
         H            1.234476894189     0.874882689011    -1.131858030211     1.007825032230
         H           -1.226604105811     0.874919689011     1.146035969789     1.007825032230
         H            2.512285894189     1.842654689011     0.785173969789     1.007825032230
         H            0.776998894189     1.884967689011     1.115458969789     1.007825032230
         H            1.785373894189     0.638778689011     1.872065969789     1.007825032230
         H            3.518788894189     0.037362689011    -0.653947030211     1.007825032230
         H            2.501924894189    -1.250920310989    -1.327523030211     1.007825032230
         H            2.850312894189    -1.212768310989     0.411643969789     1.007825032230
         H           -2.504751105811     1.842704689011    -0.770881030211     1.007825032230
         H           -0.769548105811     1.884664689011    -1.101640030211     1.007825032230
         H           -1.778350105811     0.638532689011    -1.857768030211     1.007825032230
         H           -3.511170105811     0.037307689011     0.668509969789     1.007825032230
         H           -2.494122105811    -1.250713310989     1.342292969789     1.007825032230
         H           -2.842758105811    -1.213028310989    -0.396832030211     1.007825032230

  Nuclear repulsion =  400.189281957502317
  Reference energy  = -632.993181621970734

  ==> Basis Set <==

  Basis Set: AUG-CC-PVTZ
    Blend: AUG-CC-PVTZ
    Number of shells: 226
    Number of basis function: 648
    Number of Cartesian functions: 739
    Spherical Harmonics?: true
    Max angular momentum: 3

  ==> CGRSolver (by Rob Parrish) <==

   Number of roots    =         1
   Preconditioning    =    JACOBI
   Convergence cutoff =     1E-06
   Maximum iterations =       100

  ==> CPHFRHamiltonian (by Rob Parrish) <== 

  ==> MemDFJK: Density-Fitted J/K Matrices <==

    J tasked:                   Yes
    K tasked:                   Yes
    wK tasked:                   No
    OpenMP threads:               8
    Memory [MiB]:             22888
    Algorithm:                 Disk
    Schwarz Cutoff:           1E-12
    Mask sparsity (%):       4.9030
    Fitting Condition:        1E-10

   => Auxiliary Basis Set <=

  Basis Set: (AUG-CC-PVTZ AUX)
    Blend: AUG-CC-PVTZ-JKFIT
    Number of shells: 418
    Number of basis function: 1414
    Number of Cartesian functions: 1736
    Spherical Harmonics?: true
    Max angular momentum: 4

  ==> CPHF Iterations <==

  => Iterations <=

             Iter  Converged  Remaining    Residual
  CGR           1          0          1   9.612E-02
  CGR           2          0          1   1.583E-02
  CGR           3          0          1   5.658E-03
  CGR           4          0          1   1.734E-03
  CGR           5          0          1   5.064E-04
  CGR           6          0          1   1.841E-04
  CGR           7          0          1   5.608E-05
  CGR           8          0          1   1.784E-05
  CGR           9          0          1   7.557E-06
  CGR          10          0          1   2.293E-06
  CGR          11          1          0   5.540E-07

    CGRSolver converged.

	-----------------------------------------------------------
	 ==================> DF-MP2 Energies <==================== 
	-----------------------------------------------------------
	 Reference Energy          =    -632.9931816219707343 [Eh]
	 Singles Energy            =      -0.0000000000000000 [Eh]
	 Same-Spin Energy          =      -0.3134458975802681 [Eh]
	 Opposite-Spin Energy      =      -1.1129913499245756 [Eh]
	 Correlation Energy        =      -1.4264372475048437 [Eh]
	 Total Energy              =    -634.4196188694755847 [Eh]
	-----------------------------------------------------------
	 ================> DF-SCS-MP2 Energies <================== 
	-----------------------------------------------------------
	 SCS Same-Spin Scale       =       0.3333333333333333 [-]
	 SCS Opposite-Spin Scale   =       1.2000000000000000 [-]
	 SCS Same-Spin Energy      =      -0.1044819658600894 [Eh]
	 SCS Opposite-Spin Energy  =      -1.3355896199094908 [Eh]
	 SCS Correlation Energy    =      -1.4400715857695801 [Eh]
	 SCS Total Energy          =    -634.4332532077403357 [Eh]
	-----------------------------------------------------------



Properties will be evaluated at   0.000000,  -0.000000,  -0.000000 [a0]

Properties computed using the MP2 density matrix

  Nuclear Dipole Moment: [e a0]
     X:     0.0493      Y:     5.2546      Z:     0.0939

  Electronic Dipole Moment: [e a0]
     X:    -0.0411      Y:    -4.6023      Z:    -0.0816

  Dipole Moment: [e a0]
     X:     0.0081      Y:     0.6523      Z:     0.0123     Total:     0.6525

  Dipole Moment: [D]
     X:     0.0207      Y:     1.6581      Z:     0.0313     Total:     1.6585


*** tstop() called on node142.bme.utexas.edu at Fri Nov  6 00:32:08 2020
Module time:
	user time   =    1702.85 seconds =      28.38 minutes
	system time =      60.51 seconds =       1.01 minutes
	total time  =        284 seconds =       4.73 minutes
Total time:
	user time   =    2184.02 seconds =      36.40 minutes
	system time =     106.89 seconds =       1.78 minutes
	total time  =        389 seconds =       6.48 minutes

    Psi4 stopped on: Friday, 06 November 2020 12:32AM
    Psi4 wall time for execution: 0:06:29.61

*** Psi4 exiting successfully. Buy a developer a beer!
