016_DMSO Gaussian SP Calculation on node35.bme.utexas.edu               
Freq      RMP2-FC                                                     6-31G(d)            
Number of atoms                            I               10
Info1-9                                    I   N=           9
          21          20        1002           0           0         100
           6           2           1
Charge                                     I                0
Multiplicity                               I                1
Number of electrons                        I               42
Number of alpha electrons                  I               21
Number of beta electrons                   I               21
Number of basis functions                  I               76
Number of independent functions            I               76
Number of point charges in /Mol/           I                0
Number of translation vectors              I                0
Atomic numbers                             I   N=          10
           6           8          16           6           1           1
           1           1           1           1
Nuclear charges                            R   N=          10
  6.00000000E+00  8.00000000E+00  1.60000000E+01  6.00000000E+00  1.00000000E+00
  1.00000000E+00  1.00000000E+00  1.00000000E+00  1.00000000E+00  1.00000000E+00
Current cartesian coordinates              R   N=          30
  2.53563790E+00 -1.53136106E+00  3.41621415E-01  2.01056810E-06  2.84008593E+00
  7.18064184E-01  1.80537505E-07  4.38945476E-01 -8.28958527E-01 -2.53563984E+00
 -1.53135796E+00  3.41621532E-01  2.46885550E+00 -3.39079025E+00 -5.55399204E-01
  4.31155246E+00 -5.94131690E-01 -1.29346740E-01  2.37735883E+00 -1.69883389E+00
  2.39442867E+00 -2.46886032E+00 -3.39078655E+00 -5.55400595E-01 -2.37736060E+00
 -1.69883278E+00  2.39442861E+00 -4.31155322E+00 -5.94125759E-01 -1.29345459E-01
Force Field                                I                0
Int Atom Types                             I   N=          10
           0           0           0           0           0           0
           0           0           0           0
MM charges                                 R   N=          10
  0.00000000E+00  0.00000000E+00  0.00000000E+00  0.00000000E+00  0.00000000E+00
  0.00000000E+00  0.00000000E+00  0.00000000E+00  0.00000000E+00  0.00000000E+00
Integer atomic weights                     I   N=          10
          12          16          32          12           1           1
           1           1           1           1
Real atomic weights                        R   N=          10
  1.20000000E+01  1.59949146E+01  3.19720718E+01  1.20000000E+01  1.00782504E+00
  1.00782504E+00  1.00782504E+00  1.00782504E+00  1.00782504E+00  1.00782504E+00
Atom fragment info                         I   N=          10
           0           0           0           0           0           0
           0           0           0           0
Atom residue num                           I   N=          10
           0           0           0           0           0           0
           0           0           0           0
Nuclear spins                              I   N=          10
           0           0           0           0           1           1
           1           1           1           1
Nuclear ZEff                               R   N=          10
 -3.60000000E+00 -5.60000000E+00 -1.36000000E+01 -3.60000000E+00 -1.00000000E+00
 -1.00000000E+00 -1.00000000E+00 -1.00000000E+00 -1.00000000E+00 -1.00000000E+00
Nuclear QMom                               R   N=          10
  0.00000000E+00  0.00000000E+00  0.00000000E+00  0.00000000E+00  0.00000000E+00
  0.00000000E+00  0.00000000E+00  0.00000000E+00  0.00000000E+00  0.00000000E+00
Nuclear GFac                               R   N=          10
  0.00000000E+00  0.00000000E+00  0.00000000E+00  0.00000000E+00  2.79284600E+00
  2.79284600E+00  2.79284600E+00  2.79284600E+00  2.79284600E+00  2.79284600E+00
MicOpt                                     I   N=          10
          -1          -1          -1          -1          -1          -1
          -1          -1          -1          -1
Number of contracted shells                I               29
Number of primitive shells                 I               74
Pure/Cartesian d shells                    I                1
Pure/Cartesian f shells                    I                0
Highest angular momentum                   I                2
Largest degree of contraction              I                6
Shell types                                I   N=          29
           0          -1          -1           2           0          -1
          -1           2           0          -1          -1          -1
           2           0          -1          -1           2           0
           0           0           0           0           0           0
           0           0           0           0           0
Number of primitives per shell             I   N=          29
           6           3           1           1           6           3
           1           1           6           6           3           1
           1           6           3           1           1           3
           1           3           1           3           1           3
           1           3           1           3           1
Shell to atom map                          I   N=          29
           1           1           1           1           2           2
           2           2           3           3           3           3
           3           4           4           4           4           5
           5           6           6           7           7           8
           8           9           9          10          10
Primitive exponents                        R   N=          74
  3.04752488E+03  4.57369518E+02  1.03948685E+02  2.92101553E+01  9.28666296E+00
  3.16392696E+00  7.86827235E+00  1.88128854E+00  5.44249258E-01  1.68714478E-01
  8.00000000E-01  5.48467166E+03  8.25234946E+02  1.88046958E+02  5.29645000E+01
  1.68975704E+01  5.79963534E+00  1.55396162E+01  3.59993359E+00  1.01376175E+00
  2.70005823E-01  8.00000000E-01  2.19171000E+04  3.30149000E+03  7.54146000E+02
  2.12711000E+02  6.79896000E+01  2.30515000E+01  4.23735000E+02  1.00710000E+02
  3.21599000E+01  1.18079000E+01  4.63110000E+00  1.87025000E+00  2.61584000E+00
  9.22167000E-01  3.41287000E-01  1.17167000E-01  6.50000000E-01  3.04752488E+03
  4.57369518E+02  1.03948685E+02  2.92101553E+01  9.28666296E+00  3.16392696E+00
  7.86827235E+00  1.88128854E+00  5.44249258E-01  1.68714478E-01  8.00000000E-01
  1.87311370E+01  2.82539436E+00  6.40121692E-01  1.61277759E-01  1.87311370E+01
  2.82539436E+00  6.40121692E-01  1.61277759E-01  1.87311370E+01  2.82539436E+00
  6.40121692E-01  1.61277759E-01  1.87311370E+01  2.82539436E+00  6.40121692E-01
  1.61277759E-01  1.87311370E+01  2.82539436E+00  6.40121692E-01  1.61277759E-01
  1.87311370E+01  2.82539436E+00  6.40121692E-01  1.61277759E-01
Contraction coefficients                   R   N=          74
  1.83473713E-03  1.40373228E-02  6.88426223E-02  2.32184443E-01  4.67941348E-01
  3.62311985E-01 -1.19332420E-01 -1.60854152E-01  1.14345644E+00  1.00000000E+00
  1.00000000E+00  1.83107443E-03  1.39501722E-02  6.84450781E-02  2.32714336E-01
  4.70192898E-01  3.58520853E-01 -1.10777550E-01 -1.48026263E-01  1.13076702E+00
  1.00000000E+00  1.00000000E+00  1.86924085E-03  1.42303065E-02  6.96962317E-02
  2.38487108E-01  4.83307220E-01  3.38074154E-01 -2.37677050E-03 -3.16930067E-02
 -1.13317024E-01  5.60900118E-02  5.92255124E-01  4.55006095E-01 -2.50373114E-01
  6.69567631E-02  1.05450627E+00  1.00000000E+00  1.00000000E+00  1.83473713E-03
  1.40373228E-02  6.88426223E-02  2.32184443E-01  4.67941348E-01  3.62311985E-01
 -1.19332420E-01 -1.60854152E-01  1.14345644E+00  1.00000000E+00  1.00000000E+00
  3.34946043E-02  2.34726953E-01  8.13757326E-01  1.00000000E+00  3.34946043E-02
  2.34726953E-01  8.13757326E-01  1.00000000E+00  3.34946043E-02  2.34726953E-01
  8.13757326E-01  1.00000000E+00  3.34946043E-02  2.34726953E-01  8.13757326E-01
  1.00000000E+00  3.34946043E-02  2.34726953E-01  8.13757326E-01  1.00000000E+00
  3.34946043E-02  2.34726953E-01  8.13757326E-01  1.00000000E+00
P(S=P) Contraction coefficients            R   N=          74
  0.00000000E+00  0.00000000E+00  0.00000000E+00  0.00000000E+00  0.00000000E+00
  0.00000000E+00  6.89990666E-02  3.16423961E-01  7.44308291E-01  1.00000000E+00
  0.00000000E+00  0.00000000E+00  0.00000000E+00  0.00000000E+00  0.00000000E+00
  0.00000000E+00  0.00000000E+00  7.08742682E-02  3.39752839E-01  7.27158577E-01
  1.00000000E+00  0.00000000E+00  0.00000000E+00  0.00000000E+00  0.00000000E+00
  0.00000000E+00  0.00000000E+00  0.00000000E+00  4.06100998E-03  3.06812999E-02
  1.30451999E-01  3.27204999E-01  4.52850998E-01  2.56041999E-01 -1.45104895E-02
  3.10262776E-01  7.54482456E-01  1.00000000E+00  0.00000000E+00  0.00000000E+00
  0.00000000E+00  0.00000000E+00  0.00000000E+00  0.00000000E+00  0.00000000E+00
  6.89990666E-02  3.16423961E-01  7.44308291E-01  1.00000000E+00  0.00000000E+00
  0.00000000E+00  0.00000000E+00  0.00000000E+00  0.00000000E+00  0.00000000E+00
  0.00000000E+00  0.00000000E+00  0.00000000E+00  0.00000000E+00  0.00000000E+00
  0.00000000E+00  0.00000000E+00  0.00000000E+00  0.00000000E+00  0.00000000E+00
  0.00000000E+00  0.00000000E+00  0.00000000E+00  0.00000000E+00  0.00000000E+00
  0.00000000E+00  0.00000000E+00  0.00000000E+00  0.00000000E+00
Coordinates of each shell                  R   N=          87
  2.53563790E+00 -1.53136106E+00  3.41621415E-01  2.53563790E+00 -1.53136106E+00
  3.41621415E-01  2.53563790E+00 -1.53136106E+00  3.41621415E-01  2.53563790E+00
 -1.53136106E+00  3.41621415E-01  2.01056810E-06  2.84008593E+00  7.18064184E-01
  2.01056810E-06  2.84008593E+00  7.18064184E-01  2.01056810E-06  2.84008593E+00
  7.18064184E-01  2.01056810E-06  2.84008593E+00  7.18064184E-01  1.80537505E-07
  4.38945476E-01 -8.28958527E-01  1.80537505E-07  4.38945476E-01 -8.28958527E-01
  1.80537505E-07  4.38945476E-01 -8.28958527E-01  1.80537505E-07  4.38945476E-01
 -8.28958527E-01  1.80537505E-07  4.38945476E-01 -8.28958527E-01 -2.53563984E+00
 -1.53135796E+00  3.41621532E-01 -2.53563984E+00 -1.53135796E+00  3.41621532E-01
 -2.53563984E+00 -1.53135796E+00  3.41621532E-01 -2.53563984E+00 -1.53135796E+00
  3.41621532E-01  2.46885550E+00 -3.39079025E+00 -5.55399204E-01  2.46885550E+00
 -3.39079025E+00 -5.55399204E-01  4.31155246E+00 -5.94131690E-01 -1.29346740E-01
  4.31155246E+00 -5.94131690E-01 -1.29346740E-01  2.37735883E+00 -1.69883389E+00
  2.39442867E+00  2.37735883E+00 -1.69883389E+00  2.39442867E+00 -2.46886032E+00
 -3.39078655E+00 -5.55400595E-01 -2.46886032E+00 -3.39078655E+00 -5.55400595E-01
 -2.37736060E+00 -1.69883278E+00  2.39442861E+00 -2.37736060E+00 -1.69883278E+00
  2.39442861E+00 -4.31155322E+00 -5.94125759E-01 -1.29345459E-01 -4.31155322E+00
 -5.94125759E-01 -1.29345459E-01
Constraint Structure                       R   N=          30
  2.53563790E+00 -1.53136106E+00  3.41621415E-01  2.01056810E-06  2.84008593E+00
  7.18064184E-01  1.80537505E-07  4.38945476E-01 -8.28958527E-01 -2.53563984E+00
 -1.53135796E+00  3.41621532E-01  2.46885550E+00 -3.39079025E+00 -5.55399204E-01
  4.31155246E+00 -5.94131690E-01 -1.29346740E-01  2.37735883E+00 -1.69883389E+00
  2.39442867E+00 -2.46886032E+00 -3.39078655E+00 -5.55400595E-01 -2.37736060E+00
 -1.69883278E+00  2.39442861E+00 -4.31155322E+00 -5.94125759E-01 -1.29345459E-01
Num ILSW                                   I              100
ILSW                                       I   N=         100
           0           1           0           0           2           0
           0           0           0           0           0          -1
           0           0           0           0           0           0
           0           0           0           0           1           0
           1           0           0           0           0           0
           0           0      100000           0          -1           0
           0           0           0           0           0           0
           0           0           0           1           1           0
           0           0           1           0           0           0
           0           0           4          40           0           0
           0           0           0           0           0           0
           0           0           0           0           0           0
           0           0           0           0           0           0
           0           0           0           0           0           0
           0           0           0           0           0           0
           0           0           0           0           0           0
           0           0           0           0
Num RLSW                                   I               40
RLSW                                       R   N=          40
  1.00000000E+00  1.00000000E+00  1.00000000E+00  1.00000000E+00  1.00000000E+00
  0.00000000E+00  0.00000000E+00  1.00000000E+00  0.00000000E+00  0.00000000E+00
  0.00000000E+00  0.00000000E+00  1.00000000E+00  0.00000000E+00  0.00000000E+00
  0.00000000E+00  0.00000000E+00  1.00000000E+00  0.00000000E+00  0.00000000E+00
  0.00000000E+00  0.00000000E+00  1.00000000E+00  0.00000000E+00  0.00000000E+00
  0.00000000E+00  0.00000000E+00  1.00000000E+00  0.00000000E+00  0.00000000E+00
  0.00000000E+00  0.00000000E+00  0.00000000E+00  0.00000000E+00  0.00000000E+00
  0.00000000E+00  0.00000000E+00  0.00000000E+00  1.00000000E+00  1.00000000E+00
MxBond                                     I                4
NBond                                      I   N=          10
           4           1           3           4           1           1
           1           1           1           1
IBond                                      I   N=          40
           3           5           6           7           3           0
           0           0           1           2           4           0
           3           8           9          10           1           0
           0           0           1           0           0           0
           1           0           0           0           4           0
           0           0           4           0           0           0
           4           0           0           0
RBond                                      R   N=          40
  1.00000000E+00  1.00000000E+00  1.00000000E+00  1.00000000E+00  2.00000000E+00
  0.00000000E+00  0.00000000E+00  0.00000000E+00  1.00000000E+00  2.00000000E+00
  1.00000000E+00  0.00000000E+00  1.00000000E+00  1.00000000E+00  1.00000000E+00
  1.00000000E+00  1.00000000E+00  0.00000000E+00  0.00000000E+00  0.00000000E+00
  1.00000000E+00  0.00000000E+00  0.00000000E+00  0.00000000E+00  1.00000000E+00
  0.00000000E+00  0.00000000E+00  0.00000000E+00  1.00000000E+00  0.00000000E+00
  0.00000000E+00  0.00000000E+00  1.00000000E+00  0.00000000E+00  0.00000000E+00
  0.00000000E+00  1.00000000E+00  0.00000000E+00  0.00000000E+00  0.00000000E+00
Virial Ratio                               R      2.001050607262275E+00
SCF Energy                                 R     -5.515358133827842E+02
MP2 Energy                                 R     -5.521123301941943E+02
Total Energy                               R     -5.521123301941943E+02
Post-SCF wavefunction norm                 R      1.546414827962995E+00
RMS Force                                  R      5.474811880463452E-07
RMS Density                                R      1.827579956830119E-09
External E-field                           R   N=          35
  0.00000000E+00  0.00000000E+00  0.00000000E+00  0.00000000E+00  0.00000000E+00
  0.00000000E+00  0.00000000E+00  0.00000000E+00  0.00000000E+00  0.00000000E+00
  0.00000000E+00  0.00000000E+00  0.00000000E+00  0.00000000E+00  0.00000000E+00
  0.00000000E+00  0.00000000E+00  0.00000000E+00  0.00000000E+00  0.00000000E+00
  0.00000000E+00  0.00000000E+00  0.00000000E+00  0.00000000E+00  0.00000000E+00
  0.00000000E+00  0.00000000E+00  0.00000000E+00  0.00000000E+00  0.00000000E+00
  0.00000000E+00  0.00000000E+00  0.00000000E+00  0.00000000E+00  0.00000000E+00
IOpCl                                      I                0
IROHF                                      I                0
Alpha Orbital Energies                     R   N=          76
 -9.20618902E+01 -2.05018491E+01 -1.12638141E+01 -1.12637993E+01 -9.05777505E+00
 -6.74062050E+00 -6.74051211E+00 -6.73829641E+00 -1.32061416E+00 -1.06540441E+00
 -9.75898641E-01 -8.17951933E-01 -6.40539996E-01 -6.27249262E-01 -6.20319042E-01
 -5.86111303E-01 -5.55933871E-01 -5.43868083E-01 -5.04874199E-01 -4.08139167E-01
 -3.61481211E-01  1.95428352E-01  2.05230908E-01  2.14664690E-01  2.58995160E-01
  2.63429719E-01  2.99904404E-01  3.01346617E-01  3.12986441E-01  3.32671809E-01
  5.08214053E-01  5.35259324E-01  6.18090522E-01  6.47318223E-01  6.59728220E-01
  7.17522050E-01  7.73263976E-01  7.87261217E-01  8.27387062E-01  9.69257889E-01
  1.01621881E+00  1.05457880E+00  1.06900080E+00  1.11185933E+00  1.11975101E+00
  1.14655124E+00  1.16745922E+00  1.16859257E+00  1.18466670E+00  1.18711138E+00
  1.27421527E+00  1.36926876E+00  1.39012406E+00  1.44790080E+00  1.51788860E+00
  1.55662342E+00  1.76916588E+00  1.93339236E+00  1.96258786E+00  2.02590350E+00
  2.05209935E+00  2.17702009E+00  2.19070801E+00  2.38054832E+00  2.40233142E+00
  2.43164512E+00  2.51527794E+00  2.53127155E+00  2.55481102E+00  2.57256841E+00
  2.59582747E+00  3.13090733E+00  4.25134763E+00  4.32944478E+00  4.60867998E+00
  4.62886998E+00
Alpha MO coefficients                      R   N=        5776
 -2.22400254E-06  5.80880225E-05 -7.95518669E-05  6.83463249E-05 -3.73201249E-05
  1.10545479E-04  1.68356127E-04 -1.23477976E-04  3.78900077E-05 -3.20106114E-05
 -1.78187906E-05 -1.33768579E-05  1.94393220E-05 -7.72106866E-06  2.73931665E-06
  4.07374660E-05  1.33265837E-04  3.17291871E-11  3.67500517E-05  4.13403988E-05
 -3.44884756E-04 -5.56128893E-11 -5.49664432E-05 -1.19098721E-04  1.22231967E-04
 -8.17486515E-06  7.25988301E-05 -1.14665516E-10 -6.85576502E-11 -9.11077882E-05
  9.96260548E-01  1.42210149E-02 -3.59606389E-12 -2.13532769E-05  9.42664621E-05
 -2.00381288E-02  3.81338041E-11  8.17069940E-05 -9.05183163E-05  3.00618923E-03
 -1.23262188E-10 -2.45819113E-04  2.85262437E-04  6.89217413E-03  6.90415128E-03
  6.90023082E-03  7.31137407E-12 -9.31470878E-13  1.32951333E-05 -2.22399774E-06
  5.80880450E-05  7.95519527E-05  6.83462472E-05 -3.73200905E-05  1.10545418E-04
 -1.68356318E-04 -1.23477899E-04  3.78897304E-05 -3.20106541E-05 -1.78187299E-05
 -1.33768708E-05 -1.94393172E-05  7.72106297E-06  2.73932188E-06 -2.57062597E-05
 -2.04737929E-04 -2.26008822E-05 -1.93015626E-04 -2.08070973E-05 -1.94015130E-04
 -2.57062719E-05 -2.04738120E-04 -2.08070778E-05 -1.94014875E-04 -2.26008829E-05
 -1.93015638E-04  1.48397460E-06  1.76789418E-05  8.98088673E-06 -1.38489512E-05
 -5.27757174E-06 -3.62389289E-05  3.29380421E-05 -2.19322130E-05  3.06249924E-05
 -7.70687039E-06 -2.08673386E-05 -1.23766788E-06  1.18567058E-05  4.31452719E-06
 -3.95043360E-06  9.94733103E-01  2.09301194E-02 -9.14240592E-10 -1.16656521E-03
 -6.91749456E-04  3.70386844E-03  4.18288287E-10  5.34511043E-04  2.99894275E-04
 -3.83858002E-03 -4.03004725E-03 -3.87548282E-03 -1.90438103E-10 -1.17156553E-10
 -1.60164863E-04  1.58196189E-05 -6.31091287E-05 -2.98758591E-11 -4.01653497E-05
 -2.97327951E-05  5.38328386E-04  2.87288198E-10  3.83397254E-04  2.59150576E-04
 -7.01746717E-05 -1.91665780E-10 -2.47770885E-04 -7.12044121E-05 -1.18471959E-04
 -3.26409215E-05 -8.91876169E-05  7.43833708E-11  5.23407463E-11  7.72241283E-05
  1.48397989E-06  1.76789416E-05 -8.98089091E-06 -1.38489289E-05 -5.27755901E-06
 -3.62390334E-05 -3.29380988E-05 -2.19322037E-05  3.06249079E-05 -7.70687773E-06
 -2.08672854E-05 -1.23765280E-06 -1.18567190E-05 -4.31453308E-06 -3.95042515E-06
  1.05227633E-05 -3.18288804E-05  4.62526402E-06 -1.58588967E-06  7.15403403E-06
 -2.82649539E-05  1.05227657E-05 -3.18289258E-05  7.15402224E-06 -2.82648296E-05
  4.62526596E-06 -1.58590518E-06 -7.04080291E-01 -2.02393391E-02  3.14989715E-04
 -5.62664407E-05  1.03308472E-04  9.93500870E-03 -8.32801524E-04 -2.13354223E-04
  1.02790754E-04  1.38522513E-03  1.27998148E-03  1.26670994E-03 -8.60781445E-05
  5.11927063E-05 -3.17106628E-05  1.65962945E-09  7.14535977E-09  5.65672046E-05
  1.89599903E-09  1.24465994E-09 -5.50201410E-08  4.34180357E-06  1.53589727E-08
 -2.79092599E-09  4.36177868E-09  2.47613026E-09  2.73848042E-09  8.40968657E-05
 -6.16050051E-05  5.94932254E-10 -2.32424135E-10 -4.44451971E-09  6.45194125E-05
  6.00851661E-10 -1.45110125E-09  7.06493893E-09 -6.32930681E-04 -1.04966525E-08
  1.10675087E-08  2.30824832E-07 -1.19576913E-03 -5.89265592E-08  7.42696863E-08
 -8.67689012E-09 -8.67480824E-09 -1.17942060E-08  3.69267200E-05  2.74387002E-06
  2.68256925E-09  7.04137548E-01  2.02409758E-02  3.14999943E-04  5.62775069E-05
 -1.03318616E-04 -9.93583929E-03 -8.32843321E-04  2.13277776E-04 -1.02767645E-04
 -1.38534075E-03 -1.28009458E-03 -1.26681941E-03 -8.60902275E-05  5.11974570E-05
  3.17144618E-05 -1.00565595E-04 -1.97761497E-03 -4.74111927E-05 -1.15921878E-03
 -1.29445767E-04 -1.97593611E-03  1.00567355E-04  1.97771485E-03  1.29455160E-04
  1.97603773E-03  4.74190718E-05  1.15936821E-03  7.04108522E-01  2.01235459E-02
 -1.25713603E-04  1.41742917E-04 -1.23190653E-04 -1.02016429E-02  5.14949316E-04
 -9.55355868E-04  2.72232880E-04 -1.41954659E-03 -1.39270079E-03 -1.34695526E-03
  1.49647836E-04 -5.94280916E-05  4.78151133E-05  3.96274707E-05  1.69879962E-04
 -2.28358202E-09  4.82259752E-05  3.11744757E-05 -1.32608805E-03  1.81078744E-10
  3.69550389E-04 -7.13038509E-05  1.01865352E-04  6.13207378E-05  6.28239669E-05
 -3.49688103E-09  2.50404947E-09  1.43143213E-05 -5.64201833E-06 -1.08408538E-04
 -2.61726991E-09  1.60393331E-05 -3.57545652E-05  1.77795783E-04  2.55864010E-08
 -2.70095954E-04  2.72484382E-04  5.64432340E-03  4.78672361E-08 -1.46768320E-03
  1.80762985E-03 -2.12753235E-04 -2.12539590E-04 -2.89857913E-04 -1.53558346E-09
 -1.01067923E-10  6.45468628E-05  7.04051262E-01  2.01219000E-02  1.25688137E-04
  1.41738225E-04 -1.23182155E-04 -1.02008352E-02 -5.14882709E-04 -9.55372645E-04
  2.72240793E-04 -1.41943422E-03 -1.39259644E-03 -1.34685216E-03 -1.49640763E-04
  5.94239550E-05  4.78124202E-05  2.15491123E-05  1.22263527E-03  9.60042961E-05
  1.83781686E-03  1.15158188E-04  1.25648956E-03  2.15410726E-05  1.22247412E-03
  1.15147549E-04  1.25632943E-03  9.60004831E-05  1.83772261E-03 -1.45279516E-04
  2.00351926E-04  7.31154772E-05 -1.33249744E-04  2.02916357E-05  1.18055736E-03
 -1.05795860E-03  9.74547266E-04 -8.55053835E-05 -1.91432123E-04 -1.58531784E-04
 -5.08036200E-05  1.62595572E-04 -1.40176855E-04  1.12042114E-04 -2.70900335E-04
 -1.36329640E-04 -1.75336739E-10 -2.07915737E-04 -2.81426863E-04  1.71924096E-03
  2.96343079E-10  2.95269904E-04  8.90523702E-04 -2.10211253E-04 -3.43739803E-04
 -3.11929857E-04 -1.05092499E-10 -1.23491804E-10 -1.55924637E-04 -2.81818075E-01
  1.03073012E+00  2.67779619E-10 -6.32228693E-04  7.94576167E-03  2.28198829E-02
  2.14429375E-10 -1.22975609E-05  1.78745584E-03 -1.06266953E-02  6.62419640E-10
  1.66016273E-03 -2.78958014E-03 -4.09363773E-04  4.92257800E-05 -5.88269704E-04
  4.60577023E-10  2.22307261E-10  2.79411969E-04 -1.45279556E-04  2.00351818E-04
 -7.31156818E-05 -1.33249755E-04  2.02914371E-05  1.18055798E-03  1.05795996E-03
  9.74546508E-04 -8.55036690E-05 -1.91432515E-04 -1.58531570E-04 -5.08036122E-05
 -1.62595512E-04  1.40177058E-04  1.12041872E-04 -1.63136092E-05  8.63414756E-04
 -5.65949366E-05  5.73116383E-04 -1.33891354E-04  7.84813394E-04 -1.63135741E-05
  8.63415698E-04 -1.33891440E-04  7.84811703E-04 -5.65949563E-05  5.73116375E-04
  1.00543516E-04 -3.75302802E-04 -2.19250896E-04  1.46770039E-04 -1.26156584E-04
 -6.95325752E-05  1.65757020E-04 -5.67339984E-04 -9.12586514E-05  4.16834292E-04
 -3.01071529E-05  9.24022343E-05 -1.84059324E-04  2.85886495E-04 -5.62909639E-05
 -3.10046918E-04  8.60864936E-04 -3.08235299E-10 -5.60140794E-04 -3.14895055E-04
 -3.53872807E-03  2.05775070E-09  2.75435364E-03  1.37204995E-03  2.58055156E-04
  2.46072816E-04  1.52885906E-04  3.96908191E-10  1.66896196E-10 -8.87315383E-05
 -2.14046483E-04  7.33384221E-04  1.94027164E-06  9.93001141E-01 -3.65007090E-03
 -1.07294776E-03  4.55844372E-08  2.39540164E-02  7.53132389E-04  4.10397067E-03
 -1.00644796E-08 -5.36342935E-03  1.63260321E-03 -4.04071490E-04  7.98826829E-04
  4.18639514E-04  1.65684994E-10  2.71725544E-09  1.81841742E-03  1.00543594E-04
 -3.75305255E-04  2.19251677E-04  1.46770531E-04 -1.26156978E-04 -6.95251049E-05
 -1.65756643E-04 -5.67339220E-04 -9.12597338E-05  4.16834957E-04 -3.01069284E-05
  9.24021075E-05  1.84059754E-04 -2.85887136E-04 -5.62912446E-05 -8.30961294E-05
 -1.16750470E-03 -5.29258218E-05 -1.78500900E-05 -3.76913145E-05 -5.91368300E-04
 -8.30967652E-05 -1.16750668E-03 -3.76916297E-05 -5.91370297E-04 -5.29261873E-05
 -1.78534574E-05 -2.65676572E-05  9.10513079E-04  2.38025450E-04 -2.35498080E-04
  1.67588885E-04 -2.69013820E-03  2.86238748E-04 -4.78285072E-04  4.49230759E-05
 -1.30530119E-04 -2.26838718E-04  6.79494345E-05  3.88558723E-04 -1.92952377E-04
  2.62861995E-04  3.59110819E-10 -1.16989611E-09  8.14182916E-05  6.61477567E-10
  3.89427094E-10  4.85348827E-09  8.92315471E-06 -3.58276205E-09 -1.76630153E-09
  3.98521675E-11 -7.87509606E-10 -2.99305522E-10  3.35905144E-04  1.94897241E-04
 -3.23910171E-11  2.99130583E-10 -1.02613952E-09  9.93228920E-01 -1.94050042E-06
 -7.45429965E-08  1.50986516E-09  2.28228246E-02 -4.59209386E-08 -2.69736265E-09
 -5.57702537E-09 -5.25971187E-03  1.04791197E-08 -1.75386426E-09 -9.87225534E-11
 -3.43450254E-10 -6.46986082E-10 -6.68115986E-04  1.09150700E-03 -3.01468458E-09
  2.65674032E-05 -9.10512076E-04  2.38025150E-04  2.35497457E-04 -1.67588508E-04
  2.69013863E-03  2.86239730E-04  4.78285794E-04 -4.49236565E-05  1.30529798E-04
  2.26838055E-04 -6.79497909E-05  3.88558284E-04 -1.92952004E-04 -2.62861599E-04
  1.41550085E-04  5.39864892E-04  1.37705563E-04  1.46334882E-03  1.77319665E-04
  7.52912660E-04 -1.41549974E-04 -5.39862574E-04 -1.77319410E-04 -7.52910276E-04
 -1.37705495E-04 -1.46334890E-03 -7.08914865E-06  3.20754805E-04  9.35370131E-05
 -6.62804089E-05  3.92649070E-05 -1.55771088E-03  5.82808151E-04 -6.24264601E-04
 -3.63724754E-04 -1.12704149E-04 -2.50676998E-05  1.42048765E-04  2.19727928E-04
  1.57301116E-04 -7.65234337E-05 -2.01324825E-04  4.26121861E-04 -3.86868449E-10
 -5.34233031E-04 -1.35737329E-04 -1.96881820E-03  9.67924014E-10  1.33866733E-03
  4.95515581E-04  8.81926773E-05  1.73098865E-04  4.79941220E-04  1.06330322E-10
  3.44458263E-10  4.28910633E-04  2.54237523E-03 -9.71911906E-03  8.14863977E-08
  3.36410166E-03  9.93764905E-01  5.37738020E-03  2.15260421E-09  5.64872122E-04
  2.06980686E-02  2.19789371E-03 -1.04552263E-10 -1.31790232E-04 -3.45705837E-03
 -2.04058538E-03 -1.82476282E-03 -8.37239421E-04  1.28349872E-10  3.33023381E-10
  1.76537795E-04 -7.08921806E-06  3.20754386E-04 -9.35372114E-05 -6.62801715E-05
  3.92649057E-05 -1.55770926E-03 -5.82807934E-04 -6.24264129E-04 -3.63724615E-04
 -1.12704753E-04 -2.50673153E-05  1.42048846E-04 -2.19727658E-04 -1.57301251E-04
 -7.65231101E-05  5.04642270E-05 -2.97658683E-04  9.89532452E-05 -2.04132370E-05
  1.74900194E-04  8.77727222E-04  5.04641319E-05 -2.97659730E-04  1.74899866E-04
  8.77726655E-04  9.89532489E-05 -2.04123172E-05 -2.19238758E-02  3.57405342E-02
 -1.94319735E-02  1.74533885E-02 -6.05593792E-03  4.61602373E-02 -1.21253136E-02
  1.14310150E-02 -1.81339314E-03  3.92188404E-03  2.35079753E-03  3.96912440E-04
 -4.01531070E-03  1.89892116E-03 -1.52407482E-03 -1.82274538E-01  4.00919047E-01
 -7.11852855E-08 -9.63745594E-02 -5.91651914E-02  3.92600258E-01 -3.63354393E-08
 -4.92749514E-02 -2.54032102E-02 -1.62595687E-03  1.78871206E-02  4.94320115E-03
  1.70883878E-08  1.04792442E-08  1.40221753E-02  3.86938171E-02 -1.76760141E-01
 -4.36124937E-08 -5.47432564E-02 -4.76887505E-02  3.40788114E-01  8.94211912E-08
  1.11151810E-01  1.00325101E-01  4.14763952E-03 -9.69056144E-09 -7.97303512E-03
 -2.72184520E-02 -1.57111968E-02  3.24633632E-02  2.91876889E-03  4.25515177E-08
  2.96165892E-08  3.78019051E-02 -2.19238741E-02  3.57405284E-02  1.94319935E-02
  1.74533625E-02 -6.05594145E-03  4.61602436E-02  1.21253286E-02  1.14309992E-02
 -1.81338841E-03  3.92189191E-03  2.35078895E-03  3.96911874E-04  4.01530839E-03
 -1.89892360E-03 -1.52407325E-03  7.48588976E-03 -1.26193763E-03  8.33372579E-03
  1.72559679E-03  8.69659407E-03  3.15812402E-03  7.48589016E-03 -1.26193934E-03
  8.69658707E-03  3.15811411E-03  8.33372558E-03  1.72559704E-03 -1.10324448E-01
  2.02468557E-01 -3.85017419E-02  1.55656095E-02 -1.54397112E-02  2.11729090E-01
 -1.84049851E-02  3.16832337E-03 -7.38524731E-03  7.81224373E-03  5.61655054E-03
  5.09205952E-03 -2.34916677E-03  1.76816777E-03 -9.69464181E-04  8.76935655E-02
 -1.91552432E-01 -8.52523717E-09 -1.39813592E-02  5.45143047E-03 -2.36402691E-01
  3.07917378E-10  7.90859956E-04  4.02253546E-03  1.38166293E-03  2.01935290E-03
  1.01155506E-03  7.87658473E-10 -1.44665142E-10 -3.73642811E-04  3.24953297E-02
 -1.48260060E-01  5.91011609E-08  8.14418939E-02 -4.55181868E-03  3.02408589E-01
 -1.35655473E-07 -1.87269083E-01  1.27241136E-02  7.39247180E-02  7.62989998E-10
 -1.05137944E-03 -4.12457773E-03  3.19274671E-02 -5.32623092E-03 -6.11407515E-03
 -2.82553493E-08 -2.85733168E-08 -3.76061822E-02 -1.10324465E-01  2.02468588E-01
  3.85017591E-02  1.55655616E-02 -1.54397263E-02  2.11729118E-01  1.84049856E-02
  3.16830139E-03 -7.38525988E-03  7.81224897E-03  5.61654543E-03  5.09206262E-03
  2.34916281E-03 -1.76817180E-03 -9.69464038E-04  6.93933925E-02  1.09495936E-02