12355452                                                                
Freq      RMP2-FC                                                     6-31G(d)            
Number of atoms                            I               14
Info1-9                                    I   N=           9
          26          24        1002           0           0         100
           6           2           1
Charge                                     I                0
Multiplicity                               I                1
Number of electrons                        I               40
Number of alpha electrons                  I               20
Number of beta electrons                   I               20
Number of basis functions                  I               93
Number of independent functions            I               93
Number of point charges in /Mol/           I                0
Number of translation vectors              I                0
Atomic numbers                             I   N=          14
           7           6           6           6           6           1
           1           1           1           1           1           1
           1           1
Nuclear charges                            R   N=          14
  7.00000000E+00  6.00000000E+00  6.00000000E+00  6.00000000E+00  6.00000000E+00
  1.00000000E+00  1.00000000E+00  1.00000000E+00  1.00000000E+00  1.00000000E+00
  1.00000000E+00  1.00000000E+00  1.00000000E+00  1.00000000E+00
Current cartesian coordinates              R   N=          42
 -2.50351417E+00 -2.21858802E+00 -4.73443951E-01  1.54623123E+00 -8.60714981E-01
  1.03376240E+00 -1.11575751E+00 -3.25612773E-01  1.69355818E-01  3.55094996E+00
  2.87201349E-01 -7.10404330E-01 -1.92067425E+00  2.41216556E+00  9.28988858E-02
  1.79640123E+00 -1.19165163E-01  2.95542945E+00  1.75799870E+00 -2.91377715E+00
  1.11759899E+00  5.44488687E+00 -2.64373114E-01 -9.55387079E-02  3.47235061E+00
  2.35182175E+00 -7.18880000E-01  3.28942912E+00 -3.79701793E-01 -2.64929982E+00
 -1.49310531E+00  3.35005340E+00  1.88715170E+00 -9.05128414E-01  3.43496984E+00
 -1.39108743E+00 -3.94702078E+00  2.57849592E+00 -2.75949623E-01 -4.25570951E+00
 -1.58644247E+00 -1.02899353E+00
Force Field                                I                0
Int Atom Types                             I   N=          14
           0           0           0           0           0           0
           0           0           0           0           0           0
           0           0
MM charges                                 R   N=          14
  0.00000000E+00  0.00000000E+00  0.00000000E+00  0.00000000E+00  0.00000000E+00
  0.00000000E+00  0.00000000E+00  0.00000000E+00  0.00000000E+00  0.00000000E+00
  0.00000000E+00  0.00000000E+00  0.00000000E+00  0.00000000E+00
Integer atomic weights                     I   N=          14
          14          12          12          12          12           1
           1           1           1           1           1           1
           1           1
Real atomic weights                        R   N=          14
  1.40030740E+01  1.20000000E+01  1.20000000E+01  1.20000000E+01  1.20000000E+01
  1.00782504E+00  1.00782504E+00  1.00782504E+00  1.00782504E+00  1.00782504E+00
  1.00782504E+00  1.00782504E+00  1.00782504E+00  1.00782504E+00
Atom fragment info                         I   N=          14
           0           0           0           0           0           0
           0           0           0           0           0           0
           0           0
Atom residue num                           I   N=          14
           0           0           0           0           0           0
           0           0           0           0           0           0
           0           0
Nuclear spins                              I   N=          14
           2           0           0           0           0           1
           1           1           1           1           1           1
           1           1
Nuclear ZEff                               R   N=          14
 -4.55000000E+00 -3.60000000E+00 -3.60000000E+00 -3.60000000E+00 -3.60000000E+00
 -1.00000000E+00 -1.00000000E+00 -1.00000000E+00 -1.00000000E+00 -1.00000000E+00
 -1.00000000E+00 -1.00000000E+00 -1.00000000E+00 -1.00000000E+00
Nuclear QMom                               R   N=          14
  2.04400000E+00  0.00000000E+00  0.00000000E+00  0.00000000E+00  0.00000000E+00
  0.00000000E+00  0.00000000E+00  0.00000000E+00  0.00000000E+00  0.00000000E+00
  0.00000000E+00  0.00000000E+00  0.00000000E+00  0.00000000E+00
Nuclear GFac                               R   N=          14
  4.03761000E-01  0.00000000E+00  0.00000000E+00  0.00000000E+00  0.00000000E+00
  2.79284600E+00  2.79284600E+00  2.79284600E+00  2.79284600E+00  2.79284600E+00
  2.79284600E+00  2.79284600E+00  2.79284600E+00  2.79284600E+00
MicOpt                                     I   N=          14
          -1          -1          -1          -1          -1          -1
          -1          -1          -1          -1          -1          -1
          -1          -1
Number of contracted shells                I               38
Number of primitive shells                 I               91
Pure/Cartesian d shells                    I                1
Pure/Cartesian f shells                    I                0
Highest angular momentum                   I                2
Largest degree of contraction              I                6
Shell types                                I   N=          38
           0          -1          -1           2           0          -1
          -1           2           0          -1          -1           2
           0          -1          -1           2           0          -1
          -1           2           0           0           0           0
           0           0           0           0           0           0
           0           0           0           0           0           0
           0           0
Number of primitives per shell             I   N=          38
           6           3           1           1           6           3
           1           1           6           3           1           1
           6           3           1           1           6           3
           1           1           3           1           3           1
           3           1           3           1           3           1
           3           1           3           1           3           1
           3           1
Shell to atom map                          I   N=          38
           1           1           1           1           2           2
           2           2           3           3           3           3
           4           4           4           4           5           5
           5           5           6           6           7           7
           8           8           9           9          10          10
          11          11          12          12          13          13
          14          14
Primitive exponents                        R   N=          91
  4.17351146E+03  6.27457911E+02  1.42902093E+02  4.02343293E+01  1.28202129E+01
  4.39043701E+00  1.16263619E+01  2.71627981E+00  7.72218397E-01  2.12031498E-01
  8.00000000E-01  3.04752488E+03  4.57369518E+02  1.03948685E+02  2.92101553E+01
  9.28666296E+00  3.16392696E+00  7.86827235E+00  1.88128854E+00  5.44249258E-01
  1.68714478E-01  8.00000000E-01  3.04752488E+03  4.57369518E+02  1.03948685E+02
  2.92101553E+01  9.28666296E+00  3.16392696E+00  7.86827235E+00  1.88128854E+00
  5.44249258E-01  1.68714478E-01  8.00000000E-01  3.04752488E+03  4.57369518E+02
  1.03948685E+02  2.92101553E+01  9.28666296E+00  3.16392696E+00  7.86827235E+00
  1.88128854E+00  5.44249258E-01  1.68714478E-01  8.00000000E-01  3.04752488E+03
  4.57369518E+02  1.03948685E+02  2.92101553E+01  9.28666296E+00  3.16392696E+00
  7.86827235E+00  1.88128854E+00  5.44249258E-01  1.68714478E-01  8.00000000E-01
  1.87311370E+01  2.82539436E+00  6.40121692E-01  1.61277759E-01  1.87311370E+01
  2.82539436E+00  6.40121692E-01  1.61277759E-01  1.87311370E+01  2.82539436E+00
  6.40121692E-01  1.61277759E-01  1.87311370E+01  2.82539436E+00  6.40121692E-01
  1.61277759E-01  1.87311370E+01  2.82539436E+00  6.40121692E-01  1.61277759E-01
  1.87311370E+01  2.82539436E+00  6.40121692E-01  1.61277759E-01  1.87311370E+01
  2.82539436E+00  6.40121692E-01  1.61277759E-01  1.87311370E+01  2.82539436E+00
  6.40121692E-01  1.61277759E-01  1.87311370E+01  2.82539436E+00  6.40121692E-01
  1.61277759E-01
Contraction coefficients                   R   N=          91
  1.83477216E-03  1.39946270E-02  6.85865518E-02  2.32240873E-01  4.69069948E-01
  3.60455199E-01 -1.14961182E-01 -1.69117479E-01  1.14585195E+00  1.00000000E+00
  1.00000000E+00  1.83473713E-03  1.40373228E-02  6.88426223E-02  2.32184443E-01
  4.67941348E-01  3.62311985E-01 -1.19332420E-01 -1.60854152E-01  1.14345644E+00
  1.00000000E+00  1.00000000E+00  1.83473713E-03  1.40373228E-02  6.88426223E-02
  2.32184443E-01  4.67941348E-01  3.62311985E-01 -1.19332420E-01 -1.60854152E-01
  1.14345644E+00  1.00000000E+00  1.00000000E+00  1.83473713E-03  1.40373228E-02
  6.88426223E-02  2.32184443E-01  4.67941348E-01  3.62311985E-01 -1.19332420E-01
 -1.60854152E-01  1.14345644E+00  1.00000000E+00  1.00000000E+00  1.83473713E-03
  1.40373228E-02  6.88426223E-02  2.32184443E-01  4.67941348E-01  3.62311985E-01
 -1.19332420E-01 -1.60854152E-01  1.14345644E+00  1.00000000E+00  1.00000000E+00
  3.34946043E-02  2.34726953E-01  8.13757326E-01  1.00000000E+00  3.34946043E-02
  2.34726953E-01  8.13757326E-01  1.00000000E+00  3.34946043E-02  2.34726953E-01
  8.13757326E-01  1.00000000E+00  3.34946043E-02  2.34726953E-01  8.13757326E-01
  1.00000000E+00  3.34946043E-02  2.34726953E-01  8.13757326E-01  1.00000000E+00
  3.34946043E-02  2.34726953E-01  8.13757326E-01  1.00000000E+00  3.34946043E-02
  2.34726953E-01  8.13757326E-01  1.00000000E+00  3.34946043E-02  2.34726953E-01
  8.13757326E-01  1.00000000E+00  3.34946043E-02  2.34726953E-01  8.13757326E-01
  1.00000000E+00
P(S=P) Contraction coefficients            R   N=          91
  0.00000000E+00  0.00000000E+00  0.00000000E+00  0.00000000E+00  0.00000000E+00
  0.00000000E+00  6.75797439E-02  3.23907296E-01  7.40895140E-01  1.00000000E+00
  0.00000000E+00  0.00000000E+00  0.00000000E+00  0.00000000E+00  0.00000000E+00
  0.00000000E+00  0.00000000E+00  6.89990666E-02  3.16423961E-01  7.44308291E-01
  1.00000000E+00  0.00000000E+00  0.00000000E+00  0.00000000E+00  0.00000000E+00
  0.00000000E+00  0.00000000E+00  0.00000000E+00  6.89990666E-02  3.16423961E-01
  7.44308291E-01  1.00000000E+00  0.00000000E+00  0.00000000E+00  0.00000000E+00
  0.00000000E+00  0.00000000E+00  0.00000000E+00  0.00000000E+00  6.89990666E-02
  3.16423961E-01  7.44308291E-01  1.00000000E+00  0.00000000E+00  0.00000000E+00
  0.00000000E+00  0.00000000E+00  0.00000000E+00  0.00000000E+00  0.00000000E+00
  6.89990666E-02  3.16423961E-01  7.44308291E-01  1.00000000E+00  0.00000000E+00
  0.00000000E+00  0.00000000E+00  0.00000000E+00  0.00000000E+00  0.00000000E+00
  0.00000000E+00  0.00000000E+00  0.00000000E+00  0.00000000E+00  0.00000000E+00
  0.00000000E+00  0.00000000E+00  0.00000000E+00  0.00000000E+00  0.00000000E+00
  0.00000000E+00  0.00000000E+00  0.00000000E+00  0.00000000E+00  0.00000000E+00
  0.00000000E+00  0.00000000E+00  0.00000000E+00  0.00000000E+00  0.00000000E+00
  0.00000000E+00  0.00000000E+00  0.00000000E+00  0.00000000E+00  0.00000000E+00
  0.00000000E+00  0.00000000E+00  0.00000000E+00  0.00000000E+00  0.00000000E+00
  0.00000000E+00
Coordinates of each shell                  R   N=         114
 -2.50351417E+00 -2.21858802E+00 -4.73443951E-01 -2.50351417E+00 -2.21858802E+00
 -4.73443951E-01 -2.50351417E+00 -2.21858802E+00 -4.73443951E-01 -2.50351417E+00
 -2.21858802E+00 -4.73443951E-01  1.54623123E+00 -8.60714981E-01  1.03376240E+00
  1.54623123E+00 -8.60714981E-01  1.03376240E+00  1.54623123E+00 -8.60714981E-01
  1.03376240E+00  1.54623123E+00 -8.60714981E-01  1.03376240E+00 -1.11575751E+00
 -3.25612773E-01  1.69355818E-01 -1.11575751E+00 -3.25612773E-01  1.69355818E-01
 -1.11575751E+00 -3.25612773E-01  1.69355818E-01 -1.11575751E+00 -3.25612773E-01
  1.69355818E-01  3.55094996E+00  2.87201349E-01 -7.10404330E-01  3.55094996E+00
  2.87201349E-01 -7.10404330E-01  3.55094996E+00  2.87201349E-01 -7.10404330E-01
  3.55094996E+00  2.87201349E-01 -7.10404330E-01 -1.92067425E+00  2.41216556E+00
  9.28988858E-02 -1.92067425E+00  2.41216556E+00  9.28988858E-02 -1.92067425E+00
  2.41216556E+00  9.28988858E-02 -1.92067425E+00  2.41216556E+00  9.28988858E-02
  1.79640123E+00 -1.19165163E-01  2.95542945E+00  1.79640123E+00 -1.19165163E-01
  2.95542945E+00  1.75799870E+00 -2.91377715E+00  1.11759899E+00  1.75799870E+00
 -2.91377715E+00  1.11759899E+00  5.44488687E+00 -2.64373114E-01 -9.55387079E-02
  5.44488687E+00 -2.64373114E-01 -9.55387079E-02  3.47235061E+00  2.35182175E+00
 -7.18880000E-01  3.47235061E+00  2.35182175E+00 -7.18880000E-01  3.28942912E+00
 -3.79701793E-01 -2.64929982E+00  3.28942912E+00 -3.79701793E-01 -2.64929982E+00
 -1.49310531E+00  3.35005340E+00  1.88715170E+00 -1.49310531E+00  3.35005340E+00
  1.88715170E+00 -9.05128414E-01  3.43496984E+00 -1.39108743E+00 -9.05128414E-01
  3.43496984E+00 -1.39108743E+00 -3.94702078E+00  2.57849592E+00 -2.75949623E-01
 -3.94702078E+00  2.57849592E+00 -2.75949623E-01 -4.25570951E+00 -1.58644247E+00
 -1.02899353E+00 -4.25570951E+00 -1.58644247E+00 -1.02899353E+00
Constraint Structure                       R   N=          42
 -2.50351417E+00 -2.21858802E+00 -4.73443951E-01  1.54623123E+00 -8.60714981E-01
  1.03376240E+00 -1.11575751E+00 -3.25612773E-01  1.69355818E-01  3.55094996E+00
  2.87201349E-01 -7.10404330E-01 -1.92067425E+00  2.41216556E+00  9.28988858E-02
  1.79640123E+00 -1.19165163E-01  2.95542945E+00  1.75799870E+00 -2.91377715E+00
  1.11759899E+00  5.44488687E+00 -2.64373114E-01 -9.55387079E-02  3.47235061E+00
  2.35182175E+00 -7.18880000E-01  3.28942912E+00 -3.79701793E-01 -2.64929982E+00
 -1.49310531E+00  3.35005340E+00  1.88715170E+00 -9.05128414E-01  3.43496984E+00
 -1.39108743E+00 -3.94702078E+00  2.57849592E+00 -2.75949623E-01 -4.25570951E+00
 -1.58644247E+00 -1.02899353E+00
Num ILSW                                   I              100
ILSW                                       I   N=         100
           0           1           0           0           2           0
           0           0           0           0           0          -1
           0           0           0           0           0           0
           0           0           0           0           1           0
           1           0           0           0           0           0
           0           0      100000           0          -1           0
           0           0           0           0           0           0
           0           0           0           1           1           0
           0           0           1           0           0           0
           0           0           4          40           0           0
           0           0           0           0           0           0
           0           0           0           0           0           0
           0           0           0           0           0           0
           0           0           0           0           0           0
           0           0           0           0           0           0
           0           0           0           0           0           0
           0           0           0           0
Num RLSW                                   I               40
RLSW                                       R   N=          40
  1.00000000E+00  1.00000000E+00  1.00000000E+00  1.00000000E+00  1.00000000E+00
  0.00000000E+00  0.00000000E+00  1.00000000E+00  0.00000000E+00  0.00000000E+00
  0.00000000E+00  0.00000000E+00  1.00000000E+00  0.00000000E+00  0.00000000E+00
  0.00000000E+00  0.00000000E+00  1.00000000E+00  0.00000000E+00  0.00000000E+00
  0.00000000E+00  0.00000000E+00  1.00000000E+00  0.00000000E+00  0.00000000E+00
  0.00000000E+00  0.00000000E+00  1.00000000E+00  0.00000000E+00  0.00000000E+00
  0.00000000E+00  0.00000000E+00  0.00000000E+00  0.00000000E+00  0.00000000E+00
  0.00000000E+00  0.00000000E+00  0.00000000E+00  1.00000000E+00  1.00000000E+00
MxBond                                     I                4
NBond                                      I   N=          14
           2           4           3           4           4           1
           1           1           1           1           1           1
           1           1
IBond                                      I   N=          56
           3          14           0           0           3           4
           6           7           1           2           5           0
           2           8           9          10           3          11
          12          13           2           0           0           0
           2           0           0           0           4           0
           0           0           4           0           0           0
           4           0           0           0           5           0
           0           0           5           0           0           0
           5           0           0           0           1           0
           0           0
RBond                                      R   N=          56
  2.00000000E+00  1.00000000E+00  0.00000000E+00  0.00000000E+00  1.00000000E+00
  1.00000000E+00  1.00000000E+00  1.00000000E+00  2.00000000E+00  1.00000000E+00
  1.00000000E+00  0.00000000E+00  1.00000000E+00  1.00000000E+00  1.00000000E+00
  1.00000000E+00  1.00000000E+00  1.00000000E+00  1.00000000E+00  1.00000000E+00
  1.00000000E+00  0.00000000E+00  0.00000000E+00  0.00000000E+00  1.00000000E+00
  0.00000000E+00  0.00000000E+00  0.00000000E+00  1.00000000E+00  0.00000000E+00
  0.00000000E+00  0.00000000E+00  1.00000000E+00  0.00000000E+00  0.00000000E+00
  0.00000000E+00  1.00000000E+00  0.00000000E+00  0.00000000E+00  0.00000000E+00
  1.00000000E+00  0.00000000E+00  0.00000000E+00  0.00000000E+00  1.00000000E+00
  0.00000000E+00  0.00000000E+00  0.00000000E+00  1.00000000E+00  0.00000000E+00
  0.00000000E+00  0.00000000E+00  1.00000000E+00  0.00000000E+00  0.00000000E+00
  0.00000000E+00
Virial Ratio                               R      2.001874316371865E+00
SCF Energy                                 R     -2.111466599176226E+02
MP2 Energy                                 R     -2.118297278197097E+02
Total Energy                               R     -2.118297278197097E+02
Post-SCF wavefunction norm                 R      1.568944251334240E+00
RMS Force                                  R      1.342579945494622E-07
RMS Density                                R      1.413575289764580E-09
External E-field                           R   N=          35
  0.00000000E+00  0.00000000E+00  0.00000000E+00  0.00000000E+00  0.00000000E+00
  0.00000000E+00  0.00000000E+00  0.00000000E+00  0.00000000E+00  0.00000000E+00
  0.00000000E+00  0.00000000E+00  0.00000000E+00  0.00000000E+00  0.00000000E+00
  0.00000000E+00  0.00000000E+00  0.00000000E+00  0.00000000E+00  0.00000000E+00
  0.00000000E+00  0.00000000E+00  0.00000000E+00  0.00000000E+00  0.00000000E+00
  0.00000000E+00  0.00000000E+00  0.00000000E+00  0.00000000E+00  0.00000000E+00
  0.00000000E+00  0.00000000E+00  0.00000000E+00  0.00000000E+00  0.00000000E+00
IOpCl                                      I                0
IROHF                                      I                0
Alpha Orbital Energies                     R   N=          93
 -1.55441111E+01 -1.12828064E+01 -1.12358024E+01 -1.12257714E+01 -1.12228708E+01
 -1.20173297E+00 -1.04242171E+00 -9.80681973E-01 -8.74561392E-01 -7.30000786E-01
 -6.51574743E-01 -6.15841762E-01 -6.02831560E-01 -5.82185157E-01 -5.53473518E-01
 -5.21000780E-01 -4.98630776E-01 -4.87758660E-01 -4.07083479E-01 -4.03489965E-01
  1.73703857E-01  2.18917782E-01  2.64843493E-01  2.77294776E-01  2.97960871E-01
  3.07414786E-01  3.16087235E-01  3.17881659E-01  3.53654408E-01  3.61490299E-01
  4.01967844E-01  4.10155792E-01  4.72725050E-01  6.08895100E-01  7.06327546E-01
  7.25975123E-01  7.51198746E-01  7.69472325E-01  7.91307779E-01  8.27657831E-01
  8.48419009E-01  9.02300225E-01  9.37534266E-01  9.97280058E-01  1.01514183E+00
  1.02101795E+00  1.06900209E+00  1.08936376E+00  1.12063991E+00  1.14302318E+00
  1.15311145E+00  1.16484855E+00  1.17360865E+00  1.18574397E+00  1.21953953E+00
  1.23255994E+00  1.24321473E+00  1.26609983E+00  1.29025116E+00  1.46774746E+00
  1.55840525E+00  1.62666654E+00  1.67678883E+00  1.68367244E+00  1.83006192E+00
  1.95460604E+00  2.01925476E+00  2.05386860E+00  2.11295183E+00  2.13312508E+00
  2.22596929E+00  2.23959805E+00  2.31182441E+00  2.32279941E+00  2.42980480E+00
  2.45873438E+00  2.55352716E+00  2.61139196E+00  2.64877907E+00  2.66170805E+00
  2.69121821E+00  2.70900540E+00  2.82801987E+00  2.86854564E+00  2.97412957E+00
  3.01837755E+00  3.23067563E+00  3.26810633E+00  4.24884317E+00  4.52354392E+00
  4.65882098E+00  4.79877110E+00  4.90563172E+00
Alpha MO coefficients                      R   N=        8649
  9.95166841E-01  2.45051530E-02 -2.83313957E-04  1.90767715E-03  5.87637190E-05
 -3.75264925E-03  1.93587229E-04 -1.83578766E-03 -8.26701207E-05 -3.06769682E-03
 -2.83074107E-03 -3.29752166E-03  1.84523864E-04  1.25690806E-04  1.14297414E-04
 -1.57442587E-05 -9.10897342E-05 -5.84564128E-07 -4.69979445E-06 -4.73835528E-06
  7.59044784E-04 -2.16964037E-05  4.62662320E-04 -2.27409439E-07 -1.63570755E-05
 -3.26135442E-06 -3.08609311E-05 -5.88160160E-05 -3.72339354E-06 -2.10038648E-05
  2.76817269E-05  2.66364589E-04  1.06940588E-04  9.37293760E-05  5.03204884E-05
  2.32193286E-03 -1.52254057E-03 -8.31390454E-04 -6.08862073E-04 -2.99457334E-04
 -3.77870792E-04 -1.01430299E-04 -2.88003730E-04 -1.22237063E-04 -1.32317801E-04
  6.20935973E-06  2.20913672E-05  2.03274879E-06  7.48571081E-06  9.50265329E-07
 -2.86823435E-04  8.01693516E-05 -5.22719373E-05 -1.64244919E-04  1.10440445E-05
  1.67471615E-05  1.81630767E-06  1.54308551E-06  1.25347388E-05 -5.48161485E-06
 -8.10549730E-06 -2.15830741E-05  1.33196712E-05  6.79115683E-05  1.52839185E-05
 -1.27691785E-04  2.57523864E-04  2.52381145E-04  9.22478746E-05  1.54120745E-05
 -6.99883038E-05 -3.93651766E-05 -6.18111432E-05  2.44991700E-05 -2.25447190E-05
 -3.55321107E-05 -1.36136872E-04  1.68365516E-05  5.39672805E-05  5.81344325E-06
  2.94366381E-05  1.46526336E-05  6.96974185E-05  1.44979502E-05 -8.21151390E-05
  1.33841076E-05 -1.02257543E-04  2.20477194E-05 -1.14276318E-04  7.83349262E-06
  2.53842455E-05  3.15559849E-04  8.17699069E-04 -4.35628172E-04  1.03852988E-04
 -5.07718971E-05 -3.92102737E-05 -7.35315684E-07 -1.57463566E-04 -2.36279884E-04
 -3.38227258E-04 -2.23583668E-04 -2.67535482E-04 -2.22401742E-04  4.13802556E-05
 -4.73050131E-05 -1.72147349E-04 -6.21158704E-05  5.67116029E-03  4.83821738E-04
  1.87975270E-05  2.00308316E-05  7.06001688E-06  1.63346127E-03 -1.48130879E-03
  4.83351074E-04  2.15471245E-04 -4.53261363E-04 -9.95530893E-05 -8.93517366E-05
 -1.64040012E-05 -1.36674482E-04  6.10780821E-05  9.95728326E-01  2.69230419E-02
  2.63538797E-05  9.75787822E-05 -5.77846853E-05 -1.06994983E-02 -1.53392740E-03
 -2.63492417E-03 -5.84985832E-04 -1.52699618E-03 -1.25678210E-03 -2.13504134E-03
  3.40738777E-04  2.98359607E-04  2.15059519E-04 -1.55769370E-04 -3.86332671E-04
  1.61204903E-04 -3.22977242E-06  4.02147487E-05  1.50328870E-03 -1.14720924E-03
 -8.31129513E-05 -9.85425794E-05 -1.04960010E-05 -1.28388482E-04 -1.00637954E-04
  5.01353121E-05 -2.42463347E-05 -1.49575416E-05  6.67483662E-03  2.76003944E-04
  3.86410464E-05  1.03378821E-04 -8.80432730E-06  3.68555160E-03  7.32167323E-04
 -1.73332008E-03  1.93606976E-04 -1.74369450E-04 -6.04029917E-04 -8.04141988E-05
  8.91682174E-05 -2.20768785E-05  2.45461981E-06 -1.48839177E-04  1.39440616E-04
  8.17669357E-06  1.30725292E-04  4.74471051E-06  4.91675611E-04 -5.70413977E-05
 -3.52191794E-04 -2.22655429E-04 -1.18283585E-04 -1.75131557E-04  1.49786312E-04
 -1.52268889E-04  2.14349823E-04 -1.05162855E-04  6.25662745E-05  1.46348889E-04
 -4.80766956E-05 -1.21034673E-05 -1.17797398E-04  1.57873684E-05 -5.28182692E-05
  5.85231287E-06  3.14103486E-04  4.09971869E-04 -8.64328722E-05  1.18848156E-04
  5.70306182E-05 -3.66587551E-05 -8.90279346E-05  5.17289476E-05  7.61382207E-05
  1.99790343E-05 -1.36079919E-03 -4.01863908E-04  2.89260709E-05 -1.36967427E-04
  1.31787983E-05  1.81570676E-03 -6.12886307E-04  4.63219360E-04 -2.15646555E-04
 -2.46741585E-05 -8.76207515E-05 -1.13307599E-04  2.25696591E-06  4.68596552E-05
 -3.43024081E-06 -6.97129225E-03 -7.43027491E-06  5.38006122E-05  5.59797330E-06
  2.18383177E-05  2.96566601E-03 -1.51711612E-03  2.51868450E-03 -3.22203118E-04
 -2.03157541E-04 -4.95965716E-04 -1.18571850E-04  1.00464754E-04 -2.30718023E-05
 -2.92240904E-06 -2.67106590E-04 -4.93636447E-06  8.60450487E-05 -2.13736352E-05
 -3.46794533E-05 -1.92656185E-04  4.08210808E-05  7.17187133E-05 -1.88042608E-05
 -6.80016816E-05 -8.88848292E-06 -4.17263709E-05  9.27921824E-06 -4.14178627E-06
 -2.35012898E-05  9.95710810E-01  2.86709510E-02  1.31285371E-04 -7.65160407E-05
  1.23309969E-05 -1.58850384E-02 -4.02027944E-04  9.84074031E-04  4.64006548E-06
 -1.83394129E-03 -1.88062514E-03 -1.84028663E-03 -1.01052286E-05  1.59053526E-07
 -1.03174369E-05 -8.54261674E-05 -2.89038006E-04 -2.26611721E-05  2.25353175E-04
  9.05493015E-06  8.64099288E-05 -1.74900696E-05 -5.90768556E-05  4.15873615E-05
 -5.66202329E-05  1.65702122E-04  2.58455964E-03  1.56936650E-04  2.65931150E-03
  1.62248874E-04  2.46231354E-03 -3.76130881E-05  4.28630196E-05 -2.88163767E-05
 -2.14088280E-04 -7.09074961E-05 -1.81620541E-05 -1.05625964E-05  5.82080582E-04
  3.53453463E-05  5.11230904E-04  2.43421459E-05 -2.45824173E-05  3.23812706E-05
 -1.60713891E-04  2.07904889E-05  4.83982883E-05  3.24591718E-05  9.90739855E-01
  2.86395106E-02 -9.72784621E-05  2.52697800E-04 -1.05875286E-04 -1.77657277E-02
  8.25344809E-04 -7.01368471E-04  9.15552939E-04 -1.65613158E-03 -1.57958217E-03
 -1.63817701E-03 -2.27342849E-05  1.28634195E-05  5.19322565E-05 -5.89049167E-03
 -1.57669171E-06  6.31328832E-05  7.49838408E-05  1.03826206E-05  3.25432443E-03
  2.80490744E-03 -9.97639770E-04  7.88897571E-04 -3.96706759E-04 -1.85548133E-04
 -1.54317635E-04  7.22257899E-05 -1.46217105E-04  3.40932093E-05  1.00375360E-01
  2.89521191E-03 -1.04669363E-04  1.88246598E-07  3.97243442E-05  2.88222803E-03
 -1.33465262E-03 -7.62113398E-04  1.04915160E-03 -4.56309326E-04 -3.61180567E-04
 -4.66022745E-04 -1.18155412E-04  1.85095050E-04  1.52321197E-04  1.20371084E-03
 -3.45483992E-04 -1.40435901E-04  2.07616091E-05 -3.65058360E-05  1.77373134E-03
  5.20837521E-04 -4.79271940E-04  6.40832569E-05 -9.97031075E-05 -2.48043741E-05
 -1.39236403E-04 -1.10653487E-06  3.57331869E-05  1.23743452E-05  2.32039351E-04
  2.69015977E-03  2.60517265E-04  2.53239516E-03 -1.31349287E-04  1.00046329E-04
 -1.51307633E-04  2.72682055E-04 -1.66814832E-04  2.26346736E-04 -1.22676099E-04
 -2.48644213E-04 -6.70584405E-05 -3.93029200E-04 -3.17757720E-05  2.45569032E-04
 -3.57410958E-05  1.40050960E-04  1.37220330E-05  6.24761215E-05  4.95320394E-05
  1.93094022E-05 -1.62985693E-05 -2.38925279E-04 -2.72750859E-04 -5.14762549E-05
  6.54475875E-05  2.84179824E-07  6.06296589E-05  5.46725946E-05 -1.27214813E-05
  7.40053783E-06  1.72060552E-06 -1.00663615E-01 -2.71015566E-03  7.07748869E-05
 -2.32692565E-05  2.21049061E-05  4.40500697E-03  1.51546386E-03  6.54517140E-04
 -1.00735809E-03 -1.67427833E-04  1.44873360E-05 -8.51924708E-05 -1.02355461E-04
  1.69247848E-04  1.17329579E-04  6.19409310E-04 -2.88083601E-04 -1.27284034E-04
 -3.66527043E-05  3.65732733E-07  8.78944373E-04  4.86089383E-04 -1.50723710E-05
  2.62917578E-05  9.43860436E-06 -9.77648625E-05 -9.72114517E-05 -1.40379748E-05
 -1.19844608E-08 -4.80906234E-05  9.90678444E-01  2.82326041E-02 -1.12936610E-04
 -4.25745471E-06  5.37487232E-05 -1.52519093E-02  7.06007660E-04  2.93348862E-04
 -4.32814660E-04 -1.78435215E-03 -1.77807639E-03 -1.79086621E-03 -9.09576615E-06
  7.54715451E-06  1.17943838E-06  1.23491504E-04  5.96817603E-06 -4.52342277E-05
  3.09455113E-05  2.47372787E-05 -2.83757660E-06 -8.35594773E-05 -1.40738584E-06
 -1.02377165E-04 -5.04535693E-05 -4.54664094E-06 -4.28334535E-05  2.71789585E-05
 -2.45550229E-05 -1.09703084E-05 -1.32021942E-04 -1.82260366E-04 -1.54307410E-04
 -1.50885373E-04  1.40167634E-04  2.41411023E-03  1.34268705E-04  2.60700600E-03
  1.73796604E-04  2.55198290E-03  5.33497123E-05 -5.87132410E-05 -2.25566905E-05
 -4.82968137E-05 -7.36504630E-06 -2.81724663E-06 -7.92896922E-06 -4.01126565E-05
 -1.60721632E-01  3.29039417E-01  3.00432518E-02  1.21540453E-01  2.03718018E-02
  3.41418492E-01  7.54894054E-03  5.55454257E-02  7.55012816E-03  6.28161057E-03
  7.82863242E-03 -8.87982518E-03  4.07644058E-03  7.41471107E-03  3.26933290E-03
 -4.64753712E-02  8.53097162E-02 -3.95952062E-02  3.80837271E-03 -1.61303556E-02
  6.40464590E-02 -9.07722393E-03 -9.20385014E-03 -5.19782705E-03  8.22154979E-03
 -1.02721625E-04  3.67598752E-04 -6.43005649E-04  3.55790267E-03 -3.44914992E-04
 -1.35427461E-01  2.63744509E-01 -7.19208322E-02 -9.09549032E-02 -3.36504532E-02
  1.11846367E-01  9.09303813E-03  3.49234385E-02  5.14335955E-03  4.07460154E-03
  9.74355482E-03 -1.10035992E-02  1.34589783E-02  8.27002394E-03  6.93335142E-03
 -1.60430746E-02  3.05214321E-02 -1.37104085E-02 -4.90667633E-03  6.82905948E-03
  1.83843772E-02  1.17749159E-03  4.43133406E-04  3.96537845E-03  1.69674854E-03
  3.63764231E-04  1.11845870E-03  9.67458345E-04 -1.48754805E-03 -6.50564650E-04
 -4.42106746E-02  8.36740273E-02  6.72901540E-03 -4.32366551E-02 -1.03251789E-03