75540                                                                   
Freq      RMP2-FC                                                     6-31G(d)            
Number of atoms                            I               20
Info1-9                                    I   N=           9
          32          30        1002           0           0         100
           6           2           1
Charge                                     I                0
Multiplicity                               I                1
Number of electrons                        I               80
Number of alpha electrons                  I               40
Number of beta electrons                   I               40
Number of basis functions                  I              183
Number of independent functions            I              183
Number of point charges in /Mol/           I                0
Number of translation vectors              I                0
Atomic numbers                             I   N=          20
           8           8           7           6           6           6
           6           6           6           6           6           1
           1           1           1           1           1           1
           1           1
Nuclear charges                            R   N=          20
  8.00000000E+00  8.00000000E+00  7.00000000E+00  6.00000000E+00  6.00000000E+00
  6.00000000E+00  6.00000000E+00  6.00000000E+00  6.00000000E+00  6.00000000E+00
  6.00000000E+00  1.00000000E+00  1.00000000E+00  1.00000000E+00  1.00000000E+00
  1.00000000E+00  1.00000000E+00  1.00000000E+00  1.00000000E+00  1.00000000E+00
Current cartesian coordinates              R   N=          60
  6.99842200E-01  3.28932641E+00  2.85189701E-01 -4.14721675E+00  1.73358817E+00
 -1.87496538E+00 -5.12286983E+00 -8.33852361E-01  1.46670937E+00 -8.52390568E-01
 -8.51529813E-01 -9.71828776E-02  1.24721830E+00  7.76387360E-01  6.47522563E-02
 -4.73808379E-01 -3.46073405E+00 -2.23284559E-01  3.69007362E+00 -2.34752969E-01
  7.59370021E-02  1.96444489E+00 -4.47303687E+00 -2.26067711E-01  4.03174031E+00
 -2.85104131E+00 -8.29794970E-02 -3.47830081E+00  2.06690173E-01 -2.61594970E-01
  2.78162144E+00  4.99684131E+00  3.18630012E-01 -2.11309232E+00 -4.69236673E+00
 -3.68345819E-01  5.33419431E+00  9.81892314E-01  2.08711165E-01  2.24126814E+00
 -6.50382035E+00 -3.52295117E-01  5.94167110E+00 -3.60989788E+00 -8.46564753E-02
  3.91602733E+00  4.82789092E+00 -1.40381408E+00  3.98413045E+00  4.69320457E+00
  1.97674149E+00  1.93852113E+00  6.87230129E+00  4.10416176E-01 -4.42031965E+00
 -1.56304188E+00  3.08684846E+00 -6.84690809E+00 -5.45543179E-03  1.56837613E+00
Force Field                                I                0
Int Atom Types                             I   N=          20
           0           0           0           0           0           0
           0           0           0           0           0           0
           0           0           0           0           0           0
           0           0
MM charges                                 R   N=          20
  0.00000000E+00  0.00000000E+00  0.00000000E+00  0.00000000E+00  0.00000000E+00
  0.00000000E+00  0.00000000E+00  0.00000000E+00  0.00000000E+00  0.00000000E+00
  0.00000000E+00  0.00000000E+00  0.00000000E+00  0.00000000E+00  0.00000000E+00
  0.00000000E+00  0.00000000E+00  0.00000000E+00  0.00000000E+00  0.00000000E+00
Integer atomic weights                     I   N=          20
          16          16          14          12          12          12
          12          12          12          12          12           1
           1           1           1           1           1           1
           1           1
Real atomic weights                        R   N=          20
  1.59949146E+01  1.59949146E+01  1.40030740E+01  1.20000000E+01  1.20000000E+01
  1.20000000E+01  1.20000000E+01  1.20000000E+01  1.20000000E+01  1.20000000E+01
  1.20000000E+01  1.00782504E+00  1.00782504E+00  1.00782504E+00  1.00782504E+00
  1.00782504E+00  1.00782504E+00  1.00782504E+00  1.00782504E+00  1.00782504E+00
Atom fragment info                         I   N=          20
           0           0           0           0           0           0
           0           0           0           0           0           0
           0           0           0           0           0           0
           0           0
Atom residue num                           I   N=          20
           0           0           0           0           0           0
           0           0           0           0           0           0
           0           0           0           0           0           0
           0           0
Nuclear spins                              I   N=          20
           0           0           2           0           0           0
           0           0           0           0           0           1
           1           1           1           1           1           1
           1           1
Nuclear ZEff                               R   N=          20
 -5.60000000E+00 -5.60000000E+00 -4.55000000E+00 -3.60000000E+00 -3.60000000E+00
 -3.60000000E+00 -3.60000000E+00 -3.60000000E+00 -3.60000000E+00 -3.60000000E+00
 -3.60000000E+00 -1.00000000E+00 -1.00000000E+00 -1.00000000E+00 -1.00000000E+00
 -1.00000000E+00 -1.00000000E+00 -1.00000000E+00 -1.00000000E+00 -1.00000000E+00
Nuclear QMom                               R   N=          20
  0.00000000E+00  0.00000000E+00  2.04400000E+00  0.00000000E+00  0.00000000E+00
  0.00000000E+00  0.00000000E+00  0.00000000E+00  0.00000000E+00  0.00000000E+00
  0.00000000E+00  0.00000000E+00  0.00000000E+00  0.00000000E+00  0.00000000E+00
  0.00000000E+00  0.00000000E+00  0.00000000E+00  0.00000000E+00  0.00000000E+00
Nuclear GFac                               R   N=          20
  0.00000000E+00  0.00000000E+00  4.03761000E-01  0.00000000E+00  0.00000000E+00
  0.00000000E+00  0.00000000E+00  0.00000000E+00  0.00000000E+00  0.00000000E+00
  0.00000000E+00  2.79284600E+00  2.79284600E+00  2.79284600E+00  2.79284600E+00
  2.79284600E+00  2.79284600E+00  2.79284600E+00  2.79284600E+00  2.79284600E+00
MicOpt                                     I   N=          20
          -1          -1          -1          -1          -1          -1
          -1          -1          -1          -1          -1          -1
          -1          -1          -1          -1          -1          -1
          -1          -1
Number of contracted shells                I               62
Number of primitive shells                 I              157
Pure/Cartesian d shells                    I                1
Pure/Cartesian f shells                    I                0
Highest angular momentum                   I                2
Largest degree of contraction              I                6
Shell types                                I   N=          62
           0          -1          -1           2           0          -1
          -1           2           0          -1          -1           2
           0          -1          -1           2           0          -1
          -1           2           0          -1          -1           2
           0          -1          -1           2           0          -1
          -1           2           0          -1          -1           2
           0          -1          -1           2           0          -1
          -1           2           0           0           0           0
           0           0           0           0           0           0
           0           0           0           0           0           0
           0           0
Number of primitives per shell             I   N=          62
           6           3           1           1           6           3
           1           1           6           3           1           1
           6           3           1           1           6           3
           1           1           6           3           1           1
           6           3           1           1           6           3
           1           1           6           3           1           1
           6           3           1           1           6           3
           1           1           3           1           3           1
           3           1           3           1           3           1
           3           1           3           1           3           1
           3           1
Shell to atom map                          I   N=          62
           1           1           1           1           2           2
           2           2           3           3           3           3
           4           4           4           4           5           5
           5           5           6           6           6           6
           7           7           7           7           8           8
           8           8           9           9           9           9
          10          10          10          10          11          11
          11          11          12          12          13          13
          14          14          15          15          16          16
          17          17          18          18          19          19
          20          20
Primitive exponents                        R   N=         157
  5.48467166E+03  8.25234946E+02  1.88046958E+02  5.29645000E+01  1.68975704E+01
  5.79963534E+00  1.55396162E+01  3.59993359E+00  1.01376175E+00  2.70005823E-01
  8.00000000E-01  5.48467166E+03  8.25234946E+02  1.88046958E+02  5.29645000E+01
  1.68975704E+01  5.79963534E+00  1.55396162E+01  3.59993359E+00  1.01376175E+00
  2.70005823E-01  8.00000000E-01  4.17351146E+03  6.27457911E+02  1.42902093E+02
  4.02343293E+01  1.28202129E+01  4.39043701E+00  1.16263619E+01  2.71627981E+00
  7.72218397E-01  2.12031498E-01  8.00000000E-01  3.04752488E+03  4.57369518E+02
  1.03948685E+02  2.92101553E+01  9.28666296E+00  3.16392696E+00  7.86827235E+00
  1.88128854E+00  5.44249258E-01  1.68714478E-01  8.00000000E-01  3.04752488E+03
  4.57369518E+02  1.03948685E+02  2.92101553E+01  9.28666296E+00  3.16392696E+00
  7.86827235E+00  1.88128854E+00  5.44249258E-01  1.68714478E-01  8.00000000E-01
  3.04752488E+03  4.57369518E+02  1.03948685E+02  2.92101553E+01  9.28666296E+00
  3.16392696E+00  7.86827235E+00  1.88128854E+00  5.44249258E-01  1.68714478E-01
  8.00000000E-01  3.04752488E+03  4.57369518E+02  1.03948685E+02  2.92101553E+01
  9.28666296E+00  3.16392696E+00  7.86827235E+00  1.88128854E+00  5.44249258E-01
  1.68714478E-01  8.00000000E-01  3.04752488E+03  4.57369518E+02  1.03948685E+02
  2.92101553E+01  9.28666296E+00  3.16392696E+00  7.86827235E+00  1.88128854E+00
  5.44249258E-01  1.68714478E-01  8.00000000E-01  3.04752488E+03  4.57369518E+02
  1.03948685E+02  2.92101553E+01  9.28666296E+00  3.16392696E+00  7.86827235E+00
  1.88128854E+00  5.44249258E-01  1.68714478E-01  8.00000000E-01  3.04752488E+03
  4.57369518E+02  1.03948685E+02  2.92101553E+01  9.28666296E+00  3.16392696E+00
  7.86827235E+00  1.88128854E+00  5.44249258E-01  1.68714478E-01  8.00000000E-01
  3.04752488E+03  4.57369518E+02  1.03948685E+02  2.92101553E+01  9.28666296E+00
  3.16392696E+00  7.86827235E+00  1.88128854E+00  5.44249258E-01  1.68714478E-01
  8.00000000E-01  1.87311370E+01  2.82539436E+00  6.40121692E-01  1.61277759E-01
  1.87311370E+01  2.82539436E+00  6.40121692E-01  1.61277759E-01  1.87311370E+01
  2.82539436E+00  6.40121692E-01  1.61277759E-01  1.87311370E+01  2.82539436E+00
  6.40121692E-01  1.61277759E-01  1.87311370E+01  2.82539436E+00  6.40121692E-01
  1.61277759E-01  1.87311370E+01  2.82539436E+00  6.40121692E-01  1.61277759E-01
  1.87311370E+01  2.82539436E+00  6.40121692E-01  1.61277759E-01  1.87311370E+01
  2.82539436E+00  6.40121692E-01  1.61277759E-01  1.87311370E+01  2.82539436E+00
  6.40121692E-01  1.61277759E-01
Contraction coefficients                   R   N=         157
  1.83107443E-03  1.39501722E-02  6.84450781E-02  2.32714336E-01  4.70192898E-01
  3.58520853E-01 -1.10777550E-01 -1.48026263E-01  1.13076702E+00  1.00000000E+00
  1.00000000E+00  1.83107443E-03  1.39501722E-02  6.84450781E-02  2.32714336E-01
  4.70192898E-01  3.58520853E-01 -1.10777550E-01 -1.48026263E-01  1.13076702E+00
  1.00000000E+00  1.00000000E+00  1.83477216E-03  1.39946270E-02  6.85865518E-02
  2.32240873E-01  4.69069948E-01  3.60455199E-01 -1.14961182E-01 -1.69117479E-01
  1.14585195E+00  1.00000000E+00  1.00000000E+00  1.83473713E-03  1.40373228E-02
  6.88426223E-02  2.32184443E-01  4.67941348E-01  3.62311985E-01 -1.19332420E-01
 -1.60854152E-01  1.14345644E+00  1.00000000E+00  1.00000000E+00  1.83473713E-03
  1.40373228E-02  6.88426223E-02  2.32184443E-01  4.67941348E-01  3.62311985E-01
 -1.19332420E-01 -1.60854152E-01  1.14345644E+00  1.00000000E+00  1.00000000E+00
  1.83473713E-03  1.40373228E-02  6.88426223E-02  2.32184443E-01  4.67941348E-01
  3.62311985E-01 -1.19332420E-01 -1.60854152E-01  1.14345644E+00  1.00000000E+00
  1.00000000E+00  1.83473713E-03  1.40373228E-02  6.88426223E-02  2.32184443E-01
  4.67941348E-01  3.62311985E-01 -1.19332420E-01 -1.60854152E-01  1.14345644E+00
  1.00000000E+00  1.00000000E+00  1.83473713E-03  1.40373228E-02  6.88426223E-02
  2.32184443E-01  4.67941348E-01  3.62311985E-01 -1.19332420E-01 -1.60854152E-01
  1.14345644E+00  1.00000000E+00  1.00000000E+00  1.83473713E-03  1.40373228E-02
  6.88426223E-02  2.32184443E-01  4.67941348E-01  3.62311985E-01 -1.19332420E-01
 -1.60854152E-01  1.14345644E+00  1.00000000E+00  1.00000000E+00  1.83473713E-03
  1.40373228E-02  6.88426223E-02  2.32184443E-01  4.67941348E-01  3.62311985E-01
 -1.19332420E-01 -1.60854152E-01  1.14345644E+00  1.00000000E+00  1.00000000E+00
  1.83473713E-03  1.40373228E-02  6.88426223E-02  2.32184443E-01  4.67941348E-01
  3.62311985E-01 -1.19332420E-01 -1.60854152E-01  1.14345644E+00  1.00000000E+00
  1.00000000E+00  3.34946043E-02  2.34726953E-01  8.13757326E-01  1.00000000E+00
  3.34946043E-02  2.34726953E-01  8.13757326E-01  1.00000000E+00  3.34946043E-02
  2.34726953E-01  8.13757326E-01  1.00000000E+00  3.34946043E-02  2.34726953E-01
  8.13757326E-01  1.00000000E+00  3.34946043E-02  2.34726953E-01  8.13757326E-01
  1.00000000E+00  3.34946043E-02  2.34726953E-01  8.13757326E-01  1.00000000E+00
  3.34946043E-02  2.34726953E-01  8.13757326E-01  1.00000000E+00  3.34946043E-02
  2.34726953E-01  8.13757326E-01  1.00000000E+00  3.34946043E-02  2.34726953E-01
  8.13757326E-01  1.00000000E+00
P(S=P) Contraction coefficients            R   N=         157
  0.00000000E+00  0.00000000E+00  0.00000000E+00  0.00000000E+00  0.00000000E+00
  0.00000000E+00  7.08742682E-02  3.39752839E-01  7.27158577E-01  1.00000000E+00
  0.00000000E+00  0.00000000E+00  0.00000000E+00  0.00000000E+00  0.00000000E+00
  0.00000000E+00  0.00000000E+00  7.08742682E-02  3.39752839E-01  7.27158577E-01
  1.00000000E+00  0.00000000E+00  0.00000000E+00  0.00000000E+00  0.00000000E+00
  0.00000000E+00  0.00000000E+00  0.00000000E+00  6.75797439E-02  3.23907296E-01
  7.40895140E-01  1.00000000E+00  0.00000000E+00  0.00000000E+00  0.00000000E+00
  0.00000000E+00  0.00000000E+00  0.00000000E+00  0.00000000E+00  6.89990666E-02
  3.16423961E-01  7.44308291E-01  1.00000000E+00  0.00000000E+00  0.00000000E+00
  0.00000000E+00  0.00000000E+00  0.00000000E+00  0.00000000E+00  0.00000000E+00
  6.89990666E-02  3.16423961E-01  7.44308291E-01  1.00000000E+00  0.00000000E+00
  0.00000000E+00  0.00000000E+00  0.00000000E+00  0.00000000E+00  0.00000000E+00
  0.00000000E+00  6.89990666E-02  3.16423961E-01  7.44308291E-01  1.00000000E+00
  0.00000000E+00  0.00000000E+00  0.00000000E+00  0.00000000E+00  0.00000000E+00
  0.00000000E+00  0.00000000E+00  6.89990666E-02  3.16423961E-01  7.44308291E-01
  1.00000000E+00  0.00000000E+00  0.00000000E+00  0.00000000E+00  0.00000000E+00
  0.00000000E+00  0.00000000E+00  0.00000000E+00  6.89990666E-02  3.16423961E-01
  7.44308291E-01  1.00000000E+00  0.00000000E+00  0.00000000E+00  0.00000000E+00
  0.00000000E+00  0.00000000E+00  0.00000000E+00  0.00000000E+00  6.89990666E-02
  3.16423961E-01  7.44308291E-01  1.00000000E+00  0.00000000E+00  0.00000000E+00
  0.00000000E+00  0.00000000E+00  0.00000000E+00  0.00000000E+00  0.00000000E+00
  6.89990666E-02  3.16423961E-01  7.44308291E-01  1.00000000E+00  0.00000000E+00
  0.00000000E+00  0.00000000E+00  0.00000000E+00  0.00000000E+00  0.00000000E+00
  0.00000000E+00  6.89990666E-02  3.16423961E-01  7.44308291E-01  1.00000000E+00
  0.00000000E+00  0.00000000E+00  0.00000000E+00  0.00000000E+00  0.00000000E+00
  0.00000000E+00  0.00000000E+00  0.00000000E+00  0.00000000E+00  0.00000000E+00
  0.00000000E+00  0.00000000E+00  0.00000000E+00  0.00000000E+00  0.00000000E+00
  0.00000000E+00  0.00000000E+00  0.00000000E+00  0.00000000E+00  0.00000000E+00
  0.00000000E+00  0.00000000E+00  0.00000000E+00  0.00000000E+00  0.00000000E+00
  0.00000000E+00  0.00000000E+00  0.00000000E+00  0.00000000E+00  0.00000000E+00
  0.00000000E+00  0.00000000E+00  0.00000000E+00  0.00000000E+00  0.00000000E+00
  0.00000000E+00  0.00000000E+00
Coordinates of each shell                  R   N=         186
  6.99842200E-01  3.28932641E+00  2.85189701E-01  6.99842200E-01  3.28932641E+00
  2.85189701E-01  6.99842200E-01  3.28932641E+00  2.85189701E-01  6.99842200E-01
  3.28932641E+00  2.85189701E-01 -4.14721675E+00  1.73358817E+00 -1.87496538E+00
 -4.14721675E+00  1.73358817E+00 -1.87496538E+00 -4.14721675E+00  1.73358817E+00
 -1.87496538E+00 -4.14721675E+00  1.73358817E+00 -1.87496538E+00 -5.12286983E+00
 -8.33852361E-01  1.46670937E+00 -5.12286983E+00 -8.33852361E-01  1.46670937E+00
 -5.12286983E+00 -8.33852361E-01  1.46670937E+00 -5.12286983E+00 -8.33852361E-01
  1.46670937E+00 -8.52390568E-01 -8.51529813E-01 -9.71828776E-02 -8.52390568E-01
 -8.51529813E-01 -9.71828776E-02 -8.52390568E-01 -8.51529813E-01 -9.71828776E-02
 -8.52390568E-01 -8.51529813E-01 -9.71828776E-02  1.24721830E+00  7.76387360E-01
  6.47522563E-02  1.24721830E+00  7.76387360E-01  6.47522563E-02  1.24721830E+00
  7.76387360E-01  6.47522563E-02  1.24721830E+00  7.76387360E-01  6.47522563E-02
 -4.73808379E-01 -3.46073405E+00 -2.23284559E-01 -4.73808379E-01 -3.46073405E+00
 -2.23284559E-01 -4.73808379E-01 -3.46073405E+00 -2.23284559E-01 -4.73808379E-01
 -3.46073405E+00 -2.23284559E-01  3.69007362E+00 -2.34752969E-01  7.59370021E-02
  3.69007362E+00 -2.34752969E-01  7.59370021E-02  3.69007362E+00 -2.34752969E-01
  7.59370021E-02  3.69007362E+00 -2.34752969E-01  7.59370021E-02  1.96444489E+00
 -4.47303687E+00 -2.26067711E-01  1.96444489E+00 -4.47303687E+00 -2.26067711E-01
  1.96444489E+00 -4.47303687E+00 -2.26067711E-01  1.96444489E+00 -4.47303687E+00
 -2.26067711E-01  4.03174031E+00 -2.85104131E+00 -8.29794970E-02  4.03174031E+00
 -2.85104131E+00 -8.29794970E-02  4.03174031E+00 -2.85104131E+00 -8.29794970E-02
  4.03174031E+00 -2.85104131E+00 -8.29794970E-02 -3.47830081E+00  2.06690173E-01
 -2.61594970E-01 -3.47830081E+00  2.06690173E-01 -2.61594970E-01 -3.47830081E+00
  2.06690173E-01 -2.61594970E-01 -3.47830081E+00  2.06690173E-01 -2.61594970E-01
  2.78162144E+00  4.99684131E+00  3.18630012E-01  2.78162144E+00  4.99684131E+00
  3.18630012E-01  2.78162144E+00  4.99684131E+00  3.18630012E-01  2.78162144E+00
  4.99684131E+00  3.18630012E-01 -2.11309232E+00 -4.69236673E+00 -3.68345819E-01
 -2.11309232E+00 -4.69236673E+00 -3.68345819E-01  5.33419431E+00  9.81892314E-01
  2.08711165E-01  5.33419431E+00  9.81892314E-01  2.08711165E-01  2.24126814E+00
 -6.50382035E+00 -3.52295117E-01  2.24126814E+00 -6.50382035E+00 -3.52295117E-01
  5.94167110E+00 -3.60989788E+00 -8.46564753E-02  5.94167110E+00 -3.60989788E+00
 -8.46564753E-02  3.91602733E+00  4.82789092E+00 -1.40381408E+00  3.91602733E+00
  4.82789092E+00 -1.40381408E+00  3.98413045E+00  4.69320457E+00  1.97674149E+00
  3.98413045E+00  4.69320457E+00  1.97674149E+00  1.93852113E+00  6.87230129E+00
  4.10416176E-01  1.93852113E+00  6.87230129E+00  4.10416176E-01 -4.42031965E+00
 -1.56304188E+00  3.08684846E+00 -4.42031965E+00 -1.56304188E+00  3.08684846E+00
 -6.84690809E+00 -5.45543179E-03  1.56837613E+00 -6.84690809E+00 -5.45543179E-03
  1.56837613E+00
Constraint Structure                       R   N=          60
  6.99842200E-01  3.28932641E+00  2.85189701E-01 -4.14721675E+00  1.73358817E+00
 -1.87496538E+00 -5.12286983E+00 -8.33852361E-01  1.46670937E+00 -8.52390568E-01
 -8.51529813E-01 -9.71828776E-02  1.24721830E+00  7.76387360E-01  6.47522563E-02
 -4.73808379E-01 -3.46073405E+00 -2.23284559E-01  3.69007362E+00 -2.34752969E-01
  7.59370021E-02  1.96444489E+00 -4.47303687E+00 -2.26067711E-01  4.03174031E+00
 -2.85104131E+00 -8.29794970E-02 -3.47830081E+00  2.06690173E-01 -2.61594970E-01
  2.78162144E+00  4.99684131E+00  3.18630012E-01 -2.11309232E+00 -4.69236673E+00
 -3.68345819E-01  5.33419431E+00  9.81892314E-01  2.08711165E-01  2.24126814E+00
 -6.50382035E+00 -3.52295117E-01  5.94167110E+00 -3.60989788E+00 -8.46564753E-02
  3.91602733E+00  4.82789092E+00 -1.40381408E+00  3.98413045E+00  4.69320457E+00
  1.97674149E+00  1.93852113E+00  6.87230129E+00  4.10416176E-01 -4.42031965E+00
 -1.56304188E+00  3.08684846E+00 -6.84690809E+00 -5.45543179E-03  1.56837613E+00
Num ILSW                                   I              100
ILSW                                       I   N=         100
           0           1           0           1           2           0
           0           0           0           0           0          -1
           0           0           0           0           0           0
           0           0           0           0           1           0
           1           0           0           0           0           0
           0           0      100000           0          -1           0
           0           0           0           0           0           0
           0           0           0           1           1           0
           0           0           1           0           0           0
           0           0           4          40           0           0
           0           0           0           0           0           0
           0           0           0           0           0           0
           0           0           0           0           0           0
           0           0           0           0           0           0
           0           0           0           0           0           0
           0           0           0           0           0           0
           0           0           0           0
Num RLSW                                   I               40
RLSW                                       R   N=          40
  1.00000000E+00  1.00000000E+00  1.00000000E+00  1.00000000E+00  1.00000000E+00
  0.00000000E+00  0.00000000E+00  1.00000000E+00  0.00000000E+00  0.00000000E+00
  0.00000000E+00  0.00000000E+00  1.00000000E+00  0.00000000E+00  0.00000000E+00
  0.00000000E+00  0.00000000E+00  1.00000000E+00  0.00000000E+00  0.00000000E+00
  0.00000000E+00  0.00000000E+00  1.00000000E+00  0.00000000E+00  0.00000000E+00
  0.00000000E+00  0.00000000E+00  1.00000000E+00  0.00000000E+00  0.00000000E+00
  0.00000000E+00  0.00000000E+00  0.00000000E+00  0.00000000E+00  0.00000000E+00
  0.00000000E+00  0.00000000E+00  0.00000000E+00  1.00000000E+00  1.00000000E+00
MxBond                                     I                4
NBond                                      I   N=          20
           2           1           3           3           3           3
           3           3           3           3           4           1
           1           1           1           1           1           1
           1           1
IBond                                      I   N=          80
           5          11           0           0          10           0
           0           0          10          19          20           0
           5           6          10           0           1           4
           7           0           4           8          12           0
           5           9          13           0           6           9
          14           0           7           8          15           0
           2           3           4           0           1          16
          17          18           6           0           0           0
           7           0           0           0           8           0
           0           0           9           0           0           0
          11           0           0           0          11           0
           0           0          11           0           0           0
           3           0           0           0           3           0
           0           0
RBond                                      R   N=          80
  1.50000000E+00  1.00000000E+00  0.00000000E+00  0.00000000E+00  2.00000000E+00
  0.00000000E+00  0.00000000E+00  0.00000000E+00  1.00000000E+00  1.00000000E+00
  1.00000000E+00  0.00000000E+00  1.50000000E+00  1.50000000E+00  1.00000000E+00
  0.00000000E+00  1.50000000E+00  1.50000000E+00  1.50000000E+00  0.00000000E+00
  1.50000000E+00  1.50000000E+00  1.00000000E+00  0.00000000E+00  1.50000000E+00
  1.50000000E+00  1.00000000E+00  0.00000000E+00  1.50000000E+00  1.50000000E+00
  1.00000000E+00  0.00000000E+00  1.50000000E+00  1.50000000E+00  1.00000000E+00
  0.00000000E+00  2.00000000E+00  1.00000000E+00  1.00000000E+00  0.00000000E+00
  1.00000000E+00  1.00000000E+00  1.00000000E+00  1.00000000E+00  1.00000000E+00
  0.00000000E+00  0.00000000E+00  0.00000000E+00  1.00000000E+00  0.00000000E+00
  0.00000000E+00  0.00000000E+00  1.00000000E+00  0.00000000E+00  0.00000000E+00
  0.00000000E+00  1.00000000E+00  0.00000000E+00  0.00000000E+00  0.00000000E+00
  1.00000000E+00  0.00000000E+00  0.00000000E+00  0.00000000E+00  1.00000000E+00
  0.00000000E+00  0.00000000E+00  0.00000000E+00  1.00000000E+00  0.00000000E+00
  0.00000000E+00  0.00000000E+00  1.00000000E+00  0.00000000E+00  0.00000000E+00
  0.00000000E+00  1.00000000E+00  0.00000000E+00  0.00000000E+00  0.00000000E+00
Virial Ratio                               R      2.002624437272919E+00
SCF Energy                                 R     -5.123561231934738E+02
MP2 Energy                                 R     -5.138878730189034E+02
Total Energy                               R     -5.138878730189034E+02
Post-SCF wavefunction norm                 R      1.739429844481211E+00
RMS Force                                  R      8.452647188938384E-07
RMS Density                                R      1.330139142435022E-09
External E-field                           R   N=          35
  0.00000000E+00  0.00000000E+00  0.00000000E+00  0.00000000E+00  0.00000000E+00
  0.00000000E+00  0.00000000E+00  0.00000000E+00  0.00000000E+00  0.00000000E+00
  0.00000000E+00  0.00000000E+00  0.00000000E+00  0.00000000E+00  0.00000000E+00
  0.00000000E+00  0.00000000E+00  0.00000000E+00  0.00000000E+00  0.00000000E+00
  0.00000000E+00  0.00000000E+00  0.00000000E+00  0.00000000E+00  0.00000000E+00
  0.00000000E+00  0.00000000E+00  0.00000000E+00  0.00000000E+00  0.00000000E+00
  0.00000000E+00  0.00000000E+00  0.00000000E+00  0.00000000E+00  0.00000000E+00
IOpCl                                      I                0
IROHF                                      I                0
Alpha Orbital Energies                     R   N=         183
 -2.05937385E+01 -2.05180537E+01 -1.55820097E+01 -1.13519891E+01 -1.13147209E+01
 -1.12879400E+01 -1.12532395E+01 -1.12525015E+01 -1.12449292E+01 -1.12412099E+01
 -1.12369443E+01 -1.40989228E+00 -1.36221237E+00 -1.20133515E+00 -1.15300598E+00
 -1.03814327E+00 -1.02066808E+00 -9.47386044E-01 -8.71800871E-01 -8.20119344E-01
 -7.83925778E-01 -7.30334302E-01 -7.04686090E-01 -6.76208326E-01 -6.60859160E-01
 -6.53089322E-01 -6.34252482E-01 -6.18325304E-01 -5.90635994E-01 -5.76933945E-01
 -5.50686830E-01 -5.39476684E-01 -5.25544308E-01 -5.13864243E-01 -4.95371610E-01
 -4.69932431E-01 -4.13913764E-01 -4.01606303E-01 -3.46148025E-01 -3.16394465E-01
  1.17801772E-01  1.46420435E-01  2.11314579E-01  2.30543659E-01  2.42675194E-01
  2.53348383E-01  2.85269645E-01  2.94527960E-01  3.04176032E-01  3.09483439E-01
  3.20980085E-01  3.29947573E-01  3.44663291E-01  3.64479508E-01  4.29400386E-01
  4.39166766E-01  4.91471250E-01  4.95752232E-01  5.09674048E-01  5.41458583E-01
  5.52039342E-01  6.23607586E-01  6.91313710E-01  7.03210056E-01  7.33991400E-01
  7.35678960E-01  7.52660253E-01  7.66031232E-01  7.86246760E-01  7.92156806E-01
  8.12427306E-01  8.25331196E-01  8.27516648E-01  8.35587480E-01  8.41448427E-01
  8.70464913E-01  8.79573280E-01  8.94781893E-01  9.26815124E-01  9.38328468E-01
  9.44687318E-01  9.69888185E-01  9.91592596E-01  1.01479473E+00  1.04371884E+00
  1.07956786E+00  1.09046125E+00  1.10707942E+00  1.12312358E+00  1.12906636E+00
  1.13406735E+00  1.14185821E+00  1.16720897E+00  1.17679892E+00  1.19108959E+00
  1.19848370E+00  1.21395912E+00  1.24847128E+00  1.26706751E+00  1.27810144E+00
  1.29740016E+00  1.29939991E+00  1.32056524E+00  1.36514507E+00  1.38677640E+00
  1.41821789E+00  1.43410282E+00  1.46709478E+00  1.46999169E+00  1.51035109E+00
  1.55171653E+00  1.58500994E+00  1.61717595E+00  1.64978828E+00  1.68816914E+00
  1.70539961E+00  1.71961260E+00  1.73979036E+00  1.75708439E+00  1.77387742E+00
  1.79597269E+00  1.84252853E+00  1.93886450E+00  1.97843764E+00  2.02364810E+00
  2.03306545E+00  2.07827755E+00  2.10248604E+00  2.13328217E+00  2.15010982E+00
  2.16416465E+00  2.20804953E+00  2.22007368E+00  2.23733802E+00  2.26591852E+00
  2.29653279E+00  2.32191592E+00  2.33508875E+00  2.37352926E+00  2.40362127E+00
  2.42754396E+00  2.44740062E+00  2.45272253E+00  2.46702860E+00  2.51847603E+00
  2.54663060E+00  2.56366222E+00  2.59417641E+00  2.61132779E+00  2.61520039E+00
  2.67623902E+00  2.68544398E+00  2.70989897E+00  2.75896626E+00  2.83880518E+00