17171354                                                                
Freq      RMP2-FC                                                     6-31G(d)            
Number of atoms                            I               18
Info1-9                                    I   N=           9
          30          28        1002           0           0         100
           6           2           1
Charge                                     I                0
Multiplicity                               I                1
Number of electrons                        I               62
Number of alpha electrons                  I               31
Number of beta electrons                   I               31
Number of basis functions                  I              140
Number of independent functions            I              140
Number of point charges in /Mol/           I                0
Number of translation vectors              I                0
Atomic numbers                             I   N=          18
           8           7           7           6           6           6
           6           6           1           1           1           1
           1           1           1           1           1           1
Nuclear charges                            R   N=          18
  8.00000000E+00  7.00000000E+00  7.00000000E+00  6.00000000E+00  6.00000000E+00
  6.00000000E+00  6.00000000E+00  6.00000000E+00  1.00000000E+00  1.00000000E+00
  1.00000000E+00  1.00000000E+00  1.00000000E+00  1.00000000E+00  1.00000000E+00
  1.00000000E+00  1.00000000E+00  1.00000000E+00
Current cartesian coordinates              R   N=          54
 -1.51645198E+00  2.43241289E+00 -5.60908311E-01  7.07388140E-01 -1.31786812E+00
 -2.42079581E-01 -3.66532315E+00 -1.31158710E+00  2.49537135E-02  3.02121413E+00
 -8.92247639E-02 -9.40194430E-01  4.34668661E+00  1.41284454E+00  1.05668077E+00
  5.40445908E+00 -1.09439151E+00  2.34438856E-01 -1.49592755E+00  1.28450881E-01
 -2.76325034E-01 -6.02686342E+00  3.49947897E-02  4.51886190E-01  3.13410798E+00
  6.26126146E-01 -2.86686253E+00  3.42679625E+00  1.50578637E+00  2.88401904E+00
  5.30424068E+00  3.12980256E+00  4.78772379E-01  7.10444914E+00 -1.12241527E+00
 -9.11125378E-01  5.20863981E+00 -2.67385339E+00  1.52647464E+00  5.04571751E-01
 -3.10371923E+00 -9.16272899E-01 -3.43242872E+00 -2.90770644E+00  1.05851630E+00
 -6.09800902E+00  9.69272651E-01  2.29912881E+00 -7.58585143E+00 -1.30706177E+00
  3.00395405E-01 -6.22676861E+00  1.47460820E+00 -1.00481634E+00
Force Field                                I                0
Int Atom Types                             I   N=          18
           0           0           0           0           0           0
           0           0           0           0           0           0
           0           0           0           0           0           0
MM charges                                 R   N=          18
  0.00000000E+00  0.00000000E+00  0.00000000E+00  0.00000000E+00  0.00000000E+00
  0.00000000E+00  0.00000000E+00  0.00000000E+00  0.00000000E+00  0.00000000E+00
  0.00000000E+00  0.00000000E+00  0.00000000E+00  0.00000000E+00  0.00000000E+00
  0.00000000E+00  0.00000000E+00  0.00000000E+00
Integer atomic weights                     I   N=          18
          16          14          14          12          12          12
          12          12           1           1           1           1
           1           1           1           1           1           1
Real atomic weights                        R   N=          18
  1.59949146E+01  1.40030740E+01  1.40030740E+01  1.20000000E+01  1.20000000E+01
  1.20000000E+01  1.20000000E+01  1.20000000E+01  1.00782504E+00  1.00782504E+00
  1.00782504E+00  1.00782504E+00  1.00782504E+00  1.00782504E+00  1.00782504E+00
  1.00782504E+00  1.00782504E+00  1.00782504E+00
Atom fragment info                         I   N=          18
           0           0           0           0           0           0
           0           0           0           0           0           0
           0           0           0           0           0           0
Atom residue num                           I   N=          18
           0           0           0           0           0           0
           0           0           0           0           0           0
           0           0           0           0           0           0
Nuclear spins                              I   N=          18
           0           2           2           0           0           0
           0           0           1           1           1           1
           1           1           1           1           1           1
Nuclear ZEff                               R   N=          18
 -5.60000000E+00 -4.55000000E+00 -4.55000000E+00 -3.60000000E+00 -3.60000000E+00
 -3.60000000E+00 -3.60000000E+00 -3.60000000E+00 -1.00000000E+00 -1.00000000E+00
 -1.00000000E+00 -1.00000000E+00 -1.00000000E+00 -1.00000000E+00 -1.00000000E+00
 -1.00000000E+00 -1.00000000E+00 -1.00000000E+00
Nuclear QMom                               R   N=          18
  0.00000000E+00  2.04400000E+00  2.04400000E+00  0.00000000E+00  0.00000000E+00
  0.00000000E+00  0.00000000E+00  0.00000000E+00  0.00000000E+00  0.00000000E+00
  0.00000000E+00  0.00000000E+00  0.00000000E+00  0.00000000E+00  0.00000000E+00
  0.00000000E+00  0.00000000E+00  0.00000000E+00
Nuclear GFac                               R   N=          18
  0.00000000E+00  4.03761000E-01  4.03761000E-01  0.00000000E+00  0.00000000E+00
  0.00000000E+00  0.00000000E+00  0.00000000E+00  2.79284600E+00  2.79284600E+00
  2.79284600E+00  2.79284600E+00  2.79284600E+00  2.79284600E+00  2.79284600E+00
  2.79284600E+00  2.79284600E+00  2.79284600E+00
MicOpt                                     I   N=          18
          -1          -1          -1          -1          -1          -1
          -1          -1          -1          -1          -1          -1
          -1          -1          -1          -1          -1          -1
Number of contracted shells                I               52
Number of primitive shells                 I              128
Pure/Cartesian d shells                    I                1
Pure/Cartesian f shells                    I                0
Highest angular momentum                   I                2
Largest degree of contraction              I                6
Shell types                                I   N=          52
           0          -1          -1           2           0          -1
          -1           2           0          -1          -1           2
           0          -1          -1           2           0          -1
          -1           2           0          -1          -1           2
           0          -1          -1           2           0          -1
          -1           2           0           0           0           0
           0           0           0           0           0           0
           0           0           0           0           0           0
           0           0           0           0
Number of primitives per shell             I   N=          52
           6           3           1           1           6           3
           1           1           6           3           1           1
           6           3           1           1           6           3
           1           1           6           3           1           1
           6           3           1           1           6           3
           1           1           3           1           3           1
           3           1           3           1           3           1
           3           1           3           1           3           1
           3           1           3           1
Shell to atom map                          I   N=          52
           1           1           1           1           2           2
           2           2           3           3           3           3
           4           4           4           4           5           5
           5           5           6           6           6           6
           7           7           7           7           8           8
           8           8           9           9          10          10
          11          11          12          12          13          13
          14          14          15          15          16          16
          17          17          18          18
Primitive exponents                        R   N=         128
  5.48467166E+03  8.25234946E+02  1.88046958E+02  5.29645000E+01  1.68975704E+01
  5.79963534E+00  1.55396162E+01  3.59993359E+00  1.01376175E+00  2.70005823E-01
  8.00000000E-01  4.17351146E+03  6.27457911E+02  1.42902093E+02  4.02343293E+01
  1.28202129E+01  4.39043701E+00  1.16263619E+01  2.71627981E+00  7.72218397E-01
  2.12031498E-01  8.00000000E-01  4.17351146E+03  6.27457911E+02  1.42902093E+02
  4.02343293E+01  1.28202129E+01  4.39043701E+00  1.16263619E+01  2.71627981E+00
  7.72218397E-01  2.12031498E-01  8.00000000E-01  3.04752488E+03  4.57369518E+02
  1.03948685E+02  2.92101553E+01  9.28666296E+00  3.16392696E+00  7.86827235E+00
  1.88128854E+00  5.44249258E-01  1.68714478E-01  8.00000000E-01  3.04752488E+03
  4.57369518E+02  1.03948685E+02  2.92101553E+01  9.28666296E+00  3.16392696E+00
  7.86827235E+00  1.88128854E+00  5.44249258E-01  1.68714478E-01  8.00000000E-01
  3.04752488E+03  4.57369518E+02  1.03948685E+02  2.92101553E+01  9.28666296E+00
  3.16392696E+00  7.86827235E+00  1.88128854E+00  5.44249258E-01  1.68714478E-01
  8.00000000E-01  3.04752488E+03  4.57369518E+02  1.03948685E+02  2.92101553E+01
  9.28666296E+00  3.16392696E+00  7.86827235E+00  1.88128854E+00  5.44249258E-01
  1.68714478E-01  8.00000000E-01  3.04752488E+03  4.57369518E+02  1.03948685E+02
  2.92101553E+01  9.28666296E+00  3.16392696E+00  7.86827235E+00  1.88128854E+00
  5.44249258E-01  1.68714478E-01  8.00000000E-01  1.87311370E+01  2.82539436E+00
  6.40121692E-01  1.61277759E-01  1.87311370E+01  2.82539436E+00  6.40121692E-01
  1.61277759E-01  1.87311370E+01  2.82539436E+00  6.40121692E-01  1.61277759E-01
  1.87311370E+01  2.82539436E+00  6.40121692E-01  1.61277759E-01  1.87311370E+01
  2.82539436E+00  6.40121692E-01  1.61277759E-01  1.87311370E+01  2.82539436E+00
  6.40121692E-01  1.61277759E-01  1.87311370E+01  2.82539436E+00  6.40121692E-01
  1.61277759E-01  1.87311370E+01  2.82539436E+00  6.40121692E-01  1.61277759E-01
  1.87311370E+01  2.82539436E+00  6.40121692E-01  1.61277759E-01  1.87311370E+01
  2.82539436E+00  6.40121692E-01  1.61277759E-01
Contraction coefficients                   R   N=         128
  1.83107443E-03  1.39501722E-02  6.84450781E-02  2.32714336E-01  4.70192898E-01
  3.58520853E-01 -1.10777550E-01 -1.48026263E-01  1.13076702E+00  1.00000000E+00
  1.00000000E+00  1.83477216E-03  1.39946270E-02  6.85865518E-02  2.32240873E-01
  4.69069948E-01  3.60455199E-01 -1.14961182E-01 -1.69117479E-01  1.14585195E+00
  1.00000000E+00  1.00000000E+00  1.83477216E-03  1.39946270E-02  6.85865518E-02
  2.32240873E-01  4.69069948E-01  3.60455199E-01 -1.14961182E-01 -1.69117479E-01
  1.14585195E+00  1.00000000E+00  1.00000000E+00  1.83473713E-03  1.40373228E-02
  6.88426223E-02  2.32184443E-01  4.67941348E-01  3.62311985E-01 -1.19332420E-01
 -1.60854152E-01  1.14345644E+00  1.00000000E+00  1.00000000E+00  1.83473713E-03
  1.40373228E-02  6.88426223E-02  2.32184443E-01  4.67941348E-01  3.62311985E-01
 -1.19332420E-01 -1.60854152E-01  1.14345644E+00  1.00000000E+00  1.00000000E+00
  1.83473713E-03  1.40373228E-02  6.88426223E-02  2.32184443E-01  4.67941348E-01
  3.62311985E-01 -1.19332420E-01 -1.60854152E-01  1.14345644E+00  1.00000000E+00
  1.00000000E+00  1.83473713E-03  1.40373228E-02  6.88426223E-02  2.32184443E-01
  4.67941348E-01  3.62311985E-01 -1.19332420E-01 -1.60854152E-01  1.14345644E+00
  1.00000000E+00  1.00000000E+00  1.83473713E-03  1.40373228E-02  6.88426223E-02
  2.32184443E-01  4.67941348E-01  3.62311985E-01 -1.19332420E-01 -1.60854152E-01
  1.14345644E+00  1.00000000E+00  1.00000000E+00  3.34946043E-02  2.34726953E-01
  8.13757326E-01  1.00000000E+00  3.34946043E-02  2.34726953E-01  8.13757326E-01
  1.00000000E+00  3.34946043E-02  2.34726953E-01  8.13757326E-01  1.00000000E+00
  3.34946043E-02  2.34726953E-01  8.13757326E-01  1.00000000E+00  3.34946043E-02
  2.34726953E-01  8.13757326E-01  1.00000000E+00  3.34946043E-02  2.34726953E-01
  8.13757326E-01  1.00000000E+00  3.34946043E-02  2.34726953E-01  8.13757326E-01
  1.00000000E+00  3.34946043E-02  2.34726953E-01  8.13757326E-01  1.00000000E+00
  3.34946043E-02  2.34726953E-01  8.13757326E-01  1.00000000E+00  3.34946043E-02
  2.34726953E-01  8.13757326E-01  1.00000000E+00
P(S=P) Contraction coefficients            R   N=         128
  0.00000000E+00  0.00000000E+00  0.00000000E+00  0.00000000E+00  0.00000000E+00
  0.00000000E+00  7.08742682E-02  3.39752839E-01  7.27158577E-01  1.00000000E+00
  0.00000000E+00  0.00000000E+00  0.00000000E+00  0.00000000E+00  0.00000000E+00
  0.00000000E+00  0.00000000E+00  6.75797439E-02  3.23907296E-01  7.40895140E-01
  1.00000000E+00  0.00000000E+00  0.00000000E+00  0.00000000E+00  0.00000000E+00
  0.00000000E+00  0.00000000E+00  0.00000000E+00  6.75797439E-02  3.23907296E-01
  7.40895140E-01  1.00000000E+00  0.00000000E+00  0.00000000E+00  0.00000000E+00
  0.00000000E+00  0.00000000E+00  0.00000000E+00  0.00000000E+00  6.89990666E-02
  3.16423961E-01  7.44308291E-01  1.00000000E+00  0.00000000E+00  0.00000000E+00
  0.00000000E+00  0.00000000E+00  0.00000000E+00  0.00000000E+00  0.00000000E+00
  6.89990666E-02  3.16423961E-01  7.44308291E-01  1.00000000E+00  0.00000000E+00
  0.00000000E+00  0.00000000E+00  0.00000000E+00  0.00000000E+00  0.00000000E+00
  0.00000000E+00  6.89990666E-02  3.16423961E-01  7.44308291E-01  1.00000000E+00
  0.00000000E+00  0.00000000E+00  0.00000000E+00  0.00000000E+00  0.00000000E+00
  0.00000000E+00  0.00000000E+00  6.89990666E-02  3.16423961E-01  7.44308291E-01
  1.00000000E+00  0.00000000E+00  0.00000000E+00  0.00000000E+00  0.00000000E+00
  0.00000000E+00  0.00000000E+00  0.00000000E+00  6.89990666E-02  3.16423961E-01
  7.44308291E-01  1.00000000E+00  0.00000000E+00  0.00000000E+00  0.00000000E+00
  0.00000000E+00  0.00000000E+00  0.00000000E+00  0.00000000E+00  0.00000000E+00
  0.00000000E+00  0.00000000E+00  0.00000000E+00  0.00000000E+00  0.00000000E+00
  0.00000000E+00  0.00000000E+00  0.00000000E+00  0.00000000E+00  0.00000000E+00
  0.00000000E+00  0.00000000E+00  0.00000000E+00  0.00000000E+00  0.00000000E+00
  0.00000000E+00  0.00000000E+00  0.00000000E+00  0.00000000E+00  0.00000000E+00
  0.00000000E+00  0.00000000E+00  0.00000000E+00  0.00000000E+00  0.00000000E+00
  0.00000000E+00  0.00000000E+00  0.00000000E+00  0.00000000E+00  0.00000000E+00
  0.00000000E+00  0.00000000E+00  0.00000000E+00
Coordinates of each shell                  R   N=         156
 -1.51645198E+00  2.43241289E+00 -5.60908311E-01 -1.51645198E+00  2.43241289E+00
 -5.60908311E-01 -1.51645198E+00  2.43241289E+00 -5.60908311E-01 -1.51645198E+00
  2.43241289E+00 -5.60908311E-01  7.07388140E-01 -1.31786812E+00 -2.42079581E-01
  7.07388140E-01 -1.31786812E+00 -2.42079581E-01  7.07388140E-01 -1.31786812E+00
 -2.42079581E-01  7.07388140E-01 -1.31786812E+00 -2.42079581E-01 -3.66532315E+00
 -1.31158710E+00  2.49537135E-02 -3.66532315E+00 -1.31158710E+00  2.49537135E-02
 -3.66532315E+00 -1.31158710E+00  2.49537135E-02 -3.66532315E+00 -1.31158710E+00
  2.49537135E-02  3.02121413E+00 -8.92247639E-02 -9.40194430E-01  3.02121413E+00
 -8.92247639E-02 -9.40194430E-01  3.02121413E+00 -8.92247639E-02 -9.40194430E-01
  3.02121413E+00 -8.92247639E-02 -9.40194430E-01  4.34668661E+00  1.41284454E+00
  1.05668077E+00  4.34668661E+00  1.41284454E+00  1.05668077E+00  4.34668661E+00
  1.41284454E+00  1.05668077E+00  4.34668661E+00  1.41284454E+00  1.05668077E+00
  5.40445908E+00 -1.09439151E+00  2.34438856E-01  5.40445908E+00 -1.09439151E+00
  2.34438856E-01  5.40445908E+00 -1.09439151E+00  2.34438856E-01  5.40445908E+00
 -1.09439151E+00  2.34438856E-01 -1.49592755E+00  1.28450881E-01 -2.76325034E-01
 -1.49592755E+00  1.28450881E-01 -2.76325034E-01 -1.49592755E+00  1.28450881E-01
 -2.76325034E-01 -1.49592755E+00  1.28450881E-01 -2.76325034E-01 -6.02686342E+00
  3.49947897E-02  4.51886190E-01 -6.02686342E+00  3.49947897E-02  4.51886190E-01
 -6.02686342E+00  3.49947897E-02  4.51886190E-01 -6.02686342E+00  3.49947897E-02
  4.51886190E-01  3.13410798E+00  6.26126146E-01 -2.86686253E+00  3.13410798E+00
  6.26126146E-01 -2.86686253E+00  3.42679625E+00  1.50578637E+00  2.88401904E+00
  3.42679625E+00  1.50578637E+00  2.88401904E+00  5.30424068E+00  3.12980256E+00
  4.78772379E-01  5.30424068E+00  3.12980256E+00  4.78772379E-01  7.10444914E+00
 -1.12241527E+00 -9.11125378E-01  7.10444914E+00 -1.12241527E+00 -9.11125378E-01
  5.20863981E+00 -2.67385339E+00  1.52647464E+00  5.20863981E+00 -2.67385339E+00
  1.52647464E+00  5.04571751E-01 -3.10371923E+00 -9.16272899E-01  5.04571751E-01
 -3.10371923E+00 -9.16272899E-01 -3.43242872E+00 -2.90770644E+00  1.05851630E+00
 -3.43242872E+00 -2.90770644E+00  1.05851630E+00 -6.09800902E+00  9.69272651E-01
  2.29912881E+00 -6.09800902E+00  9.69272651E-01  2.29912881E+00 -7.58585143E+00
 -1.30706177E+00  3.00395405E-01 -7.58585143E+00 -1.30706177E+00  3.00395405E-01
 -6.22676861E+00  1.47460820E+00 -1.00481634E+00 -6.22676861E+00  1.47460820E+00
 -1.00481634E+00
Constraint Structure                       R   N=          54
 -1.51645198E+00  2.43241289E+00 -5.60908311E-01  7.07388140E-01 -1.31786812E+00
 -2.42079581E-01 -3.66532315E+00 -1.31158710E+00  2.49537135E-02  3.02121413E+00
 -8.92247639E-02 -9.40194430E-01  4.34668661E+00  1.41284454E+00  1.05668077E+00
  5.40445908E+00 -1.09439151E+00  2.34438856E-01 -1.49592755E+00  1.28450881E-01
 -2.76325034E-01 -6.02686342E+00  3.49947897E-02  4.51886190E-01  3.13410798E+00
  6.26126146E-01 -2.86686253E+00  3.42679625E+00  1.50578637E+00  2.88401904E+00
  5.30424068E+00  3.12980256E+00  4.78772379E-01  7.10444914E+00 -1.12241527E+00
 -9.11125378E-01  5.20863981E+00 -2.67385339E+00  1.52647464E+00  5.04571751E-01
 -3.10371923E+00 -9.16272899E-01 -3.43242872E+00 -2.90770644E+00  1.05851630E+00
 -6.09800902E+00  9.69272651E-01  2.29912881E+00 -7.58585143E+00 -1.30706177E+00
  3.00395405E-01 -6.22676861E+00  1.47460820E+00 -1.00481634E+00
Num ILSW                                   I              100
ILSW                                       I   N=         100
           0           1           0           1           2           0
           0           0           0           0           0          -1
           0           0           0           0           0           0
           0           0           0           0           1           0
           1           0           0           0           0           0
           0           0      100000           0          -1           0
           0           0           0           0           0           0
           0           0           0           1           1           0
           0           0           1           0           0           0
           0           0           4          40           0           0
           0           0           0           0           0           0
           0           0           0           0           0           0
           0           0           0           0           0           0
           0           0           0           0           0           0
           0           0           0           0           0           0
           0           0           0           0           0           0
           0           0           0           0
Num RLSW                                   I               40
RLSW                                       R   N=          40
  1.00000000E+00  1.00000000E+00  1.00000000E+00  1.00000000E+00  1.00000000E+00
  0.00000000E+00  0.00000000E+00  1.00000000E+00  0.00000000E+00  0.00000000E+00
  0.00000000E+00  0.00000000E+00  1.00000000E+00  0.00000000E+00  0.00000000E+00
  0.00000000E+00  0.00000000E+00  1.00000000E+00  0.00000000E+00  0.00000000E+00
  0.00000000E+00  0.00000000E+00  1.00000000E+00  0.00000000E+00  0.00000000E+00
  0.00000000E+00  0.00000000E+00  1.00000000E+00  0.00000000E+00  0.00000000E+00
  0.00000000E+00  0.00000000E+00  0.00000000E+00  0.00000000E+00  0.00000000E+00
  0.00000000E+00  0.00000000E+00  0.00000000E+00  1.00000000E+00  1.00000000E+00
MxBond                                     I                4
NBond                                      I   N=          18
           1           3           3           4           4           4
           3           4           1           1           1           1
           1           1           1           1           1           1
IBond                                      I   N=          72
           7           0           0           0           4           7
          14           0           7           8          15           0
           2           5           6           9           4           6
          10          11           4           5          12          13
           1           2           3           0           3          16
          17          18           4           0           0           0
           5           0           0           0           5           0
           0           0           6           0           0           0
           6           0           0           0           2           0
           0           0           3           0           0           0
           8           0           0           0           8           0
           0           0           8           0           0           0
RBond                                      R   N=          72
  2.00000000E+00  0.00000000E+00  0.00000000E+00  0.00000000E+00  1.00000000E+00
  1.00000000E+00  1.00000000E+00  0.00000000E+00  1.00000000E+00  1.00000000E+00
  1.00000000E+00  0.00000000E+00  1.00000000E+00  1.00000000E+00  1.00000000E+00
  1.00000000E+00  1.00000000E+00  1.00000000E+00  1.00000000E+00  1.00000000E+00
  1.00000000E+00  1.00000000E+00  1.00000000E+00  1.00000000E+00  2.00000000E+00
  1.00000000E+00  1.00000000E+00  0.00000000E+00  1.00000000E+00  1.00000000E+00
  1.00000000E+00  1.00000000E+00  1.00000000E+00  0.00000000E+00  0.00000000E+00
  0.00000000E+00  1.00000000E+00  0.00000000E+00  0.00000000E+00  0.00000000E+00
  1.00000000E+00  0.00000000E+00  0.00000000E+00  0.00000000E+00  1.00000000E+00
  0.00000000E+00  0.00000000E+00  0.00000000E+00  1.00000000E+00  0.00000000E+00
  0.00000000E+00  0.00000000E+00  1.00000000E+00  0.00000000E+00  0.00000000E+00
  0.00000000E+00  1.00000000E+00  0.00000000E+00  0.00000000E+00  0.00000000E+00
  1.00000000E+00  0.00000000E+00  0.00000000E+00  0.00000000E+00  1.00000000E+00
  0.00000000E+00  0.00000000E+00  0.00000000E+00  1.00000000E+00  0.00000000E+00
  0.00000000E+00  0.00000000E+00
Virial Ratio                               R      2.002516614972325E+00
SCF Energy                                 R     -3.789078039787957E+02
MP2 Energy                                 R     -3.800502314207168E+02
Total Energy                               R     -3.800502314207168E+02
Post-SCF wavefunction norm                 R      1.649726244984218E+00
RMS Force                                  R      2.837737079876124E-07
RMS Density                                R      1.849931305955746E-09
External E-field                           R   N=          35
  0.00000000E+00  0.00000000E+00  0.00000000E+00  0.00000000E+00  0.00000000E+00
  0.00000000E+00  0.00000000E+00  0.00000000E+00  0.00000000E+00  0.00000000E+00
  0.00000000E+00  0.00000000E+00  0.00000000E+00  0.00000000E+00  0.00000000E+00
  0.00000000E+00  0.00000000E+00  0.00000000E+00  0.00000000E+00  0.00000000E+00
  0.00000000E+00  0.00000000E+00  0.00000000E+00  0.00000000E+00  0.00000000E+00
  0.00000000E+00  0.00000000E+00  0.00000000E+00  0.00000000E+00  0.00000000E+00
  0.00000000E+00  0.00000000E+00  0.00000000E+00  0.00000000E+00  0.00000000E+00
IOpCl                                      I                0
IROHF                                      I                0
Alpha Orbital Energies                     R   N=         140
 -2.05164964E+01 -1.55831727E+01 -1.55824540E+01 -1.13720237E+01 -1.12625744E+01
 -1.12546234E+01 -1.12277650E+01 -1.12220287E+01 -1.37979668E+00 -1.24147846E+00
 -1.21010875E+00 -1.11224024E+00 -9.41174026E-01 -8.27821851E-01 -8.22486364E-01
 -7.72007358E-01 -7.34448397E-01 -6.96018930E-01 -6.54127021E-01 -6.21940504E-01
 -6.09932560E-01 -5.95769666E-01 -5.57206377E-01 -5.41806236E-01 -5.35196745E-01
 -5.13730922E-01 -4.46827139E-01 -4.32774033E-01 -4.18544249E-01 -3.95723107E-01
 -3.82236243E-01  2.15896142E-01  2.17883928E-01  2.50685300E-01  2.64020268E-01
  2.65483503E-01  2.93208361E-01  3.08479906E-01  3.13398485E-01  3.27663263E-01
  3.32147819E-01  3.48343694E-01  3.76660528E-01  3.82345699E-01  4.22710787E-01
  4.31907575E-01  4.63814892E-01  4.85856930E-01  5.59014227E-01  6.04820165E-01
  7.06860225E-01  7.41220812E-01  7.49373930E-01  7.59488264E-01  7.81816086E-01
  7.98675332E-01  8.13361597E-01  8.30356218E-01  8.61563910E-01  8.85459000E-01
  9.04977149E-01  9.20100408E-01  9.33368228E-01  9.69614886E-01  9.87418508E-01
  1.00158443E+00  1.02157066E+00  1.04393671E+00  1.10276331E+00  1.12428928E+00
  1.12685852E+00  1.14268781E+00  1.16719342E+00  1.17644618E+00  1.18286686E+00
  1.19133510E+00  1.19320562E+00  1.20589014E+00  1.21710475E+00  1.22572819E+00
  1.23151700E+00  1.29742726E+00  1.33763161E+00  1.39680589E+00  1.41374722E+00
  1.50162204E+00  1.53631643E+00  1.56226546E+00  1.63746297E+00  1.64597497E+00
  1.66737418E+00  1.72158633E+00  1.78437883E+00  1.84424318E+00  1.96251653E+00
  2.01331425E+00  2.05037252E+00  2.07736256E+00  2.11389601E+00  2.15586170E+00
  2.15853468E+00  2.16987432E+00  2.18303570E+00  2.21235514E+00  2.22808050E+00
  2.30114826E+00  2.30789253E+00  2.35757802E+00  2.36845724E+00  2.41305499E+00
  2.43249275E+00  2.48636613E+00  2.51654165E+00  2.57826075E+00  2.63257891E+00
  2.64486886E+00  2.65863033E+00  2.68893748E+00  2.80594659E+00  2.83805342E+00
  2.85855347E+00  2.87991329E+00  2.91456377E+00  2.92713844E+00  2.95454729E+00
  3.02739639E+00  3.04280533E+00  3.14791205E+00  3.17114474E+00  3.30850940E+00
  3.48828504E+00  3.51821640E+00  4.37202139E+00  4.42881142E+00  4.53327642E+00
  4.60935868E+00  4.69192952E+00  4.81264128E+00  4.83827430E+00  4.93129038E+00
Alpha MO coefficients                      R   N=       19600
  9.94697810E-01  2.10419070E-02  2.65452982E-06 -1.56913325E-03  1.93113257E-04
  4.15808731E-03  8.20916348E-07  1.47032973E-04 -1.69526400E-05 -3.88883219E-03
 -3.62736534E-03 -4.06070768E-03 -5.72641754E-06 -3.09312861E-05 -6.26551173E-05
 -1.30014531E-05 -5.71545296E-05  6.70709777E-06 -3.30444772E-05  6.69024971E-06
  3.20441139E-04 -8.03428585E-05  8.03082459E-05 -2.88261529E-05  7.48737389E-05
 -9.50921076E-05 -5.50013859E-05  3.08113191E-05 -1.75166258E-05 -6.98247708E-07
 -1.27431816E-05 -5.74668142E-05 -3.59915417E-06 -3.28731131E-05 -2.38652038E-07
  3.13241551E-04  8.22903494E-05  6.90847425E-05  2.03138151E-05  7.55947746E-05
 -9.25812446E-05 -5.69495317E-05 -3.10494896E-05 -9.63751057E-06  1.03299619E-05
  8.70187568E-07  2.00901583E-05  6.07470201E-06  2.91841067E-05 -6.76751285E-06
 -4.94635398E-07  1.67612058E-04 -6.70568187E-05  2.99383161E-05 -2.02752451E-05
 -9.71636063E-06 -4.14509503E-06 -1.69979907E-05  1.47526571E-05  7.35640891E-06
  1.68581934E-06 -7.53833246E-06 -1.81422168E-05  6.25955517E-06 -1.37453173E-06
  2.67017638E-05  6.04673621E-05 -3.31640905E-05 -2.29211416E-05  1.31565597E-05
  1.21933241E-05  2.74961169E-06 -6.93811330E-06  1.71195216E-06 -1.53939981E-06
  3.76127499E-06  1.84368546E-05  8.80805857E-06  2.50890563E-07 -8.83869673E-07
 -2.04731902E-04  2.34010512E-05 -6.84183569E-05  4.80944611E-05  3.34387135E-06
  2.47536567E-06  4.08215705E-06  3.45564223E-06 -1.30238636E-06 -1.78459821E-06
  1.07032737E-07  5.43766012E-04 -3.08235374E-06 -2.48135101E-05  4.21643035E-06
 -5.43028845E-04  1.14680384E-05 -1.20760832E-04  9.03354000E-06 -5.84422645E-05
 -7.86408236E-04 -5.28667618E-05  8.60194344E-06  6.29091996E-06  1.06284789E-04
  1.16154653E-07  2.39180884E-05 -5.49257951E-06  2.35668493E-05  9.18672452E-06
 -1.86497950E-06 -1.17066299E-04 -4.56475384E-05 -3.20712211E-05 -2.78040744E-05
 -1.34334068E-05 -8.40244102E-06  1.74277738E-05  8.45892347E-06 -1.52273060E-06
  2.31502766E-05 -2.44953771E-06  1.49535102E-05  7.62961574E-06 -3.43627863E-06
 -1.85437474E-06  1.25573609E-05  2.40988437E-05 -1.95546378E-06 -8.97673128E-06
  1.22881509E-05 -3.81015701E-05  5.94432733E-06 -3.78111308E-05  1.98341413E-05
  1.04855507E-05 -1.21190751E-05 -5.59330150E-05  2.95721604E-05 -8.05215700E-05
 -1.87937951E-05 -1.24208859E-04  3.72597589E-06  2.59523999E-05 -1.00506616E-05
  7.13060034E-04 -3.58777290E-04 -1.77691504E-04  1.27569916E-04 -6.51016780E-05
 -3.66971494E-05 -9.65419708E-05  9.30428875E-05 -1.54655289E-05 -3.41137922E-05
  9.94855460E-01  2.53451182E-02 -2.14278390E-04  2.06645604E-04 -8.41468669E-04
 -4.37900244E-03  4.54080969E-04 -9.15730752E-04  8.12942754E-04 -3.39180731E-03
 -3.38537296E-03 -3.17247594E-03 -1.70386222E-05  4.62872441E-05  1.37425823E-06
 -1.78759141E-02 -4.85340839E-04 -2.26477415E-05 -2.48297133E-05 -1.36817481E-05
  1.13636383E-05 -3.28051050E-04  2.69178065E-04  4.36709556E-05  4.59184163E-06
  1.06077253E-04  1.12435845E-05 -5.90901865E-06 -7.09088754E-08  5.02011654E-06
 -3.02656922E-06  1.76876039E-04 -2.34175613E-04 -1.01980021E-04  5.96430931E-05
  1.43379509E-03 -7.09964220E-04 -3.76118087E-04  1.06743304E-04 -6.37369279E-05
 -1.24630181E-04 -4.14501281E-05 -1.54518544E-05  3.16653861E-05  3.14602037E-08