
    -----------------------------------------------------------------------
          Psi4: An Open-Source Ab Initio Electronic Structure Package
                               Psi4 1.3.2 release

                         Git: Rev {HEAD} ecbda83 


    R. M. Parrish, L. A. Burns, D. G. A. Smith, A. C. Simmonett,
    A. E. DePrince III, E. G. Hohenstein, U. Bozkaya, A. Yu. Sokolov,
    R. Di Remigio, R. M. Richard, J. F. Gonthier, A. M. James,
    H. R. McAlexander, A. Kumar, M. Saitow, X. Wang, B. P. Pritchard,
    P. Verma, H. F. Schaefer III, K. Patkowski, R. A. King, E. F. Valeev,
    F. A. Evangelista, J. M. Turney, T. D. Crawford, and C. D. Sherrill,
    J. Chem. Theory Comput. 13(7) pp 3185--3197 (2017).
    (doi: 10.1021/acs.jctc.7b00174)


                         Additional Contributions by
    P. Kraus, H. Kruse, M. H. Lechner, M. C. Schieber, R. A. Shaw,
    A. Alenaizan, R. Galvelis, Z. L. Glick, S. Lehtola, and J. P. Misiewicz

    -----------------------------------------------------------------------


    Psi4 started on: Friday, 12 February 2021 07:08AM

    Process ID: 63656
    Host:       node144.bme.utexas.edu
    PSIDATADIR: /home/xy3866/psi4conda/share/psi4
    Memory:     500.0 MiB
    Threads:    8
    
  ==> Input File <==

--------------------------------------------------------------------------
#psi4
#
memory 32 gb

molecule  {
0 1
  O       -2.6785490     0.0000000    -0.0000150
  O        2.6785490     0.0000000    -0.0000520
  C       -1.4409660     0.0000000     0.0000110
  C        1.4409670     0.0000000    -0.0000170
  C        0.6745940    -1.2666350     0.0000030
  C       -0.6745950    -1.2666360     0.0000440
  C        0.6745950     1.2666360    -0.0000060
  C       -0.6745994     1.2666357     0.2000350
  H        1.2594220    -2.1829270     0.0000060
  H        1.2594200     2.1829290    -0.0000100
  H       -1.2594210    -2.1829290     0.0000640
  H       -1.2594220     2.1829270     0.0000490
units angstrom
no_reorient  #important for SAPT in psi4, default
symmetry c1  #important for SAPT in psi4, default
}

set PROPERTIES_ORIGIN ["COM"]
properties('MP2/aug-cc-pvtz', properties = ['dipole'])
--------------------------------------------------------------------------

  Memory set to  29.802 GiB by Python driver.
    SCF Algorithm Type (re)set to DF.

*** tstart() called on node144.bme.utexas.edu
*** at Fri Feb 12 07:08:00 2021

   => Loading Basis Set <=

    Name: AUG-CC-PVTZ
    Role: ORBITAL
    Keyword: BASIS
    atoms 1-2  entry O          line   327 file /home/xy3866/psi4conda/share/psi4/basis/aug-cc-pvtz.gbs 
    atoms 3-8  entry C          line   235 file /home/xy3866/psi4conda/share/psi4/basis/aug-cc-pvtz.gbs 
    atoms 9-12 entry H          line    36 file /home/xy3866/psi4conda/share/psi4/basis/aug-cc-pvtz.gbs 


         ---------------------------------------------------------
                                   SCF
               by Justin Turney, Rob Parrish, Andy Simmonett
                          and Daniel G. A. Smith
                              RHF Reference
                        8 Threads,  30517 MiB Core
         ---------------------------------------------------------

  ==> Geometry <==

    Molecular point group: c1
    Full point group: C1

    Geometry (in Angstrom), charge = 0, multiplicity = 1:

       Center              X                  Y                   Z               Mass       
    ------------   -----------------  -----------------  -----------------  -----------------
         O           -2.678548501877    -0.000000077763    -0.022231747850    15.994914619570
         O            2.678549498123    -0.000000077763    -0.022268747850    15.994914619570
         C           -1.440965501877    -0.000000077763    -0.022205747850    12.000000000000
         C            1.440967498123    -0.000000077763    -0.022233747850    12.000000000000
         C            0.674594498123    -1.266635077763    -0.022213747850    12.000000000000
         C           -0.674594501877    -1.266636077763    -0.022172747850    12.000000000000
         C            0.674595498123     1.266635922237    -0.022222747850    12.000000000000
         C           -0.674598901877     1.266635622237     0.177818252150    12.000000000000
         H            1.259422498123    -2.182927077763    -0.022210747850     1.007825032230
         H            1.259420498123     2.182928922237    -0.022226747850     1.007825032230
         H           -1.259420501877    -2.182929077763    -0.022152747850     1.007825032230
         H           -1.259421501877     2.182926922237    -0.022167747850     1.007825032230

  Running in c1 symmetry.

  Rotational constants: A =      0.17444  B =      0.05475  C =      0.04174 [cm^-1]
  Rotational constants: A =   5229.62584  B =   1641.28434  C =   1251.21502 [MHz]
  Nuclear repulsion =  321.059263337769323

  Charge       = 0
  Multiplicity = 1
  Electrons    = 56
  Nalpha       = 28
  Nbeta        = 28

  ==> Algorithm <==

  SCF Algorithm Type is DF.
  DIIS enabled.
  MOM disabled.
  Fractional occupation disabled.
  Guess Type is SAD.
  Energy threshold   = 1.00e-10
  Density threshold  = 1.00e-10
  Integral threshold = 0.00e+00

  ==> Primary Basis <==

  Basis Set: AUG-CC-PVTZ
    Blend: AUG-CC-PVTZ
    Number of shells: 148
    Number of basis function: 460
    Number of Cartesian functions: 540
    Spherical Harmonics?: true
    Max angular momentum: 3

   => Loading Basis Set <=

    Name: (AUG-CC-PVTZ AUX)
    Role: JKFIT
    Keyword: DF_BASIS_SCF
    atoms 1-2  entry O          line   286 file /home/xy3866/psi4conda/share/psi4/basis/aug-cc-pvtz-jkfit.gbs 
    atoms 3-8  entry C          line   162 file /home/xy3866/psi4conda/share/psi4/basis/aug-cc-pvtz-jkfit.gbs 
    atoms 9-12 entry H          line    70 file /home/xy3866/psi4conda/share/psi4/basis/aug-cc-pvtz-jkfit.gbs 

  ==> Pre-Iterations <==

   -------------------------------------------------------
    Irrep   Nso     Nmo     Nalpha   Nbeta   Ndocc  Nsocc
   -------------------------------------------------------
     A        460     460       0       0       0       0
   -------------------------------------------------------
    Total     460     460      28      28      28       0
   -------------------------------------------------------

  ==> Integral Setup <==

  DFHelper Memory: AOs need 1.621 GiB; user supplied 22.352 GiB. Using in-core AOs.

  ==> MemDFJK: Density-Fitted J/K Matrices <==

    J tasked:                   Yes
    K tasked:                   Yes
    wK tasked:                   No
    OpenMP threads:               8
    Memory [MiB]:             22888
    Algorithm:                 Core
    Schwarz Cutoff:           1E-12
    Mask sparsity (%):       2.7042
    Fitting Condition:        1E-10

   => Auxiliary Basis Set <=

  Basis Set: (AUG-CC-PVTZ AUX)
    Blend: AUG-CC-PVTZ-JKFIT
    Number of shells: 296
    Number of basis function: 1016
    Number of Cartesian functions: 1268
    Spherical Harmonics?: true
    Max angular momentum: 4

  Minimum eigenvalue in the overlap matrix is 3.0426993155E-06.
  Using Symmetric Orthogonalization.

  SCF Guess: Superposition of Atomic Densities via on-the-fly atomic UHF.

  ==> Iterations <==

                           Total Energy        Delta E     RMS |[F,P]|

   @DF-RHF iter SAD:  -378.17123326497199   -3.78171e+02   0.00000e+00 
   @DF-RHF iter   1:  -379.16969609557782   -9.98463e-01   1.30769e-03 DIIS
   @DF-RHF iter   2:  -379.30207229691513   -1.32376e-01   8.16673e-04 DIIS
   @DF-RHF iter   3:  -379.34685710136449   -4.47848e-02   1.84335e-04 DIIS
   @DF-RHF iter   4:  -379.35070229613075   -3.84519e-03   6.91586e-05 DIIS
   @DF-RHF iter   5:  -379.35134206084365   -6.39765e-04   1.04444e-05 DIIS
   @DF-RHF iter   6:  -379.35137962551846   -3.75647e-05   4.56018e-06 DIIS
   @DF-RHF iter   7:  -379.35138545258388   -5.82707e-06   2.21179e-06 DIIS
   @DF-RHF iter   8:  -379.35138691787159   -1.46529e-06   7.56606e-07 DIIS
   @DF-RHF iter   9:  -379.35138717551109   -2.57639e-07   3.58776e-07 DIIS
   @DF-RHF iter  10:  -379.35138722043433   -4.49232e-08   1.69557e-07 DIIS
   @DF-RHF iter  11:  -379.35138723807512   -1.76408e-08   7.90838e-08 DIIS
   @DF-RHF iter  12:  -379.35138724220428   -4.12916e-09   4.63091e-08 DIIS
   @DF-RHF iter  13:  -379.35138724338935   -1.18507e-09   1.68500e-08 DIIS
   @DF-RHF iter  14:  -379.35138724355875   -1.69393e-10   3.92931e-09 DIIS
   @DF-RHF iter  15:  -379.35138724356398   -5.22959e-12   1.50601e-09 DIIS
   @DF-RHF iter  16:  -379.35138724356489   -9.09495e-13   7.90974e-10 DIIS
   @DF-RHF iter  17:  -379.35138724356381    1.08002e-12   2.88250e-10 DIIS
   @DF-RHF iter  18:  -379.35138724356648   -2.67164e-12   1.38038e-10 DIIS
   @DF-RHF iter  19:  -379.35138724356585    6.25278e-13   6.45747e-11 DIIS
  Energy and wave function converged.


  ==> Post-Iterations <==

    Orbital Energies [Eh]
    ---------------------

    Doubly Occupied:                                                      

       1A    -20.583539     2A    -20.581611     3A    -11.367940  
       4A    -11.367844     5A    -11.293691     6A    -11.291334  
       7A    -11.289718     8A    -11.288080     9A     -1.405681  
      10A     -1.402409    11A     -1.160337    12A     -1.075352  
      13A     -0.970416    14A     -0.875888    15A     -0.830908  
      16A     -0.714226    17A     -0.712001    18A     -0.688858  
      19A     -0.641142    20A     -0.629435    21A     -0.601490  
      22A     -0.593313    23A     -0.582535    24A     -0.549111  
      25A     -0.467148    26A     -0.448208    27A     -0.414631  
      28A     -0.410822  

    Virtual:                                                              

      29A     -0.006539    30A      0.025684    31A      0.029678  
      32A      0.040755    33A      0.049537    34A      0.066167  
      35A      0.071366    36A      0.085358    37A      0.094921  
      38A      0.099402    39A      0.103733    40A      0.104259  
      41A      0.106426    42A      0.119372    43A      0.120826  
      44A      0.122828    45A      0.124910    46A      0.135431  
      47A      0.137448    48A      0.141243    49A      0.149188  
      50A      0.151645    51A      0.151909    52A      0.155744  
      53A      0.161977    54A      0.184126    55A      0.194910  
      56A      0.210672    57A      0.221388    58A      0.233156  
      59A      0.237490    60A      0.241370    61A      0.243282  
      62A      0.244734    63A      0.265864    64A      0.274333  
      65A      0.275596    66A      0.279027    67A      0.282039  
      68A      0.290990    69A      0.297383    70A      0.303542  
      71A      0.308813    72A      0.313365    73A      0.319022  
      74A      0.327847    75A      0.336146    76A      0.340025  
      77A      0.349302    78A      0.365608    79A      0.373135  
      80A      0.374283    81A      0.394016    82A      0.399236  
      83A      0.411462    84A      0.415218    85A      0.418833  
      86A      0.425749    87A      0.430663    88A      0.434500  
      89A      0.437131    90A      0.439785    91A      0.445695  
      92A      0.452312    93A      0.454738    94A      0.464802  
      95A      0.466843    96A      0.480592    97A      0.505256  
      98A      0.507228    99A      0.514783   100A      0.520647  
     101A      0.527940   102A      0.532069   103A      0.538175  
     104A      0.556443   105A      0.562363   106A      0.576865  
     107A      0.584084   108A      0.590018   109A      0.604458  
     110A      0.608717   111A      0.615388   112A      0.617600  
     113A      0.638564   114A      0.655067   115A      0.659868  
     116A      0.670364   117A      0.679238   118A      0.689476  
     119A      0.693390   120A      0.702351   121A      0.707124  
     122A      0.729374   123A      0.732854   124A      0.746398  
     125A      0.769115   126A      0.774205   127A      0.780033  
     128A      0.789867   129A      0.806644   130A      0.811055  
     131A      0.823225   132A      0.832804   133A      0.833934  
     134A      0.845566   135A      0.856488   136A      0.862624  
     137A      0.871287   138A      0.875174   139A      0.883693  
     140A      0.894170   141A      0.901120   142A      0.906248  
     143A      0.909592   144A      0.916689   145A      0.923178  
     146A      0.938740   147A      0.940547   148A      0.948196  
     149A      0.965507   150A      0.972387   151A      0.975664  
     152A      0.985256   153A      0.995367   154A      1.001062  
     155A      1.011503   156A      1.012543   157A      1.017724  
     158A      1.035118   159A      1.038139   160A      1.044254  
     161A      1.049332   162A      1.053334   163A      1.075198  
     164A      1.077405   165A      1.085198   166A      1.087935  
     167A      1.101644   168A      1.114372   169A      1.120119  
     170A      1.140123   171A      1.147699   172A      1.156680  
     173A      1.167592   174A      1.174227   175A      1.175616  
     176A      1.181183   177A      1.184434   178A      1.190502  
     179A      1.197548   180A      1.217470   181A      1.222955  
     182A      1.236041   183A      1.241266   184A      1.255934  
     185A      1.269107   186A      1.279769   187A      1.294859  
     188A      1.320994   189A      1.340982   190A      1.351523  
     191A      1.359397   192A      1.370624   193A      1.382623  
     194A      1.397222   195A      1.433271   196A      1.442511  
     197A      1.458725   198A      1.463770   199A      1.483126  
     200A      1.488560   201A      1.507101   202A      1.520316  
     203A      1.550144   204A      1.563912   205A      1.576012  
     206A      1.583524   207A      1.610884   208A      1.618966  
     209A      1.627641   210A      1.677435   211A      1.682985  
     212A      1.691394   213A      1.696628   214A      1.706253  
     215A      1.708138   216A      1.721608   217A      1.741934  
     218A      1.760505   219A      1.763805   220A      1.777179  
     221A      1.786082   222A      1.796253   223A      1.804442  
     224A      1.813194   225A      1.847327   226A      1.855248  
     227A      1.879576   228A      1.895335   229A      1.901824  
     230A      1.912011   231A      1.921995   232A      1.933536  
     233A      1.945740   234A      1.955420   235A      1.957201  
     236A      1.964420   237A      1.969123   238A      1.982510  
     239A      1.991976   240A      2.005366   241A      2.042048  
     242A      2.051228   243A      2.069733   244A      2.109091  
     245A      2.117956   246A      2.135869   247A      2.157471  
     248A      2.186630   249A      2.197114   250A      2.207829  
     251A      2.245419   252A      2.266123   253A      2.274087  
     254A      2.286382   255A      2.288854   256A      2.305985  
     257A      2.349244   258A      2.354539   259A      2.373703  
     260A      2.390044   261A      2.404596   262A      2.433216  
     263A      2.449015   264A      2.463060   265A      2.499538  
     266A      2.503495   267A      2.517430   268A      2.530551  
     269A      2.534054   270A      2.560716   271A      2.577383  
     272A      2.589329   273A      2.630548   274A      2.670417  
     275A      2.679639   276A      2.691689   277A      2.710813  
     278A      2.726647   279A      2.745564   280A      2.780696  
     281A      2.783744   282A      2.812179   283A      2.843279  
     284A      2.875650   285A      2.889054   286A      2.918573  
     287A      2.957265   288A      2.971727   289A      2.993101  
     290A      3.033156   291A      3.047138   292A      3.082022  
     293A      3.115496   294A      3.126420   295A      3.152753  
     296A      3.160764   297A      3.187450   298A      3.206357  
     299A      3.221927   300A      3.238721   301A      3.283341  
     302A      3.304697   303A      3.321775   304A      3.328160  
     305A      3.352695   306A      3.384165   307A      3.390604  
     308A      3.411658   309A      3.444623   310A      3.450698  
     311A      3.455286   312A      3.473191   313A      3.484031  
     314A      3.491517   315A      3.530879   316A      3.537867  
     317A      3.549789   318A      3.565164   319A      3.575212  
     320A      3.591331   321A      3.601319   322A      3.628362  
     323A      3.649674   324A      3.662360   325A      3.672110  
     326A      3.695453   327A      3.697370   328A      3.719555  
     329A      3.739533   330A      3.756113   331A      3.784908  
     332A      3.804708   333A      3.813759   334A      3.828624  
     335A      3.841351   336A      3.857722   337A      3.865008  
     338A      3.891275   339A      3.896611   340A      3.926056  
     341A      3.974224   342A      3.979127   343A      3.998268  
     344A      4.007325   345A      4.016194   346A      4.031823  
     347A      4.054481   348A      4.058425   349A      4.082882  
     350A      4.095109   351A      4.122341   352A      4.155623  
     353A      4.166586   354A      4.200866   355A      4.217345  
     356A      4.221736   357A      4.237432   358A      4.262353  
     359A      4.268612   360A      4.284313   361A      4.305379  
     362A      4.305966   363A      4.312686   364A      4.326137  
     365A      4.335649   366A      4.364414   367A      4.370927  
     368A      4.402892   369A      4.420726   370A      4.438487  
     371A      4.453044   372A      4.523418   373A      4.531434  
     374A      4.557548   375A      4.598647   376A      4.616558  
     377A      4.691692   378A      4.711274   379A      4.717207  
     380A      4.731265   381A      4.793586   382A      4.813546  
     383A      4.830982   384A      4.852019   385A      4.878670  
     386A      4.926474   387A      4.929345   388A      4.953480  
     389A      4.981909   390A      4.983664   391A      5.017266  
     392A      5.022223   393A      5.033449   394A      5.055000  
     395A      5.069846   396A      5.076201   397A      5.098785  
     398A      5.135741   399A      5.151874   400A      5.171935  
     401A      5.216548   402A      5.244905   403A      5.296561  
     404A      5.304121   405A      5.357408   406A      5.382997  
     407A      5.486395   408A      5.505967   409A      5.577189  
     410A      5.591388   411A      5.651685   412A      5.704829  
     413A      5.748615   414A      5.847997   415A      5.888110  
     416A      5.921830   417A      5.930467   418A      6.031970  
     419A      6.053427   420A      6.067261   421A      6.240396  
     422A      6.414630   423A      6.432550   424A      6.485372  
     425A      6.540696   426A      6.630917   427A      6.649119  
     428A      6.693678   429A      6.698072   430A      6.726773  
     431A      6.747207   432A      6.887697   433A      6.919554  
     434A      6.970498   435A      7.025965   436A      7.056665  
     437A      7.109874   438A      7.141126   439A      7.298236  
     440A      7.357757   441A      7.373399   442A      7.401182  
     443A      7.461031   444A      7.619186   445A      7.673632  
     446A      7.681715   447A      7.697961   448A      7.724428  
     449A      7.783393   450A      7.879011   451A      7.888307  
     452A      7.971844   453A     15.164095   454A     15.681821  
     455A     15.996414   456A     16.311464   457A     18.307957  
     458A     18.421026   459A     18.856308   460A     19.036188  

    Final Occupation by Irrep:
              A 
    DOCC [    28 ]

  @DF-RHF Final Energy:  -379.35138724356585

   => Energetics <=

    Nuclear Repulsion Energy =            321.0592633377693232
    One-Electron Energy =               -1152.3459685769078078
    Two-Electron Energy =                 451.9353179955725750
    Total Energy =                       -379.3513872435658527

Computation Completed

*** tstop() called on node144.bme.utexas.edu at Fri Feb 12 07:08:13 2021
Module time:
	user time   =      85.36 seconds =       1.42 minutes
	system time =       2.87 seconds =       0.05 minutes
	total time  =         13 seconds =       0.22 minutes
Total time:
	user time   =      85.36 seconds =       1.42 minutes
	system time =       2.87 seconds =       0.05 minutes
	total time  =         13 seconds =       0.22 minutes
   => Loading Basis Set <=

    Name: (AUG-CC-PVTZ AUX)
    Role: RIFIT
    Keyword: DF_BASIS_MP2
    atoms 1-2  entry O          line   264 file /home/xy3866/psi4conda/share/psi4/basis/aug-cc-pvtz-ri.gbs 
    atoms 3-8  entry C          line   148 file /home/xy3866/psi4conda/share/psi4/basis/aug-cc-pvtz-ri.gbs 
    atoms 9-12 entry H          line    30 file /home/xy3866/psi4conda/share/psi4/basis/aug-cc-pvtz-ri.gbs 


*** tstart() called on node144.bme.utexas.edu
*** at Fri Feb 12 07:08:13 2021


  //>>>>>>>>>>>>>>>>>>>>>>>>>>>>>>>>>>>//
  //               DFMP2               //
  //<<<<<<<<<<<<<<<<<<<<<<<<<<<<<<<<<<<//

	 --------------------------------------------------------
	                          DF-MP2                         
	      2nd-Order Density-Fitted Moller-Plesset Theory     
	              RMP2 Wavefunction,   8 Threads             
	                                                         
	        Rob Parrish, Justin Turney, Andy Simmonett,      
	           Ed Hohenstein, and C. David Sherrill          
	 --------------------------------------------------------

   => Auxiliary Basis Set <=

  Basis Set: (AUG-CC-PVTZ AUX)
    Blend: AUG-CC-PVTZ-RI
    Number of shells: 280
    Number of basis function: 1032
    Number of Cartesian functions: 1308
    Spherical Harmonics?: true
    Max angular momentum: 4

	 --------------------------------------------------------
	                 NBF =   460, NAUX =  1032
	 --------------------------------------------------------
	   CLASS    FOCC     OCC    AOCC    AVIR     VIR    FVIR
	   PAIRS       0      28      28     432     432       0
	 --------------------------------------------------------

  DFHelper Memory: AOs need 1.621 GiB; user supplied 22.352 GiB. Using in-core AOs.


         ------------------------------------------------------------
                                     CPHF                           
                                  Rob Parrish                       
         ------------------------------------------------------------

  ==> Geometry <==

    Molecular point group: c1
    Full point group: C1

    Geometry (in Angstrom), charge = 0, multiplicity = 1:

       Center              X                  Y                   Z               Mass       
    ------------   -----------------  -----------------  -----------------  -----------------
         O           -2.678548501877    -0.000000077763    -0.022231747850    15.994914619570
         O            2.678549498123    -0.000000077763    -0.022268747850    15.994914619570
         C           -1.440965501877    -0.000000077763    -0.022205747850    12.000000000000
         C            1.440967498123    -0.000000077763    -0.022233747850    12.000000000000
         C            0.674594498123    -1.266635077763    -0.022213747850    12.000000000000
         C           -0.674594501877    -1.266636077763    -0.022172747850    12.000000000000
         C            0.674595498123     1.266635922237    -0.022222747850    12.000000000000
         C           -0.674598901877     1.266635622237     0.177818252150    12.000000000000
         H            1.259422498123    -2.182927077763    -0.022210747850     1.007825032230
         H            1.259420498123     2.182928922237    -0.022226747850     1.007825032230
         H           -1.259420501877    -2.182929077763    -0.022152747850     1.007825032230
         H           -1.259421501877     2.182926922237    -0.022167747850     1.007825032230

  Nuclear repulsion =  321.059263337769323
  Reference energy  = -379.351387243565853

  ==> Basis Set <==

  Basis Set: AUG-CC-PVTZ
    Blend: AUG-CC-PVTZ
    Number of shells: 148
    Number of basis function: 460
    Number of Cartesian functions: 540
    Spherical Harmonics?: true
    Max angular momentum: 3

  ==> CGRSolver (by Rob Parrish) <==

   Number of roots    =         1
   Preconditioning    =    JACOBI
   Convergence cutoff =     1E-06
   Maximum iterations =       100

  ==> CPHFRHamiltonian (by Rob Parrish) <== 

  ==> MemDFJK: Density-Fitted J/K Matrices <==

    J tasked:                   Yes
    K tasked:                   Yes
    wK tasked:                   No
    OpenMP threads:               8
    Memory [MiB]:             22888
    Algorithm:                 Core
    Schwarz Cutoff:           1E-12
    Mask sparsity (%):       2.7042
    Fitting Condition:        1E-10

   => Auxiliary Basis Set <=

  Basis Set: (AUG-CC-PVTZ AUX)
    Blend: AUG-CC-PVTZ-JKFIT
    Number of shells: 296
    Number of basis function: 1016
    Number of Cartesian functions: 1268
    Spherical Harmonics?: true
    Max angular momentum: 4

  ==> CPHF Iterations <==

  => Iterations <=

             Iter  Converged  Remaining    Residual
  CGR           1          0          1   1.229E-01
  CGR           2          0          1   3.489E-02
  CGR           3          0          1   1.158E-02
  CGR           4          0          1   4.126E-03
  CGR           5          0          1   1.338E-03
  CGR           6          0          1   5.590E-04
  CGR           7          0          1   2.411E-04
  CGR           8          0          1   1.458E-04
  CGR           9          0          1   7.310E-05
  CGR          10          0          1   2.985E-05
  CGR          11          0          1   8.770E-06
  CGR          12          0          1   4.215E-06
  CGR          13          0          1   1.456E-06
  CGR          14          1          0   5.375E-07

    CGRSolver converged.

	-----------------------------------------------------------
	 ==================> DF-MP2 Energies <==================== 
	-----------------------------------------------------------
	 Reference Energy          =    -379.3513872435658527 [Eh]
	 Singles Energy            =      -0.0000000000000000 [Eh]
	 Same-Spin Energy          =      -0.3786373640480599 [Eh]
	 Opposite-Spin Energy      =      -1.1662786569604902 [Eh]
	 Correlation Energy        =      -1.5449160210085502 [Eh]
	 Total Energy              =    -380.8963032645743851 [Eh]
	-----------------------------------------------------------
	 ================> DF-SCS-MP2 Energies <================== 
	-----------------------------------------------------------
	 SCS Same-Spin Scale       =       0.3333333333333333 [-]
	 SCS Opposite-Spin Scale   =       1.2000000000000000 [-]
	 SCS Same-Spin Energy      =      -0.1262124546826866 [Eh]
	 SCS Opposite-Spin Energy  =      -1.3995343883525881 [Eh]
	 SCS Correlation Energy    =      -1.5257468430352747 [Eh]
	 SCS Total Energy          =    -380.8771340866011315 [Eh]
	-----------------------------------------------------------



Properties will be evaluated at   0.000000,  -0.000000,  -0.000000 [a0]

Properties computed using the MP2 density matrix

  Nuclear Dipole Moment: [e a0]
     X:     0.0000      Y:    -0.0000      Z:    -0.0834

  Electronic Dipole Moment: [e a0]
     X:     0.0186      Y:    -0.0161      Z:     0.0499

  Dipole Moment: [e a0]
     X:     0.0186      Y:    -0.0161      Z:    -0.0335     Total:     0.0416

  Dipole Moment: [D]
     X:     0.0472      Y:    -0.0409      Z:    -0.0853     Total:     0.1056


*** tstop() called on node144.bme.utexas.edu at Fri Feb 12 07:08:57 2021
Module time:
	user time   =     280.09 seconds =       4.67 minutes
	system time =       7.19 seconds =       0.12 minutes
	total time  =         44 seconds =       0.73 minutes
Total time:
	user time   =     366.34 seconds =       6.11 minutes
	system time =      10.13 seconds =       0.17 minutes
	total time  =         57 seconds =       0.95 minutes

    Psi4 stopped on: Friday, 12 February 2021 07:08AM
    Psi4 wall time for execution: 0:00:56.71

*** Psi4 exiting successfully. Buy a developer a beer!
