026_CH2Cl2 Gaussian SP Calculation on g2-node38.bme.utexas.edu          
Freq      RMP2-FC                                                     6-31G(d)            
Number of atoms                            I                5
Info1-9                                    I   N=           9
          16          15        1002           0           0         100
           6           2           1
Charge                                     I                0
Multiplicity                               I                1
Number of electrons                        I               42
Number of alpha electrons                  I               21
Number of beta electrons                   I               21
Number of basis functions                  I               57
Number of independent functions            I               57
Number of point charges in /Mol/           I                0
Number of translation vectors              I                0
Atomic numbers                             I   N=           5
          17          17           6           1           1
Nuclear charges                            R   N=           5
  1.70000000E+01  1.70000000E+01  6.00000000E+00  1.00000000E+00  1.00000000E+00
Current cartesian coordinates              R   N=          15
  2.78752773E+00 -4.06892655E-01 -1.18998175E-06 -2.78752863E+00 -4.06892097E-01
 -1.25319375E-06  2.77842172E-06  1.43780335E+00 -1.51972019E-06  1.68519106E-07
  2.60380047E+00 -1.69145220E+00 -1.60238593E-06  2.60372025E+00  1.69150285E+00
Force Field                                I                0
Int Atom Types                             I   N=           5
           0           0           0           0           0
MM charges                                 R   N=           5
  0.00000000E+00  0.00000000E+00  0.00000000E+00  0.00000000E+00  0.00000000E+00
Integer atomic weights                     I   N=           5
          35          35          12           1           1
Real atomic weights                        R   N=           5
  3.49688527E+01  3.49688527E+01  1.20000000E+01  1.00782504E+00  1.00782504E+00
Atom fragment info                         I   N=           5
           0           0           0           0           0
Atom residue num                           I   N=           5
           0           0           0           0           0
Nuclear spins                              I   N=           5
           3           3           0           1           1
Nuclear ZEff                               R   N=           5
 -1.42400000E+01 -1.42400000E+01 -3.60000000E+00 -1.00000000E+00 -1.00000000E+00
Nuclear QMom                               R   N=           5
 -8.16500000E+00 -8.16500000E+00  0.00000000E+00  0.00000000E+00  0.00000000E+00
Nuclear GFac                               R   N=           5
  8.21874000E-01  8.21874000E-01  0.00000000E+00  2.79284600E+00  2.79284600E+00
MicOpt                                     I   N=           5
          -1          -1          -1          -1          -1
Number of contracted shells                I               18
Number of primitive shells                 I               53
Pure/Cartesian d shells                    I                1
Pure/Cartesian f shells                    I                0
Highest angular momentum                   I                2
Largest degree of contraction              I                6
Shell types                                I   N=          18
           0          -1          -1          -1           2           0
          -1          -1          -1           2           0          -1
          -1           2           0           0           0           0
Number of primitives per shell             I   N=          18
           6           6           3           1           1           6
           6           3           1           1           6           3
           1           1           3           1           3           1
Shell to atom map                          I   N=          18
           1           1           1           1           1           2
           2           2           2           2           3           3
           3           3           4           4           5           5
Primitive exponents                        R   N=          53
  2.51801000E+04  3.78035000E+03  8.60474000E+02  2.42145000E+02  7.73349000E+01
  2.62470000E+01  4.91765000E+02  1.16984000E+02  3.74153000E+01  1.37834000E+01
  5.45215000E+00  2.22588000E+00  3.18649000E+00  1.14427000E+00  4.20377000E-01
  1.42657000E-01  7.50000000E-01  2.51801000E+04  3.78035000E+03  8.60474000E+02
  2.42145000E+02  7.73349000E+01  2.62470000E+01  4.91765000E+02  1.16984000E+02
  3.74153000E+01  1.37834000E+01  5.45215000E+00  2.22588000E+00  3.18649000E+00
  1.14427000E+00  4.20377000E-01  1.42657000E-01  7.50000000E-01  3.04752488E+03
  4.57369518E+02  1.03948685E+02  2.92101553E+01  9.28666296E+00  3.16392696E+00
  7.86827235E+00  1.88128854E+00  5.44249258E-01  1.68714478E-01  8.00000000E-01
  1.87311370E+01  2.82539436E+00  6.40121692E-01  1.61277759E-01  1.87311370E+01
  2.82539436E+00  6.40121692E-01  1.61277759E-01
Contraction coefficients                   R   N=          53
  1.83295985E-03  1.40341988E-02  6.90973943E-02  2.37451980E-01  4.83033960E-01
  3.39855972E-01 -2.29739142E-03 -3.07137189E-02 -1.12528069E-01  4.50163278E-02
  5.89353363E-01  4.65206287E-01 -2.51828028E-01  6.15892514E-02  1.06018433E+00
  1.00000000E+00  1.00000000E+00  1.83295985E-03  1.40341988E-02  6.90973943E-02
  2.37451980E-01  4.83033960E-01  3.39855972E-01 -2.29739142E-03 -3.07137189E-02
 -1.12528069E-01  4.50163278E-02  5.89353363E-01  4.65206287E-01 -2.51828028E-01
  6.15892514E-02  1.06018433E+00  1.00000000E+00  1.00000000E+00  1.83473713E-03
  1.40373228E-02  6.88426223E-02  2.32184443E-01  4.67941348E-01  3.62311985E-01
 -1.19332420E-01 -1.60854152E-01  1.14345644E+00  1.00000000E+00  1.00000000E+00
  3.34946043E-02  2.34726953E-01  8.13757326E-01  1.00000000E+00  3.34946043E-02
  2.34726953E-01  8.13757326E-01  1.00000000E+00
P(S=P) Contraction coefficients            R   N=          53
  0.00000000E+00  0.00000000E+00  0.00000000E+00  0.00000000E+00  0.00000000E+00
  0.00000000E+00  3.98940088E-03  3.03177067E-02  1.29880029E-01  3.27951072E-01
  4.53527100E-01  2.52154056E-01 -1.42993147E-02  3.23572333E-01  7.43507765E-01
  1.00000000E+00  0.00000000E+00  0.00000000E+00  0.00000000E+00  0.00000000E+00
  0.00000000E+00  0.00000000E+00  0.00000000E+00  3.98940088E-03  3.03177067E-02
  1.29880029E-01  3.27951072E-01  4.53527100E-01  2.52154056E-01 -1.42993147E-02
  3.23572333E-01  7.43507765E-01  1.00000000E+00  0.00000000E+00  0.00000000E+00
  0.00000000E+00  0.00000000E+00  0.00000000E+00  0.00000000E+00  0.00000000E+00
  6.89990666E-02  3.16423961E-01  7.44308291E-01  1.00000000E+00  0.00000000E+00
  0.00000000E+00  0.00000000E+00  0.00000000E+00  0.00000000E+00  0.00000000E+00
  0.00000000E+00  0.00000000E+00  0.00000000E+00
Coordinates of each shell                  R   N=          54
  2.78752773E+00 -4.06892655E-01 -1.18998175E-06  2.78752773E+00 -4.06892655E-01
 -1.18998175E-06  2.78752773E+00 -4.06892655E-01 -1.18998175E-06  2.78752773E+00
 -4.06892655E-01 -1.18998175E-06  2.78752773E+00 -4.06892655E-01 -1.18998175E-06
 -2.78752863E+00 -4.06892097E-01 -1.25319375E-06 -2.78752863E+00 -4.06892097E-01
 -1.25319375E-06 -2.78752863E+00 -4.06892097E-01 -1.25319375E-06 -2.78752863E+00
 -4.06892097E-01 -1.25319375E-06 -2.78752863E+00 -4.06892097E-01 -1.25319375E-06
  2.77842172E-06  1.43780335E+00 -1.51972019E-06  2.77842172E-06  1.43780335E+00
 -1.51972019E-06  2.77842172E-06  1.43780335E+00 -1.51972019E-06  2.77842172E-06
  1.43780335E+00 -1.51972019E-06  1.68519106E-07  2.60380047E+00 -1.69145220E+00
  1.68519106E-07  2.60380047E+00 -1.69145220E+00 -1.60238593E-06  2.60372025E+00
  1.69150285E+00 -1.60238593E-06  2.60372025E+00  1.69150285E+00
Constraint Structure                       R   N=          15
  2.78752773E+00 -4.06892655E-01 -1.18998175E-06 -2.78752863E+00 -4.06892097E-01
 -1.25319375E-06  2.77842172E-06  1.43780335E+00 -1.51972019E-06  1.68519106E-07
  2.60380047E+00 -1.69145220E+00 -1.60238593E-06  2.60372025E+00  1.69150285E+00
Num ILSW                                   I              100
ILSW                                       I   N=         100
           0           1           0           0           2           0
           0           0           0           0           0          -1
           0           0           0           0           0           0
           0           0           0           0           1           0
           1           0           0           0           0           0
           0           0      100000           0          -1           0
           0           0           0           0           0           0
           0           0           0           1           1           0
           0           0           1           0           0           0
           0           0           4          40           0           0
           0           0           0           0           0           0
           0           0           0           0           0           0
           0           0           0           0           0           0
           0           0           0           0           0           0
           0           0           0           0           0           0
           0           0           0           0           0           0
           0           0           0           0
Num RLSW                                   I               40
RLSW                                       R   N=          40
  1.00000000E+00  1.00000000E+00  1.00000000E+00  1.00000000E+00  1.00000000E+00
  0.00000000E+00  0.00000000E+00  1.00000000E+00  0.00000000E+00  0.00000000E+00
  0.00000000E+00  0.00000000E+00  1.00000000E+00  0.00000000E+00  0.00000000E+00
  0.00000000E+00  0.00000000E+00  1.00000000E+00  0.00000000E+00  0.00000000E+00
  0.00000000E+00  0.00000000E+00  1.00000000E+00  0.00000000E+00  0.00000000E+00
  0.00000000E+00  0.00000000E+00  1.00000000E+00  0.00000000E+00  0.00000000E+00
  0.00000000E+00  0.00000000E+00  0.00000000E+00  0.00000000E+00  0.00000000E+00
  0.00000000E+00  0.00000000E+00  0.00000000E+00  1.00000000E+00  1.00000000E+00
MxBond                                     I                4
NBond                                      I   N=           5
           1           1           4           1           1
IBond                                      I   N=          20
           3           0           0           0           3           0
           0           0           1           2           4           5
           3           0           0           0           3           0
           0           0
RBond                                      R   N=          20
  1.00000000E+00  0.00000000E+00  0.00000000E+00  0.00000000E+00  1.00000000E+00
  0.00000000E+00  0.00000000E+00  0.00000000E+00  1.00000000E+00  1.00000000E+00
  1.00000000E+00  1.00000000E+00  1.00000000E+00  0.00000000E+00  0.00000000E+00
  0.00000000E+00  1.00000000E+00  0.00000000E+00  0.00000000E+00  0.00000000E+00
Virial Ratio                               R      2.000423240529515E+00
SCF Energy                                 R     -9.579849326202889E+02
MP2 Energy                                 R     -9.583759974102279E+02
Total Energy                               R     -9.583759974102279E+02
Post-SCF wavefunction norm                 R      1.510052123225315E+00
RMS Force                                  R      2.989726959361270E-06
RMS Density                                R      5.951234834044419E-10
External E-field                           R   N=          35
  0.00000000E+00  0.00000000E+00  0.00000000E+00  0.00000000E+00  0.00000000E+00
  0.00000000E+00  0.00000000E+00  0.00000000E+00  0.00000000E+00  0.00000000E+00
  0.00000000E+00  0.00000000E+00  0.00000000E+00  0.00000000E+00  0.00000000E+00
  0.00000000E+00  0.00000000E+00  0.00000000E+00  0.00000000E+00  0.00000000E+00
  0.00000000E+00  0.00000000E+00  0.00000000E+00  0.00000000E+00  0.00000000E+00
  0.00000000E+00  0.00000000E+00  0.00000000E+00  0.00000000E+00  0.00000000E+00
  0.00000000E+00  0.00000000E+00  0.00000000E+00  0.00000000E+00  0.00000000E+00
IOpCl                                      I                0
IROHF                                      I                0
Alpha Orbital Energies                     R   N=          57
 -1.04837312E+02 -1.04837311E+02 -1.13670602E+01 -1.05715633E+01 -1.05715498E+01
 -8.04097772E+00 -8.04096709E+00 -8.03739620E+00 -8.03739475E+00 -8.03728846E+00
 -8.03728494E+00 -1.19748241E+00 -1.09936061E+00 -8.98672056E-01 -6.79826407E-01
 -6.19897961E-01 -5.88161989E-01 -4.73982414E-01 -4.71095223E-01 -4.49358426E-01
 -4.46899395E-01  1.52987308E-01  2.10072608E-01  2.38978647E-01  2.59452810E-01
  5.15798899E-01  5.72531463E-01  5.98669002E-01  6.11211672E-01  6.13259971E-01
  6.45322642E-01  6.61045300E-01  7.02336878E-01  7.24155279E-01  7.26799806E-01
  8.55059881E-01  1.05384369E+00  1.06847894E+00  1.08159145E+00  1.13881260E+00
  1.14320738E+00  1.14461885E+00  1.15684513E+00  1.16978241E+00  1.23601822E+00
  1.29490975E+00  1.34311131E+00  1.40375413E+00  1.56408742E+00  1.98627369E+00
  2.02128426E+00  2.44205296E+00  2.45642512E+00  2.51538995E+00  4.43385259E+00
  4.70777642E+00  4.74253795E+00
Alpha MO coefficients                      R   N=        3249
  8.04097673E-01  1.18199405E-02 -3.74754154E-05  2.38846694E-05 -1.66743154E-10
 -1.43413470E-02  3.05192744E-05 -1.02480152E-05  1.34755879E-11  1.29745891E-03
 -1.09146365E-04  3.93996403E-05 -1.16662994E-10  5.07318977E-03  5.05662511E-03
  5.05028272E-03 -6.39227499E-06  9.12524697E-11 -5.11269204E-11 -5.87940349E-01
 -8.64086464E-03 -2.63491998E-05 -1.64797640E-05  1.46630241E-10  1.05010939E-02
  1.83033881E-05  2.20619090E-06 -9.30530748E-11 -1.00230172E-03 -1.12383668E-04
 -3.39155131E-05 -5.27344488E-11 -3.71810516E-03 -3.69593774E-03 -3.68970303E-03
 -6.85881801E-06 -2.83423655E-11 -7.21150413E-12 -1.77268102E-06  7.45497961E-06
  8.23193766E-05 -6.91754536E-06 -1.23667655E-10  3.46980509E-05 -1.33674182E-04
  4.12139291E-06  1.23505742E-09 -7.71614731E-06 -5.04287842E-06 -3.97505794E-06
  2.67301866E-05  6.03013844E-12  7.50744398E-11 -3.65648547E-06 -1.82238144E-05
 -3.65683651E-06 -1.82250247E-05  5.87941582E-01  8.64794180E-03 -3.08706426E-05
  2.07094302E-05 -6.03025492E-11 -1.04367196E-02  3.55444127E-05 -2.49275567E-05
 -2.57708055E-10  7.71841932E-04  2.76237688E-05  1.19659234E-05 -6.29397074E-10
  3.68077084E-03  3.70181873E-03  3.70244875E-03  2.53132864E-06  4.10121111E-10
 -2.04612627E-10  8.04098575E-01  1.18251151E-02  4.07813864E-05  2.69771908E-05
 -1.13500822E-10 -1.42942771E-02 -4.31258101E-05 -2.68615616E-05 -2.54044704E-10
  1.12895039E-03  6.77536120E-06  2.33501763E-05 -6.00606731E-10  5.04589120E-03
  5.06092483E-03  5.05960199E-03 -4.73871784E-07 -4.19637692E-10 -2.07229726E-10
 -1.14164476E-05  4.80039088E-05 -1.27826147E-05 -4.45488839E-05 -8.60102677E-10
  2.23455058E-04  2.07563520E-05  2.65404990E-05  8.48559407E-09 -4.96865272E-05
 -3.24731630E-05 -2.55989257E-05 -4.15013913E-06 -2.00412674E-11  5.63889732E-10
 -2.35470413E-05 -1.17359703E-04 -2.35494857E-05 -1.17368194E-04 -3.31114649E-05
  7.48434143E-05  3.29896150E-05 -1.83507136E-05 -5.72315086E-10  3.27210780E-04
 -3.11859979E-04  1.79478381E-04  2.98600885E-09  2.47942864E-03 -1.32652915E-03
  7.45019014E-04 -2.55810870E-09 -1.62094734E-04 -2.16398232E-04 -1.53762157E-04
  5.24721305E-05 -6.29639956E-10  1.09446061E-10 -3.31111090E-05  7.48420632E-05
 -3.29904397E-05 -1.83512720E-05 -5.90321498E-10  3.27205616E-04  3.11863238E-04
  1.79480579E-04  3.11722487E-09  2.47942147E-03  1.32652768E-03  7.45015439E-04
 -3.16648502E-09 -1.62089485E-04 -2.16395507E-04 -1.53761199E-04 -5.24688344E-05
  5.20987427E-10 -4.58300462E-11  9.95923546E-01  2.75432268E-02  7.31371828E-10
 -9.19574377E-04 -1.55697820E-09 -1.39411952E-02  4.25031314E-09  1.08767956E-03
 -6.24716772E-08 -1.89178492E-03 -1.68860555E-03 -1.37527258E-03 -3.34572691E-09
 -2.09409229E-10 -1.06289378E-08  1.95499148E-04  2.14926318E-03  1.95519558E-04
  2.14931771E-03 -2.05950755E-01  7.40285894E-01 -2.64114351E-03  1.86894557E-03
 -1.08385948E-08  1.89327087E-02 -8.38045552E-04  3.83860102E-04 -9.35051607E-10
 -5.65151302E-03  1.37398288E-03 -5.16113838E-04  1.69926521E-10 -9.96217952E-04
 -1.05903742E-03 -1.11921221E-03 -1.69573395E-04  4.95661956E-10 -2.94706956E-10
  1.99496132E-01 -7.17088285E-01 -2.55738920E-03 -1.81122964E-03  1.10129336E-08
 -1.83474162E-02 -8.17931260E-04 -3.67474880E-04  9.53537109E-10  5.52262590E-03
  1.36589060E-03  5.02430351E-04 -2.68691551E-10  9.64929051E-04  1.02019844E-03
  1.07613074E-03 -1.63187459E-04  4.64790908E-10  2.82685142E-10 -4.67097212E-06
  1.29429311E-05 -2.44792223E-04  1.89898995E-06 -3.19629368E-12 -3.95299812E-06
  1.16084464E-03 -3.60868900E-06  9.10100633E-11 -1.03641056E-05 -4.50802868E-06
  1.01555368E-06  4.43707982E-04 -6.32806286E-10  2.73653442E-11 -1.89127003E-06
  1.20557941E-05 -1.89122474E-06  1.20553881E-05 -1.99503009E-01  7.17002610E-01
 -2.58907116E-03  1.78320654E-03 -1.09384505E-08  1.80863660E-02 -6.18511309E-04
  5.08581863E-04  1.06832876E-09 -3.95908384E-03  2.32329212E-04 -4.21571798E-04
  4.58334142E-09 -9.67163379E-04 -1.20332217E-03 -1.33562338E-03 -1.97872330E-04
 -1.88028120E-09  7.53435129E-10 -2.05957417E-01  7.40202906E-01  2.67182302E-03
  1.84178340E-03 -1.18222330E-08  1.86798351E-02  6.44870849E-04  5.20539823E-04
  1.07014105E-09 -4.13696762E-03 -2.75945807E-04 -4.37786145E-04  4.38593321E-09
 -9.98383869E-04 -1.23642252E-03 -1.37057036E-03  2.03167630E-04  1.84366282E-09
  6.98146370E-10 -2.93292661E-04  8.13078275E-04  3.89457598E-06  1.19220154E-04
  6.10448657E-09 -2.48952933E-04 -1.84792374E-05 -2.26761956E-04 -6.06745539E-08
 -6.50931731E-04 -2.83067439E-04  6.38265073E-05 -7.06213196E-06  3.08225135E-11
 -5.33394061E-09 -1.18811798E-04  7.57417076E-04 -1.18799325E-04  7.57490869E-04
 -1.08117182E-03  4.08181128E-03  6.01040898E-01 -3.89474115E-01  1.15682476E-06
 -1.80661467E-03  1.40192925E-02 -9.04423271E-03  2.62035768E-08 -7.87490944E-04
 -2.63930144E-03  2.02858609E-03 -1.72695425E-08 -8.01315353E-05  5.24938810E-04
  8.02107601E-04  5.29334073E-04  4.10704155E-09 -2.03023265E-09 -1.03765412E-03
  3.92142611E-03 -5.76932956E-01 -3.73803775E-01  1.12841137E-06 -1.72365167E-03
 -1.34602482E-02 -8.68480034E-03  2.55026903E-08 -8.19449539E-04  2.48438261E-03
  1.95003499E-03 -1.68296558E-08 -8.58942091E-05  5.13221765E-04  7.77670510E-04
 -5.08551290E-04 -4.12034798E-09 -2.00274369E-09  8.21149975E-06 -1.81921778E-03
  1.41286068E-05 -3.83708503E-04 -9.47509360E-09  2.91351659E-03  1.01122218E-05
 -7.81914950E-04  1.05774766E-07  1.20769305E-03  4.13364052E-04 -3.08897125E-04
 -2.26723554E-05 -9.25643517E-11  9.57517810E-09 -1.28653481E-04 -1.01939724E-03
 -1.28688521E-04 -1.01951261E-03 -1.04047635E-03  3.83269068E-03  5.76410894E-01
 -3.74675341E-01  1.14125094E-06 -1.98887584E-03  1.33647441E-02 -8.59161782E-03
  2.87895829E-08  7.96748303E-04 -3.72917787E-03  1.87664105E-03 -7.19444667E-09
  1.42395789E-04  2.75402091E-04  5.80262592E-04  4.96568932E-04 -4.37624503E-10
  3.62216204E-10  1.08387466E-03 -3.99661504E-03  6.00540704E-01  3.90309294E-01
 -1.20776277E-06  2.06118621E-03  1.39276343E-02  8.95475282E-03 -3.04271724E-08
 -7.63834059E-04 -3.83413358E-03 -1.95813354E-03  8.56791483E-09 -1.38997728E-04
 -2.96668579E-04 -6.12620851E-04  5.17824526E-04 -9.24502331E-11 -1.83639109E-10
 -1.66431100E-07  3.72685740E-05  6.89531710E-04  7.85728268E-06  3.35439255E-10
 -5.96878674E-05  4.93634677E-04  1.60111212E-05 -3.88376412E-09 -2.47376246E-05
 -8.46521281E-06  6.32779283E-06 -1.10678446E-03  3.73676290E-10 -4.78433675E-10
  2.63516708E-06  2.08844995E-05  2.63667913E-06  2.08889916E-05  3.93128632E-05
 -1.06687178E-04  4.34921827E-01  6.70993882E-01 -2.59078401E-07  1.71674645E-04
  8.93770915E-03  1.36855617E-02 -5.05877870E-09 -6.82140768E-04 -1.59779361E-03
 -3.13168732E-03 -3.28636936E-09 -2.92389902E-04  2.95129816E-04  4.22059008E-05
 -1.02992670E-04  1.09436545E-09 -7.22367311E-10  3.13174067E-05 -5.63398495E-05
 -3.20553186E-01  4.95024102E-01 -7.72879222E-07  2.08624822E-04 -6.56703700E-03
  1.00792426E-02 -1.55913733E-08 -9.07740396E-04  8.95850967E-04 -2.29111580E-03
 -9.74784071E-10 -2.32604369E-04  2.79649463E-04  8.96770277E-05  8.32159471E-05
 -1.28377852E-09 -8.09532951E-10 -2.48358831E-05 -1.15004177E-04 -1.58248856E-05
  4.59823718E-05 -3.27657585E-09  4.78684324E-04 -5.09085924E-06 -5.98339879E-04
  1.80260947E-08 -2.50259604E-04  2.50867899E-04 -1.02576345E-04 -8.86675513E-06
 -9.53516544E-11  1.34152945E-09 -4.74331391E-05  5.62154585E-04 -4.74301611E-05
  5.62109094E-04 -2.11304432E-05  1.54336448E-04 -3.21499400E-01 -4.94396273E-01
  1.49696773E-07  1.51028024E-04 -6.67585312E-03 -1.01420750E-02  3.11779494E-09
 -8.66820676E-04  2.13508589E-03  2.37273217E-03 -1.42839605E-09  1.58234995E-04
 -7.82574443E-06  1.67089889E-04  5.13981411E-05  2.91342621E-10  1.29397566E-10
  3.17991924E-05 -1.78961124E-04 -4.35618437E-01  6.70531652E-01 -9.64768231E-07
 -9.35818944E-05 -9.01793782E-03  1.37319184E-02 -1.96752194E-08  6.26658560E-04
  2.51176512E-03 -3.19188525E-03  3.94076700E-09 -2.37537721E-04  9.46493357E-05
 -1.47167734E-04  7.95262077E-05 -1.94353445E-10 -4.42033031E-10 -3.75132231E-06
 -1.73709722E-05  1.04758432E-04  6.94654180E-06 -3.88176209E-10  7.23035134E-05
  3.37090800E-05 -9.03851028E-05  1.99246895E-09 -3.78015575E-05  3.78944322E-05
 -1.54945684E-05  5.86954135E-05 -1.56989473E-11  1.72646440E-11 -7.16475417E-06
  8.49191495E-05 -7.16395814E-06  8.49127159E-05 -1.57559072E-09  6.01086532E-09
 -9.30801731E-07  8.31397176E-07  7.43945355E-01 -3.12573557E-09 -1.70084530E-08
  1.56570295E-08  1.52131540E-02  2.12483191E-09  2.11874776E-09 -2.52945720E-09
 -3.54209150E-03  2.22571441E-09  1.69272902E-09  6.54919476E-10 -1.01163875E-09
 -1.88653843E-04  1.59623846E-04  1.48362385E-09 -5.66424838E-09 -5.02364604E-07
 -1.27337823E-06 -6.58597241E-01  2.88141716E-09 -7.96297367E-09 -2.44392986E-08
 -1.34800524E-02 -2.97693188E-10  1.42999501E-09  4.62696206E-09  3.17153505E-03
 -1.50088098E-09 -1.81328494E-09 -7.12728389E-10 -9.63555887E-10 -1.59159646E-04
 -1.43431276E-04  1.66725706E-10  8.14144645E-10 -9.53459471E-10 -2.49152986E-10
  4.06151898E-07 -3.86881968E-09 -1.76097518E-09  1.49095994E-09 -2.03750221E-05
  3.27031680E-10  2.39088182E-10  7.73443655E-11  1.23342552E-09 -2.42962289E-04
  7.28793099E-06  2.15550517E-06 -4.97034003E-05 -2.15496477E-06  4.97048854E-05
 -1.36214728E-09  5.51269151E-09 -7.63814426E-07  7.73730024E-07  6.58617408E-01
 -1.97718334E-09 -1.75414303E-08  1.69383891E-08  1.33675814E-02  1.08652078E-08
 -4.13610663E-09 -1.17728497E-09 -2.84052719E-03  4.59084079E-09  2.21162238E-09
  3.92597635E-10 -1.61103272E-09 -2.31761474E-04  1.23824745E-04 -1.64878280E-09
  6.56147696E-09  5.11801026E-07  1.46012662E-06  7.43963208E-01 -2.65198730E-09
  1.19927744E-08  3.07775424E-08  1.51135847E-02  1.19992373E-08  6.20672548E-09
 -4.15536768E-09 -3.24905720E-03  4.78995032E-09  2.64326934E-09  4.28482167E-10
  1.85468387E-09  2.52925367E-04  1.42264890E-04  3.66628354E-09  1.83057351E-08
  1.01485002E-11 -3.08134642E-09  6.68624261E-06 -8.77015954E-08  8.20593246E-10
  1.24183725E-08 -3.34859371E-04  5.63069547E-09  7.24972852E-09 -1.36724053E-10
 -7.80095269E-11  1.47832458E-05  1.19742350E-04  3.54139088E-05 -8.16800966E-04
 -3.53968033E-05  8.16852808E-04  4.46747959E-02 -2.03156869E-01  3.35995669E-02
 -1.97881904E-02 -6.81564712E-08  3.92497337E-01 -7.71665026E-02  4.51689533E-02
  1.58760090E-07  1.35670815E-01  2.67320734E-04  2.23239830E-03  6.60130081E-09
  1.91271304E-02  3.80146326E-03 -6.05087392E-03 -1.76429274E-02  1.10348442E-08
 -4.04636232E-09  4.46742746E-02 -2.03154509E-01 -3.35992868E-02 -1.97879227E-02
 -7.15744311E-08  3.92492672E-01  7.71658604E-02  4.51683367E-02  1.66816975E-07
  1.35669175E-01 -2.67323607E-04  2.23238426E-03  1.33544971E-08  1.91270028E-02
  3.80137733E-03 -6.05080590E-03  1.76427132E-02 -1.00539221E-08 -2.70599681E-09
 -1.22361864E-01  2.28494195E-01  8.41504239E-07 -5.22730952E-02  9.51024866E-07
  2.25036203E-01  9.33672967E-08 -1.91971602E-02  1.02460022E-06  1.46927766E-02
  7.28569757E-03  1.21741071E-03 -1.64389691E-07 -8.87006815E-09 -9.56433435E-08
  6.03233687E-02 -1.83897114E-03  6.03243066E-02 -1.83982584E-03 -5.64899520E-02
  2.57889151E-01 -1.32233673E-02  1.39531313E-02  4.12320707E-08 -5.06160482E-01
  3.04005411E-02 -3.27180066E-02 -1.13711814E-07 -2.22831025E-01  8.10581849E-03
 -4.51487513E-03 -5.13246714E-08 -9.42030028E-03 -4.36943826E-03  3.16647181E-03
  1.18685120E-02 -6.11121178E-09  1.80535361E-09  5.64903873E-02 -2.57891150E-01
 -1.32236184E-02 -1.39532293E-02 -4.57794783E-08  5.06164291E-01  3.04011216E-02
  3.27182310E-02  1.25363306E-07  2.22832587E-01  8.10584358E-03  4.51490552E-03
  5.20933617E-08  9.42046356E-03  4.36943544E-03 -3.16650398E-03  1.18686095E-02
 -5.67343579E-09 -7.82253596E-10 -4.67403931E-07  7.72951371E-07 -1.39873417E-01
  1.20323264E-07  1.57236000E-08  1.22665096E-06 -3.74159616E-02 -5.86195962E-08
  1.47956727E-08  5.51352879E-08  1.97935119E-08  3.65024026E-08  2.05566571E-02
  1.40425273E-08  5.07896111E-09  3.61940563E-07 -1.21500471E-09  4.06461587E-07
 -8.54981706E-09 -3.44122088E-02  1.58063333E-01  3.77064363E-02 -3.56380137E-02
 -2.07215999E-07 -3.22183932E-01 -9.11598056E-02  8.64477587E-02  4.86853249E-07
 -2.02123785E-01 -7.10812084E-03  8.91032982E-03  1.10253266E-07  8.87927939E-03
  4.81143589E-03 -6.35614434E-03 -1.63909631E-02 -8.32170026E-08  5.96133866E-08
 -3.44122048E-02  1.58063316E-01 -3.77063428E-02 -3.56378584E-02 -2.11926445E-07
 -3.22183858E-01  9.11595697E-02  8.64473741E-02  4.97229059E-07 -2.02123571E-01
  7.10813306E-03  8.91032074E-03  1.16777096E-07  8.87927895E-03  4.81138925E-03
 -6.35611890E-03  1.63909003E-02  8.51580731E-08  6.18796382E-08 -1.48343252E-01
  2.90485350E-01 -2.56297688E-07  1.43060594E-01  2.63736917E-06  3.59670314E-01
 -8.14063649E-08  4.32601753E-02  1.06618035E-06 -7.85429764E-03  2.78121806E-03
  2.23228445E-02 -6.01255098E-08 -2.16395503E-08 -5.66344383E-07  1.51389868E-01
  4.87731802E-02  1.51389170E-01  4.87728484E-02 -3.30973703E-07  1.54460120E-06
  2.57788890E-06  2.60894401E-07 -7.14595263E-02 -3.18500704E-06 -6.34010508E-06
 -7.66671746E-07  1.80547677E-01 -4.07845641E-06 -1.22923252E-06 -6.56241712E-07
  5.70685584E-02  6.30567114E-07 -3.59507371E-07 -1.60992948E-07 -2.65507895E-07
 -1.69627173E-02  1.21600602E-02 -3.60483870E-07  1.68093109E-06 -2.69028557E-06
  1.18382751E-07 -7.14590781E-02 -3.47446025E-06  6.61442738E-06 -4.13124951E-07
  1.80546528E-01 -4.37506750E-06  1.27872277E-06 -5.71421151E-07  5.70682173E-02
  6.47490304E-07 -3.44203777E-07 -1.79467941E-07  3.10010736E-07  1.69626317E-02
  1.21599764E-02  4.92534934E-07 -1.75928718E-06 -2.84826077E-07 -1.23345964E-05
  4.37386209E-01  9.04939872E-07 -1.79346212E-07 -7.86373104E-06  2.41570577E-01
  8.96289261E-08 -1.15337304E-06  1.08933882E-06 -3.45500745E-09 -2.85469363E-08
  2.69590437E-02 -2.03805125E-01 -1.08032672E-01  2.03802165E-01  1.08031438E-01
  1.19762440E-02 -5.72002487E-02 -1.42490038E-01 -2.65873635E-03 -3.00508461E-06
  1.16546045E-01  3.60037835E-01  8.41636932E-03  7.64653390E-06  1.49503783E-01
  1.08248460E-01  2.75626586E-02  3.14064829E-06 -3.72719962E-02  1.05441441E-02
  1.19225797E-02  1.85221020E-02 -6.73705018E-07  4.72279421E-07  1.19759051E-02
 -5.71986214E-02  1.42487158E-01 -2.66121651E-03 -3.01396946E-06  1.16542749E-01
 -3.60030554E-01  8.42263361E-03  7.66799057E-06  1.49499294E-01 -1.08246638E-01
  2.75642607E-02  3.15347454E-06 -3.72714028E-02  1.05443513E-02  1.19222008E-02
 -1.85211838E-02  6.76887950E-07  4.78385382E-07  1.59592194E-02 -1.54262935E-02
 -3.85095844E-06  3.54658768E-01  1.14854011E-05 -1.19912532E-01 -2.27470924E-06
  2.24512212E-01  5.53884401E-06 -1.81826205E-02 -1.37231085E-02  2.44067501E-02
  3.34813193E-07 -1.46742558E-08 -2.41237472E-07  1.10667651E-01  7.35579534E-02
  1.10671912E-01  7.35627555E-02 -1.32240912E-02  6.31128619E-02  1.05057042E-01
 -1.29419166E-01 -3.55145917E-07 -1.31495500E-01 -2.65287937E-01  3.29579480E-01
  9.28495689E-07 -1.68440563E-01 -7.17345310E-02  1.05880474E-01  4.95904024E-07
  2.21632750E-02  1.25454989E-02 -1.48202006E-02 -3.71762891E-02  4.96016732E-08
 -2.49502228E-08  1.32243229E-02 -6.31139497E-02  1.05060514E-01  1.29417767E-01
  1.81047588E-07  1.31497809E-01 -2.65296726E-01 -3.29575832E-01 -4.83922778E-07
  1.68443157E-01 -7.17377164E-02 -1.05878549E-01 -3.05550187E-07 -2.21641646E-02
 -1.25450769E-02  1.48203713E-02 -3.71764698E-02  8.20695214E-08  4.71585791E-08
  1.42172563E-07  1.35245111E-07  3.36625012E-01  3.15762405E-06  2.85710776E-07
 -1.53884016E-06  2.24980759E-01  2.34007291E-06  1.73716773E-07 -6.35536401E-08
 -2.04387647E-07  1.91162318E-07 -2.91464980E-02  1.68696702E-08  2.97431750E-09
  6.84728797E-07  5.54474848E-07  8.38882741E-07  6.84357439E-07  1.36655194E-08
 -7.78875301E-08  1.88233836E-07  2.94904959E-07 -2.00504316E-01  1.35280996E-07
 -5.22174384E-07 -7.45620877E-07  5.20879156E-01  5.10020876E-07 -5.31241882E-07
 -2.01537569E-07  2.94405007E-01 -7.01787560E-08 -6.16037483E-08  5.70981614E-08
  1.03371774E-07 -7.44566701E-03  7.03205517E-03 -1.41692802E-08  8.17922514E-08
  2.31903346E-07 -4.69887977E-07  2.00502562E-01 -1.41293865E-07 -6.36731976E-07
  1.19846636E-06 -5.20874526E-01 -5.40434443E-07 -6.19888238E-07  4.40357937E-07
 -2.94402386E-01  7.83498671E-08  7.29401390E-08 -6.61011019E-08  1.23157532E-07
 -7.44566785E-03 -7.03207270E-03 -7.16624678E-09  3.47918184E-09 -6.72330676E-07
 -6.01963680E-08 -1.31264959E-06  8.75903461E-08 -7.31480731E-07 -2.34809076E-09