6946347                                                                 
Freq      RMP2-FC                                                     6-31G(d)            
Number of atoms                            I               20
Info1-9                                    I   N=           9
          32          30        1002           0           0         100
           6           2           1
Charge                                     I               -1
Multiplicity                               I                1
Number of electrons                        I               80
Number of alpha electrons                  I               40
Number of beta electrons                   I               40
Number of basis functions                  I              183
Number of independent functions            I              183
Number of point charges in /Mol/           I                0
Number of translation vectors              I                0
Atomic numbers                             I   N=          20
           8           8           6           6           6           6
           6           6           6           6           6           1
           1           1           1           1           1           1
           1           1
Nuclear charges                            R   N=          20
  8.00000000E+00  8.00000000E+00  6.00000000E+00  6.00000000E+00  6.00000000E+00
  6.00000000E+00  6.00000000E+00  6.00000000E+00  6.00000000E+00  6.00000000E+00
  6.00000000E+00  1.00000000E+00  1.00000000E+00  1.00000000E+00  1.00000000E+00
  1.00000000E+00  1.00000000E+00  1.00000000E+00  1.00000000E+00  1.00000000E+00
Current cartesian coordinates              R   N=          60
 -4.68198348E+00 -2.78402130E+00 -1.01246166E+00 -4.88235675E+00  1.53139721E+00
 -1.33908340E+00  3.34451423E-01 -3.77373085E-01  1.01304057E+00  1.61168536E+00
  1.83598654E+00  2.39784222E-01 -2.33926405E+00 -3.05753672E-01  1.94963754E+00
  1.56032187E+00 -2.71251795E+00  7.40538437E-01  4.09206850E+00  1.64614434E+00
 -6.61504579E-01  3.04820427E-01  4.36357538E+00  3.81114455E-01  4.02484316E+00
 -2.87951605E+00 -1.81067349E-01  5.31086104E+00 -6.85086977E-01 -8.80383237E-01
 -4.19229324E+00 -5.46433999E-01 -3.79689232E-01 -2.66952519E+00 -1.90692351E+00
  3.21917075E+00 -2.72374396E+00  1.45129960E+00  2.97164995E+00  5.20954601E-01
 -4.41517140E+00  1.24116766E+00  5.07175694E+00  3.36269658E+00 -1.24642502E+00
 -1.60461147E+00  4.18691001E+00 -3.96789158E-01  1.38894925E-01  5.02041230E+00
  2.34220302E+00  1.36919954E+00  5.79018550E+00 -6.76786764E-01  4.92873511E+00
 -4.71877869E+00 -3.74671202E-01  7.23809441E+00 -7.83784932E-01 -1.59598362E+00
Force Field                                I                0
Int Atom Types                             I   N=          20
           0           0           0           0           0           0
           0           0           0           0           0           0
           0           0           0           0           0           0
           0           0
MM charges                                 R   N=          20
  0.00000000E+00  0.00000000E+00  0.00000000E+00  0.00000000E+00  0.00000000E+00
  0.00000000E+00  0.00000000E+00  0.00000000E+00  0.00000000E+00  0.00000000E+00
  0.00000000E+00  0.00000000E+00  0.00000000E+00  0.00000000E+00  0.00000000E+00
  0.00000000E+00  0.00000000E+00  0.00000000E+00  0.00000000E+00  0.00000000E+00
Integer atomic weights                     I   N=          20
          16          16          12          12          12          12
          12          12          12          12          12           1
           1           1           1           1           1           1
           1           1
Real atomic weights                        R   N=          20
  1.59949146E+01  1.59949146E+01  1.20000000E+01  1.20000000E+01  1.20000000E+01
  1.20000000E+01  1.20000000E+01  1.20000000E+01  1.20000000E+01  1.20000000E+01
  1.20000000E+01  1.00782504E+00  1.00782504E+00  1.00782504E+00  1.00782504E+00
  1.00782504E+00  1.00782504E+00  1.00782504E+00  1.00782504E+00  1.00782504E+00
Atom fragment info                         I   N=          20
           0           0           0           0           0           0
           0           0           0           0           0           0
           0           0           0           0           0           0
           0           0
Atom residue num                           I   N=          20
           0           0           0           0           0           0
           0           0           0           0           0           0
           0           0           0           0           0           0
           0           0
Nuclear spins                              I   N=          20
           0           0           0           0           0           0
           0           0           0           0           0           1
           1           1           1           1           1           1
           1           1
Nuclear ZEff                               R   N=          20
 -5.60000000E+00 -5.60000000E+00 -3.60000000E+00 -3.60000000E+00 -3.60000000E+00
 -3.60000000E+00 -3.60000000E+00 -3.60000000E+00 -3.60000000E+00 -3.60000000E+00
 -3.60000000E+00 -1.00000000E+00 -1.00000000E+00 -1.00000000E+00 -1.00000000E+00
 -1.00000000E+00 -1.00000000E+00 -1.00000000E+00 -1.00000000E+00 -1.00000000E+00
Nuclear QMom                               R   N=          20
  0.00000000E+00  0.00000000E+00  0.00000000E+00  0.00000000E+00  0.00000000E+00
  0.00000000E+00  0.00000000E+00  0.00000000E+00  0.00000000E+00  0.00000000E+00
  0.00000000E+00  0.00000000E+00  0.00000000E+00  0.00000000E+00  0.00000000E+00
  0.00000000E+00  0.00000000E+00  0.00000000E+00  0.00000000E+00  0.00000000E+00
Nuclear GFac                               R   N=          20
  0.00000000E+00  0.00000000E+00  0.00000000E+00  0.00000000E+00  0.00000000E+00
  0.00000000E+00  0.00000000E+00  0.00000000E+00  0.00000000E+00  0.00000000E+00
  0.00000000E+00  2.79284600E+00  2.79284600E+00  2.79284600E+00  2.79284600E+00
  2.79284600E+00  2.79284600E+00  2.79284600E+00  2.79284600E+00  2.79284600E+00
MicOpt                                     I   N=          20
          -1          -1          -1          -1          -1          -1
          -1          -1          -1          -1          -1          -1
          -1          -1          -1          -1          -1          -1
          -1          -1
Number of contracted shells                I               62
Number of primitive shells                 I              157
Pure/Cartesian d shells                    I                1
Pure/Cartesian f shells                    I                0
Highest angular momentum                   I                2
Largest degree of contraction              I                6
Shell types                                I   N=          62
           0          -1          -1           2           0          -1
          -1           2           0          -1          -1           2
           0          -1          -1           2           0          -1
          -1           2           0          -1          -1           2
           0          -1          -1           2           0          -1
          -1           2           0          -1          -1           2
           0          -1          -1           2           0          -1
          -1           2           0           0           0           0
           0           0           0           0           0           0
           0           0           0           0           0           0
           0           0
Number of primitives per shell             I   N=          62
           6           3           1           1           6           3
           1           1           6           3           1           1
           6           3           1           1           6           3
           1           1           6           3           1           1
           6           3           1           1           6           3
           1           1           6           3           1           1
           6           3           1           1           6           3
           1           1           3           1           3           1
           3           1           3           1           3           1
           3           1           3           1           3           1
           3           1
Shell to atom map                          I   N=          62
           1           1           1           1           2           2
           2           2           3           3           3           3
           4           4           4           4           5           5
           5           5           6           6           6           6
           7           7           7           7           8           8
           8           8           9           9           9           9
          10          10          10          10          11          11
          11          11          12          12          13          13
          14          14          15          15          16          16
          17          17          18          18          19          19
          20          20
Primitive exponents                        R   N=         157
  5.48467166E+03  8.25234946E+02  1.88046958E+02  5.29645000E+01  1.68975704E+01
  5.79963534E+00  1.55396162E+01  3.59993359E+00  1.01376175E+00  2.70005823E-01
  8.00000000E-01  5.48467166E+03  8.25234946E+02  1.88046958E+02  5.29645000E+01
  1.68975704E+01  5.79963534E+00  1.55396162E+01  3.59993359E+00  1.01376175E+00
  2.70005823E-01  8.00000000E-01  3.04752488E+03  4.57369518E+02  1.03948685E+02
  2.92101553E+01  9.28666296E+00  3.16392696E+00  7.86827235E+00  1.88128854E+00
  5.44249258E-01  1.68714478E-01  8.00000000E-01  3.04752488E+03  4.57369518E+02
  1.03948685E+02  2.92101553E+01  9.28666296E+00  3.16392696E+00  7.86827235E+00
  1.88128854E+00  5.44249258E-01  1.68714478E-01  8.00000000E-01  3.04752488E+03
  4.57369518E+02  1.03948685E+02  2.92101553E+01  9.28666296E+00  3.16392696E+00
  7.86827235E+00  1.88128854E+00  5.44249258E-01  1.68714478E-01  8.00000000E-01
  3.04752488E+03  4.57369518E+02  1.03948685E+02  2.92101553E+01  9.28666296E+00
  3.16392696E+00  7.86827235E+00  1.88128854E+00  5.44249258E-01  1.68714478E-01
  8.00000000E-01  3.04752488E+03  4.57369518E+02  1.03948685E+02  2.92101553E+01
  9.28666296E+00  3.16392696E+00  7.86827235E+00  1.88128854E+00  5.44249258E-01
  1.68714478E-01  8.00000000E-01  3.04752488E+03  4.57369518E+02  1.03948685E+02
  2.92101553E+01  9.28666296E+00  3.16392696E+00  7.86827235E+00  1.88128854E+00
  5.44249258E-01  1.68714478E-01  8.00000000E-01  3.04752488E+03  4.57369518E+02
  1.03948685E+02  2.92101553E+01  9.28666296E+00  3.16392696E+00  7.86827235E+00
  1.88128854E+00  5.44249258E-01  1.68714478E-01  8.00000000E-01  3.04752488E+03
  4.57369518E+02  1.03948685E+02  2.92101553E+01  9.28666296E+00  3.16392696E+00
  7.86827235E+00  1.88128854E+00  5.44249258E-01  1.68714478E-01  8.00000000E-01
  3.04752488E+03  4.57369518E+02  1.03948685E+02  2.92101553E+01  9.28666296E+00
  3.16392696E+00  7.86827235E+00  1.88128854E+00  5.44249258E-01  1.68714478E-01
  8.00000000E-01  1.87311370E+01  2.82539436E+00  6.40121692E-01  1.61277759E-01
  1.87311370E+01  2.82539436E+00  6.40121692E-01  1.61277759E-01  1.87311370E+01
  2.82539436E+00  6.40121692E-01  1.61277759E-01  1.87311370E+01  2.82539436E+00
  6.40121692E-01  1.61277759E-01  1.87311370E+01  2.82539436E+00  6.40121692E-01
  1.61277759E-01  1.87311370E+01  2.82539436E+00  6.40121692E-01  1.61277759E-01
  1.87311370E+01  2.82539436E+00  6.40121692E-01  1.61277759E-01  1.87311370E+01
  2.82539436E+00  6.40121692E-01  1.61277759E-01  1.87311370E+01  2.82539436E+00
  6.40121692E-01  1.61277759E-01
Contraction coefficients                   R   N=         157
  1.83107443E-03  1.39501722E-02  6.84450781E-02  2.32714336E-01  4.70192898E-01
  3.58520853E-01 -1.10777550E-01 -1.48026263E-01  1.13076702E+00  1.00000000E+00
  1.00000000E+00  1.83107443E-03  1.39501722E-02  6.84450781E-02  2.32714336E-01
  4.70192898E-01  3.58520853E-01 -1.10777550E-01 -1.48026263E-01  1.13076702E+00
  1.00000000E+00  1.00000000E+00  1.83473713E-03  1.40373228E-02  6.88426223E-02
  2.32184443E-01  4.67941348E-01  3.62311985E-01 -1.19332420E-01 -1.60854152E-01
  1.14345644E+00  1.00000000E+00  1.00000000E+00  1.83473713E-03  1.40373228E-02
  6.88426223E-02  2.32184443E-01  4.67941348E-01  3.62311985E-01 -1.19332420E-01
 -1.60854152E-01  1.14345644E+00  1.00000000E+00  1.00000000E+00  1.83473713E-03
  1.40373228E-02  6.88426223E-02  2.32184443E-01  4.67941348E-01  3.62311985E-01
 -1.19332420E-01 -1.60854152E-01  1.14345644E+00  1.00000000E+00  1.00000000E+00
  1.83473713E-03  1.40373228E-02  6.88426223E-02  2.32184443E-01  4.67941348E-01
  3.62311985E-01 -1.19332420E-01 -1.60854152E-01  1.14345644E+00  1.00000000E+00
  1.00000000E+00  1.83473713E-03  1.40373228E-02  6.88426223E-02  2.32184443E-01
  4.67941348E-01  3.62311985E-01 -1.19332420E-01 -1.60854152E-01  1.14345644E+00
  1.00000000E+00  1.00000000E+00  1.83473713E-03  1.40373228E-02  6.88426223E-02
  2.32184443E-01  4.67941348E-01  3.62311985E-01 -1.19332420E-01 -1.60854152E-01
  1.14345644E+00  1.00000000E+00  1.00000000E+00  1.83473713E-03  1.40373228E-02
  6.88426223E-02  2.32184443E-01  4.67941348E-01  3.62311985E-01 -1.19332420E-01
 -1.60854152E-01  1.14345644E+00  1.00000000E+00  1.00000000E+00  1.83473713E-03
  1.40373228E-02  6.88426223E-02  2.32184443E-01  4.67941348E-01  3.62311985E-01
 -1.19332420E-01 -1.60854152E-01  1.14345644E+00  1.00000000E+00  1.00000000E+00
  1.83473713E-03  1.40373228E-02  6.88426223E-02  2.32184443E-01  4.67941348E-01
  3.62311985E-01 -1.19332420E-01 -1.60854152E-01  1.14345644E+00  1.00000000E+00
  1.00000000E+00  3.34946043E-02  2.34726953E-01  8.13757326E-01  1.00000000E+00
  3.34946043E-02  2.34726953E-01  8.13757326E-01  1.00000000E+00  3.34946043E-02
  2.34726953E-01  8.13757326E-01  1.00000000E+00  3.34946043E-02  2.34726953E-01
  8.13757326E-01  1.00000000E+00  3.34946043E-02  2.34726953E-01  8.13757326E-01
  1.00000000E+00  3.34946043E-02  2.34726953E-01  8.13757326E-01  1.00000000E+00
  3.34946043E-02  2.34726953E-01  8.13757326E-01  1.00000000E+00  3.34946043E-02
  2.34726953E-01  8.13757326E-01  1.00000000E+00  3.34946043E-02  2.34726953E-01
  8.13757326E-01  1.00000000E+00
P(S=P) Contraction coefficients            R   N=         157
  0.00000000E+00  0.00000000E+00  0.00000000E+00  0.00000000E+00  0.00000000E+00
  0.00000000E+00  7.08742682E-02  3.39752839E-01  7.27158577E-01  1.00000000E+00
  0.00000000E+00  0.00000000E+00  0.00000000E+00  0.00000000E+00  0.00000000E+00
  0.00000000E+00  0.00000000E+00  7.08742682E-02  3.39752839E-01  7.27158577E-01
  1.00000000E+00  0.00000000E+00  0.00000000E+00  0.00000000E+00  0.00000000E+00
  0.00000000E+00  0.00000000E+00  0.00000000E+00  6.89990666E-02  3.16423961E-01
  7.44308291E-01  1.00000000E+00  0.00000000E+00  0.00000000E+00  0.00000000E+00
  0.00000000E+00  0.00000000E+00  0.00000000E+00  0.00000000E+00  6.89990666E-02
  3.16423961E-01  7.44308291E-01  1.00000000E+00  0.00000000E+00  0.00000000E+00
  0.00000000E+00  0.00000000E+00  0.00000000E+00  0.00000000E+00  0.00000000E+00
  6.89990666E-02  3.16423961E-01  7.44308291E-01  1.00000000E+00  0.00000000E+00
  0.00000000E+00  0.00000000E+00  0.00000000E+00  0.00000000E+00  0.00000000E+00
  0.00000000E+00  6.89990666E-02  3.16423961E-01  7.44308291E-01  1.00000000E+00
  0.00000000E+00  0.00000000E+00  0.00000000E+00  0.00000000E+00  0.00000000E+00
  0.00000000E+00  0.00000000E+00  6.89990666E-02  3.16423961E-01  7.44308291E-01
  1.00000000E+00  0.00000000E+00  0.00000000E+00  0.00000000E+00  0.00000000E+00
  0.00000000E+00  0.00000000E+00  0.00000000E+00  6.89990666E-02  3.16423961E-01
  7.44308291E-01  1.00000000E+00  0.00000000E+00  0.00000000E+00  0.00000000E+00
  0.00000000E+00  0.00000000E+00  0.00000000E+00  0.00000000E+00  6.89990666E-02
  3.16423961E-01  7.44308291E-01  1.00000000E+00  0.00000000E+00  0.00000000E+00
  0.00000000E+00  0.00000000E+00  0.00000000E+00  0.00000000E+00  0.00000000E+00
  6.89990666E-02  3.16423961E-01  7.44308291E-01  1.00000000E+00  0.00000000E+00
  0.00000000E+00  0.00000000E+00  0.00000000E+00  0.00000000E+00  0.00000000E+00
  0.00000000E+00  6.89990666E-02  3.16423961E-01  7.44308291E-01  1.00000000E+00
  0.00000000E+00  0.00000000E+00  0.00000000E+00  0.00000000E+00  0.00000000E+00
  0.00000000E+00  0.00000000E+00  0.00000000E+00  0.00000000E+00  0.00000000E+00
  0.00000000E+00  0.00000000E+00  0.00000000E+00  0.00000000E+00  0.00000000E+00
  0.00000000E+00  0.00000000E+00  0.00000000E+00  0.00000000E+00  0.00000000E+00
  0.00000000E+00  0.00000000E+00  0.00000000E+00  0.00000000E+00  0.00000000E+00
  0.00000000E+00  0.00000000E+00  0.00000000E+00  0.00000000E+00  0.00000000E+00
  0.00000000E+00  0.00000000E+00  0.00000000E+00  0.00000000E+00  0.00000000E+00
  0.00000000E+00  0.00000000E+00
Coordinates of each shell                  R   N=         186
 -4.68198348E+00 -2.78402130E+00 -1.01246166E+00 -4.68198348E+00 -2.78402130E+00
 -1.01246166E+00 -4.68198348E+00 -2.78402130E+00 -1.01246166E+00 -4.68198348E+00
 -2.78402130E+00 -1.01246166E+00 -4.88235675E+00  1.53139721E+00 -1.33908340E+00
 -4.88235675E+00  1.53139721E+00 -1.33908340E+00 -4.88235675E+00  1.53139721E+00
 -1.33908340E+00 -4.88235675E+00  1.53139721E+00 -1.33908340E+00  3.34451423E-01
 -3.77373085E-01  1.01304057E+00  3.34451423E-01 -3.77373085E-01  1.01304057E+00
  3.34451423E-01 -3.77373085E-01  1.01304057E+00  3.34451423E-01 -3.77373085E-01
  1.01304057E+00  1.61168536E+00  1.83598654E+00  2.39784222E-01  1.61168536E+00
  1.83598654E+00  2.39784222E-01  1.61168536E+00  1.83598654E+00  2.39784222E-01
  1.61168536E+00  1.83598654E+00  2.39784222E-01 -2.33926405E+00 -3.05753672E-01
  1.94963754E+00 -2.33926405E+00 -3.05753672E-01  1.94963754E+00 -2.33926405E+00
 -3.05753672E-01  1.94963754E+00 -2.33926405E+00 -3.05753672E-01  1.94963754E+00
  1.56032187E+00 -2.71251795E+00  7.40538437E-01  1.56032187E+00 -2.71251795E+00
  7.40538437E-01  1.56032187E+00 -2.71251795E+00  7.40538437E-01  1.56032187E+00
 -2.71251795E+00  7.40538437E-01  4.09206850E+00  1.64614434E+00 -6.61504579E-01
  4.09206850E+00  1.64614434E+00 -6.61504579E-01  4.09206850E+00  1.64614434E+00
 -6.61504579E-01  4.09206850E+00  1.64614434E+00 -6.61504579E-01  3.04820427E-01
  4.36357538E+00  3.81114455E-01  3.04820427E-01  4.36357538E+00  3.81114455E-01
  3.04820427E-01  4.36357538E+00  3.81114455E-01  3.04820427E-01  4.36357538E+00
  3.81114455E-01  4.02484316E+00 -2.87951605E+00 -1.81067349E-01  4.02484316E+00
 -2.87951605E+00 -1.81067349E-01  4.02484316E+00 -2.87951605E+00 -1.81067349E-01
  4.02484316E+00 -2.87951605E+00 -1.81067349E-01  5.31086104E+00 -6.85086977E-01
 -8.80383237E-01  5.31086104E+00 -6.85086977E-01 -8.80383237E-01  5.31086104E+00
 -6.85086977E-01 -8.80383237E-01  5.31086104E+00 -6.85086977E-01 -8.80383237E-01
 -4.19229324E+00 -5.46433999E-01 -3.79689232E-01 -4.19229324E+00 -5.46433999E-01
 -3.79689232E-01 -4.19229324E+00 -5.46433999E-01 -3.79689232E-01 -4.19229324E+00
 -5.46433999E-01 -3.79689232E-01 -2.66952519E+00 -1.90692351E+00  3.21917075E+00
 -2.66952519E+00 -1.90692351E+00  3.21917075E+00 -2.72374396E+00  1.45129960E+00
  2.97164995E+00 -2.72374396E+00  1.45129960E+00  2.97164995E+00  5.20954601E-01
 -4.41517140E+00  1.24116766E+00  5.20954601E-01 -4.41517140E+00  1.24116766E+00
  5.07175694E+00  3.36269658E+00 -1.24642502E+00  5.07175694E+00  3.36269658E+00
 -1.24642502E+00 -1.60461147E+00  4.18691001E+00 -3.96789158E-01 -1.60461147E+00
  4.18691001E+00 -3.96789158E-01  1.38894925E-01  5.02041230E+00  2.34220302E+00
  1.38894925E-01  5.02041230E+00  2.34220302E+00  1.36919954E+00  5.79018550E+00
 -6.76786764E-01  1.36919954E+00  5.79018550E+00 -6.76786764E-01  4.92873511E+00
 -4.71877869E+00 -3.74671202E-01  4.92873511E+00 -4.71877869E+00 -3.74671202E-01
  7.23809441E+00 -7.83784932E-01 -1.59598362E+00  7.23809441E+00 -7.83784932E-01
 -1.59598362E+00
Constraint Structure                       R   N=          60
 -4.68198348E+00 -2.78402130E+00 -1.01246166E+00 -4.88235675E+00  1.53139721E+00
 -1.33908340E+00  3.34451423E-01 -3.77373085E-01  1.01304057E+00  1.61168536E+00
  1.83598654E+00  2.39784222E-01 -2.33926405E+00 -3.05753672E-01  1.94963754E+00
  1.56032187E+00 -2.71251795E+00  7.40538437E-01  4.09206850E+00  1.64614434E+00
 -6.61504579E-01  3.04820427E-01  4.36357538E+00  3.81114455E-01  4.02484316E+00
 -2.87951605E+00 -1.81067349E-01  5.31086104E+00 -6.85086977E-01 -8.80383237E-01
 -4.19229324E+00 -5.46433999E-01 -3.79689232E-01 -2.66952519E+00 -1.90692351E+00
  3.21917075E+00 -2.72374396E+00  1.45129960E+00  2.97164995E+00  5.20954601E-01
 -4.41517140E+00  1.24116766E+00  5.07175694E+00  3.36269658E+00 -1.24642502E+00
 -1.60461147E+00  4.18691001E+00 -3.96789158E-01  1.38894925E-01  5.02041230E+00
  2.34220302E+00  1.36919954E+00  5.79018550E+00 -6.76786764E-01  4.92873511E+00
 -4.71877869E+00 -3.74671202E-01  7.23809441E+00 -7.83784932E-01 -1.59598362E+00
Num ILSW                                   I              100
ILSW                                       I   N=         100
           0           1           0           0           2           0
           0           0           0           0           0          -1
           0           0           0           0           0           0
           0           0           0           0           1           0
           1           0           0           0           0           0
           0           0      100000           0          -1           0
           0           0           0           0           0           0
           0           0           0           1           1           0
           0           0           1           0           0           0
           0           0           4          40           0           0
           0           0           0           0           0           0
           0           0           0           0           0           0
           0           0           0           0           0           0
           0           0           0           0           0           0
           0           0           0           0           0           0
           0           0           0           0           0           0
           0           0           0           0
Num RLSW                                   I               40
RLSW                                       R   N=          40
  1.00000000E+00  1.00000000E+00  1.00000000E+00  1.00000000E+00  1.00000000E+00
  0.00000000E+00  0.00000000E+00  1.00000000E+00  0.00000000E+00  0.00000000E+00
  0.00000000E+00  0.00000000E+00  1.00000000E+00  0.00000000E+00  0.00000000E+00
  0.00000000E+00  0.00000000E+00  1.00000000E+00  0.00000000E+00  0.00000000E+00
  0.00000000E+00  0.00000000E+00  1.00000000E+00  0.00000000E+00  0.00000000E+00
  0.00000000E+00  0.00000000E+00  1.00000000E+00  0.00000000E+00  0.00000000E+00
  0.00000000E+00  0.00000000E+00  0.00000000E+00  0.00000000E+00  0.00000000E+00
  0.00000000E+00  0.00000000E+00  0.00000000E+00  1.00000000E+00  1.00000000E+00
MxBond                                     I                4
NBond                                      I   N=          20
           1           1           3           3           4           3
           3           4           3           3           3           1
           1           1           1           1           1           1
           1           1
IBond                                      I   N=          80
          11           0           0           0          11           0
           0           0           4           5           6           0
           3           7           8           0           3          11
          12          13           3           9          14           0
           4          10          15           0           4          16
          17          18           6          10          19           0
           7           9          20           0           1           2
           5           0           5           0           0           0
           5           0           0           0           6           0
           0           0           7           0           0           0
           8           0           0           0           8           0
           0           0           8           0           0           0
           9           0           0           0          10           0
           0           0
RBond                                      R   N=          80
  2.00000000E+00  0.00000000E+00  0.00000000E+00  0.00000000E+00  2.00000000E+00
  0.00000000E+00  0.00000000E+00  0.00000000E+00  1.50000000E+00  1.00000000E+00
  1.50000000E+00  0.00000000E+00  1.50000000E+00  1.50000000E+00  1.00000000E+00
  0.00000000E+00  1.00000000E+00  1.00000000E+00  1.00000000E+00  1.00000000E+00
  1.50000000E+00  1.50000000E+00  1.00000000E+00  0.00000000E+00  1.50000000E+00
  1.50000000E+00  1.00000000E+00  0.00000000E+00  1.00000000E+00  1.00000000E+00
  1.00000000E+00  1.00000000E+00  1.50000000E+00  1.50000000E+00  1.00000000E+00
  0.00000000E+00  1.50000000E+00  1.50000000E+00  1.00000000E+00  0.00000000E+00
  2.00000000E+00  2.00000000E+00  1.00000000E+00  0.00000000E+00  1.00000000E+00
  0.00000000E+00  0.00000000E+00  0.00000000E+00  1.00000000E+00  0.00000000E+00
  0.00000000E+00  0.00000000E+00  1.00000000E+00  0.00000000E+00  0.00000000E+00
  0.00000000E+00  1.00000000E+00  0.00000000E+00  0.00000000E+00  0.00000000E+00
  1.00000000E+00  0.00000000E+00  0.00000000E+00  0.00000000E+00  1.00000000E+00
  0.00000000E+00  0.00000000E+00  0.00000000E+00  1.00000000E+00  0.00000000E+00
  0.00000000E+00  0.00000000E+00  1.00000000E+00  0.00000000E+00  0.00000000E+00
  0.00000000E+00  1.00000000E+00  0.00000000E+00  0.00000000E+00  0.00000000E+00
Virial Ratio                               R      2.002134701365987E+00
SCF Energy                                 R     -4.958106519955048E+02
MP2 Energy                                 R     -4.973252994516230E+02
Total Energy                               R     -4.973252994516230E+02
Post-SCF wavefunction norm                 R      1.742757104370058E+00
RMS Force                                  R      3.209216662604344E-07
RMS Density                                R      2.237758145176100E-09
External E-field                           R   N=          35
  0.00000000E+00  0.00000000E+00  0.00000000E+00  0.00000000E+00  0.00000000E+00
  0.00000000E+00  0.00000000E+00  0.00000000E+00  0.00000000E+00  0.00000000E+00
  0.00000000E+00  0.00000000E+00  0.00000000E+00  0.00000000E+00  0.00000000E+00
  0.00000000E+00  0.00000000E+00  0.00000000E+00  0.00000000E+00  0.00000000E+00
  0.00000000E+00  0.00000000E+00  0.00000000E+00  0.00000000E+00  0.00000000E+00
  0.00000000E+00  0.00000000E+00  0.00000000E+00  0.00000000E+00  0.00000000E+00
  0.00000000E+00  0.00000000E+00  0.00000000E+00  0.00000000E+00  0.00000000E+00
IOpCl                                      I                0
IROHF                                      I                0
Alpha Orbital Energies                     R   N=         183
 -2.02930958E+01 -2.02914847E+01 -1.11430765E+01 -1.11131453E+01 -1.11111995E+01
 -1.11104167E+01 -1.11092754E+01 -1.11052290E+01 -1.11006725E+01 -1.10866786E+01
 -1.10617976E+01 -1.15740410E+00 -1.06036960E+00 -1.02325706E+00 -9.18546628E-01
 -8.99153580E-01 -8.12802575E-01 -7.78742004E-01 -6.81516671E-01 -6.56027784E-01
 -5.53686429E-01 -5.17426646E-01 -5.13374037E-01 -4.92453379E-01 -4.50299774E-01
 -4.45352228E-01 -4.29749601E-01 -4.14746423E-01 -4.11571819E-01 -4.02574170E-01
 -3.69140542E-01 -3.62619094E-01 -3.55401299E-01 -3.41682239E-01 -3.17118642E-01
 -2.19014540E-01 -2.01236366E-01 -1.99443339E-01 -1.85046564E-01 -1.60768450E-01
  2.69367256E-01  2.72524133E-01  3.51772798E-01  3.79705277E-01  4.02437144E-01
  4.17475634E-01  4.24943483E-01  4.43665419E-01  4.47886132E-01  4.77939573E-01
  4.84965618E-01  4.97362320E-01  5.33513969E-01  5.39980593E-01  5.69879011E-01
  5.97297885E-01  6.13079892E-01  6.46208239E-01  6.62456971E-01  6.69517432E-01
  7.29568658E-01  7.66659581E-01  8.23651259E-01  8.45893131E-01  8.63142084E-01
  8.71280899E-01  8.85999766E-01  9.04852130E-01  9.21445761E-01  9.37448474E-01
  9.58753007E-01  9.63921352E-01  9.65525109E-01  9.84524769E-01  1.00621077E+00
  1.02376351E+00  1.04715608E+00  1.07425546E+00  1.07762526E+00  1.09541267E+00
  1.11352144E+00  1.13848762E+00  1.14710629E+00  1.17411225E+00  1.21203173E+00
  1.21939375E+00  1.22713583E+00  1.23978175E+00  1.24617223E+00  1.28642175E+00
  1.29052345E+00  1.29557608E+00  1.32251873E+00  1.33422130E+00  1.33551891E+00
  1.34351930E+00  1.37933337E+00  1.39404276E+00  1.41966775E+00  1.44292286E+00
  1.46909504E+00  1.47889072E+00  1.49725663E+00  1.54415552E+00  1.56446332E+00
  1.58922313E+00  1.60680777E+00  1.64809752E+00  1.66306536E+00  1.67780134E+00
  1.71509408E+00  1.74862414E+00  1.77684627E+00  1.81417036E+00  1.82611162E+00
  1.84392565E+00  1.86239298E+00  1.89331417E+00  1.91155530E+00  1.92734103E+00
  1.95719231E+00  2.08435083E+00  2.16010746E+00  2.19475345E+00  2.20945643E+00
  2.24122434E+00  2.27274091E+00  2.28939086E+00  2.31251123E+00  2.33395195E+00
  2.34213496E+00  2.35957005E+00  2.36816057E+00  2.37813516E+00  2.39604546E+00
  2.40633176E+00  2.44571674E+00  2.47807274E+00  2.49709009E+00  2.50977077E+00
  2.52228100E+00  2.54439666E+00  2.58552948E+00  2.62037879E+00  2.66111505E+00
  2.67339532E+00  2.70762259E+00  2.71568844E+00  2.72478915E+00  2.75470103E+00
  2.77554907E+00  2.81763269E+00  2.84631129E+00  2.88762209E+00  2.89847177E+00