opt=Tight                                                               
Freq      RMP2-FC                                                     6-31G(d)            
Number of atoms                            I               14
Info1-9                                    I   N=           9
          23          23        1002           0           0         100
           6           2           1
Charge                                     I               -1
Multiplicity                               I                1
Number of electrons                        I               54
Number of alpha electrons                  I               27
Number of beta electrons                   I               27
Number of basis functions                  I              119
Number of independent functions            I              119
Number of point charges in /Mol/           I                0
Number of translation vectors              I                0
Atomic numbers                             I   N=          14
           8           8           6           6           6           6
           6           1           1           1           1           1
           1           1
Nuclear charges                            R   N=          14
  8.00000000E+00  8.00000000E+00  6.00000000E+00  6.00000000E+00  6.00000000E+00
  6.00000000E+00  6.00000000E+00  1.00000000E+00  1.00000000E+00  1.00000000E+00
  1.00000000E+00  1.00000000E+00  1.00000000E+00  1.00000000E+00
Current cartesian coordinates              R   N=          42
  5.10107034E+00 -1.53247245E+00  5.35315601E-01  3.58939774E+00  2.43872582E+00
 -1.16250879E-01 -3.96874421E+00 -6.83325396E-01 -9.28470903E-01 -5.75109055E+00
  4.00492127E-01  1.07897167E+00 -1.33797268E+00  3.34637941E-01 -6.70268391E-01
  7.34306866E-01 -1.04723766E+00 -1.92118042E-01  3.36344274E+00  6.23755137E-02
  9.80277817E-02 -3.93299786E+00 -2.75111228E+00 -7.94303536E-01 -4.71826923E+00
 -2.18362491E-01 -2.80765416E+00 -5.09966947E+00 -1.03940127E-01  2.97480367E+00
 -5.82362279E+00  2.46374311E+00  9.58358462E-01 -7.67397424E+00 -3.22347986E-01
  8.41185447E-01 -1.09725768E+00  2.37432777E+00 -8.50367588E-01  5.82393636E-01
 -3.09399006E+00  8.60720282E-03
Force Field                                I                0
Int Atom Types                             I   N=          14
           0           0           0           0           0           0
           0           0           0           0           0           0
           0           0
MM charges                                 R   N=          14
  0.00000000E+00  0.00000000E+00  0.00000000E+00  0.00000000E+00  0.00000000E+00
  0.00000000E+00  0.00000000E+00  0.00000000E+00  0.00000000E+00  0.00000000E+00
  0.00000000E+00  0.00000000E+00  0.00000000E+00  0.00000000E+00
Integer atomic weights                     I   N=          14
          16          16          12          12          12          12
          12           1           1           1           1           1
           1           1
Real atomic weights                        R   N=          14
  1.59949146E+01  1.59949146E+01  1.20000000E+01  1.20000000E+01  1.20000000E+01
  1.20000000E+01  1.20000000E+01  1.00782504E+00  1.00782504E+00  1.00782504E+00
  1.00782504E+00  1.00782504E+00  1.00782504E+00  1.00782504E+00
Atom fragment info                         I   N=          14
           0           0           0           0           0           0
           0           0           0           0           0           0
           0           0
Atom residue num                           I   N=          14
           0           0           0           0           0           0
           0           0           0           0           0           0
           0           0
Nuclear spins                              I   N=          14
           0           0           0           0           0           0
           0           1           1           1           1           1
           1           1
Nuclear ZEff                               R   N=          14
 -5.60000000E+00 -5.60000000E+00 -3.60000000E+00 -3.60000000E+00 -3.60000000E+00
 -3.60000000E+00 -3.60000000E+00 -1.00000000E+00 -1.00000000E+00 -1.00000000E+00
 -1.00000000E+00 -1.00000000E+00 -1.00000000E+00 -1.00000000E+00
Nuclear QMom                               R   N=          14
  0.00000000E+00  0.00000000E+00  0.00000000E+00  0.00000000E+00  0.00000000E+00
  0.00000000E+00  0.00000000E+00  0.00000000E+00  0.00000000E+00  0.00000000E+00
  0.00000000E+00  0.00000000E+00  0.00000000E+00  0.00000000E+00
Nuclear GFac                               R   N=          14
  0.00000000E+00  0.00000000E+00  0.00000000E+00  0.00000000E+00  0.00000000E+00
  0.00000000E+00  0.00000000E+00  2.79284600E+00  2.79284600E+00  2.79284600E+00
  2.79284600E+00  2.79284600E+00  2.79284600E+00  2.79284600E+00
MicOpt                                     I   N=          14
          -1          -1          -1          -1          -1          -1
          -1          -1          -1          -1          -1          -1
          -1          -1
Number of contracted shells                I               42
Number of primitive shells                 I              105
Pure/Cartesian d shells                    I                1
Pure/Cartesian f shells                    I                0
Highest angular momentum                   I                2
Largest degree of contraction              I                6
Shell types                                I   N=          42
           0          -1          -1           2           0          -1
          -1           2           0          -1          -1           2
           0          -1          -1           2           0          -1
          -1           2           0          -1          -1           2
           0          -1          -1           2           0           0
           0           0           0           0           0           0
           0           0           0           0           0           0
Number of primitives per shell             I   N=          42
           6           3           1           1           6           3
           1           1           6           3           1           1
           6           3           1           1           6           3
           1           1           6           3           1           1
           6           3           1           1           3           1
           3           1           3           1           3           1
           3           1           3           1           3           1
Shell to atom map                          I   N=          42
           1           1           1           1           2           2
           2           2           3           3           3           3
           4           4           4           4           5           5
           5           5           6           6           6           6
           7           7           7           7           8           8
           9           9          10          10          11          11
          12          12          13          13          14          14
Primitive exponents                        R   N=         105
  5.48467166E+03  8.25234946E+02  1.88046958E+02  5.29645000E+01  1.68975704E+01
  5.79963534E+00  1.55396162E+01  3.59993359E+00  1.01376175E+00  2.70005823E-01
  8.00000000E-01  5.48467166E+03  8.25234946E+02  1.88046958E+02  5.29645000E+01
  1.68975704E+01  5.79963534E+00  1.55396162E+01  3.59993359E+00  1.01376175E+00
  2.70005823E-01  8.00000000E-01  3.04752488E+03  4.57369518E+02  1.03948685E+02
  2.92101553E+01  9.28666296E+00  3.16392696E+00  7.86827235E+00  1.88128854E+00
  5.44249258E-01  1.68714478E-01  8.00000000E-01  3.04752488E+03  4.57369518E+02
  1.03948685E+02  2.92101553E+01  9.28666296E+00  3.16392696E+00  7.86827235E+00
  1.88128854E+00  5.44249258E-01  1.68714478E-01  8.00000000E-01  3.04752488E+03
  4.57369518E+02  1.03948685E+02  2.92101553E+01  9.28666296E+00  3.16392696E+00
  7.86827235E+00  1.88128854E+00  5.44249258E-01  1.68714478E-01  8.00000000E-01
  3.04752488E+03  4.57369518E+02  1.03948685E+02  2.92101553E+01  9.28666296E+00
  3.16392696E+00  7.86827235E+00  1.88128854E+00  5.44249258E-01  1.68714478E-01
  8.00000000E-01  3.04752488E+03  4.57369518E+02  1.03948685E+02  2.92101553E+01
  9.28666296E+00  3.16392696E+00  7.86827235E+00  1.88128854E+00  5.44249258E-01
  1.68714478E-01  8.00000000E-01  1.87311370E+01  2.82539436E+00  6.40121692E-01
  1.61277759E-01  1.87311370E+01  2.82539436E+00  6.40121692E-01  1.61277759E-01
  1.87311370E+01  2.82539436E+00  6.40121692E-01  1.61277759E-01  1.87311370E+01
  2.82539436E+00  6.40121692E-01  1.61277759E-01  1.87311370E+01  2.82539436E+00
  6.40121692E-01  1.61277759E-01  1.87311370E+01  2.82539436E+00  6.40121692E-01
  1.61277759E-01  1.87311370E+01  2.82539436E+00  6.40121692E-01  1.61277759E-01
Contraction coefficients                   R   N=         105
  1.83107443E-03  1.39501722E-02  6.84450781E-02  2.32714336E-01  4.70192898E-01
  3.58520853E-01 -1.10777550E-01 -1.48026263E-01  1.13076702E+00  1.00000000E+00
  1.00000000E+00  1.83107443E-03  1.39501722E-02  6.84450781E-02  2.32714336E-01
  4.70192898E-01  3.58520853E-01 -1.10777550E-01 -1.48026263E-01  1.13076702E+00
  1.00000000E+00  1.00000000E+00  1.83473713E-03  1.40373228E-02  6.88426223E-02
  2.32184443E-01  4.67941348E-01  3.62311985E-01 -1.19332420E-01 -1.60854152E-01
  1.14345644E+00  1.00000000E+00  1.00000000E+00  1.83473713E-03  1.40373228E-02
  6.88426223E-02  2.32184443E-01  4.67941348E-01  3.62311985E-01 -1.19332420E-01
 -1.60854152E-01  1.14345644E+00  1.00000000E+00  1.00000000E+00  1.83473713E-03
  1.40373228E-02  6.88426223E-02  2.32184443E-01  4.67941348E-01  3.62311985E-01
 -1.19332420E-01 -1.60854152E-01  1.14345644E+00  1.00000000E+00  1.00000000E+00
  1.83473713E-03  1.40373228E-02  6.88426223E-02  2.32184443E-01  4.67941348E-01
  3.62311985E-01 -1.19332420E-01 -1.60854152E-01  1.14345644E+00  1.00000000E+00
  1.00000000E+00  1.83473713E-03  1.40373228E-02  6.88426223E-02  2.32184443E-01
  4.67941348E-01  3.62311985E-01 -1.19332420E-01 -1.60854152E-01  1.14345644E+00
  1.00000000E+00  1.00000000E+00  3.34946043E-02  2.34726953E-01  8.13757326E-01
  1.00000000E+00  3.34946043E-02  2.34726953E-01  8.13757326E-01  1.00000000E+00
  3.34946043E-02  2.34726953E-01  8.13757326E-01  1.00000000E+00  3.34946043E-02
  2.34726953E-01  8.13757326E-01  1.00000000E+00  3.34946043E-02  2.34726953E-01
  8.13757326E-01  1.00000000E+00  3.34946043E-02  2.34726953E-01  8.13757326E-01
  1.00000000E+00  3.34946043E-02  2.34726953E-01  8.13757326E-01  1.00000000E+00
P(S=P) Contraction coefficients            R   N=         105
  0.00000000E+00  0.00000000E+00  0.00000000E+00  0.00000000E+00  0.00000000E+00
  0.00000000E+00  7.08742682E-02  3.39752839E-01  7.27158577E-01  1.00000000E+00
  0.00000000E+00  0.00000000E+00  0.00000000E+00  0.00000000E+00  0.00000000E+00
  0.00000000E+00  0.00000000E+00  7.08742682E-02  3.39752839E-01  7.27158577E-01
  1.00000000E+00  0.00000000E+00  0.00000000E+00  0.00000000E+00  0.00000000E+00
  0.00000000E+00  0.00000000E+00  0.00000000E+00  6.89990666E-02  3.16423961E-01
  7.44308291E-01  1.00000000E+00  0.00000000E+00  0.00000000E+00  0.00000000E+00
  0.00000000E+00  0.00000000E+00  0.00000000E+00  0.00000000E+00  6.89990666E-02
  3.16423961E-01  7.44308291E-01  1.00000000E+00  0.00000000E+00  0.00000000E+00
  0.00000000E+00  0.00000000E+00  0.00000000E+00  0.00000000E+00  0.00000000E+00
  6.89990666E-02  3.16423961E-01  7.44308291E-01  1.00000000E+00  0.00000000E+00
  0.00000000E+00  0.00000000E+00  0.00000000E+00  0.00000000E+00  0.00000000E+00
  0.00000000E+00  6.89990666E-02  3.16423961E-01  7.44308291E-01  1.00000000E+00
  0.00000000E+00  0.00000000E+00  0.00000000E+00  0.00000000E+00  0.00000000E+00
  0.00000000E+00  0.00000000E+00  6.89990666E-02  3.16423961E-01  7.44308291E-01
  1.00000000E+00  0.00000000E+00  0.00000000E+00  0.00000000E+00  0.00000000E+00
  0.00000000E+00  0.00000000E+00  0.00000000E+00  0.00000000E+00  0.00000000E+00
  0.00000000E+00  0.00000000E+00  0.00000000E+00  0.00000000E+00  0.00000000E+00
  0.00000000E+00  0.00000000E+00  0.00000000E+00  0.00000000E+00  0.00000000E+00
  0.00000000E+00  0.00000000E+00  0.00000000E+00  0.00000000E+00  0.00000000E+00
  0.00000000E+00  0.00000000E+00  0.00000000E+00  0.00000000E+00  0.00000000E+00
Coordinates of each shell                  R   N=         126
  5.10107034E+00 -1.53247245E+00  5.35315601E-01  5.10107034E+00 -1.53247245E+00
  5.35315601E-01  5.10107034E+00 -1.53247245E+00  5.35315601E-01  5.10107034E+00
 -1.53247245E+00  5.35315601E-01  3.58939774E+00  2.43872582E+00 -1.16250879E-01
  3.58939774E+00  2.43872582E+00 -1.16250879E-01  3.58939774E+00  2.43872582E+00
 -1.16250879E-01  3.58939774E+00  2.43872582E+00 -1.16250879E-01 -3.96874421E+00
 -6.83325396E-01 -9.28470903E-01 -3.96874421E+00 -6.83325396E-01 -9.28470903E-01
 -3.96874421E+00 -6.83325396E-01 -9.28470903E-01 -3.96874421E+00 -6.83325396E-01
 -9.28470903E-01 -5.75109055E+00  4.00492127E-01  1.07897167E+00 -5.75109055E+00
  4.00492127E-01  1.07897167E+00 -5.75109055E+00  4.00492127E-01  1.07897167E+00
 -5.75109055E+00  4.00492127E-01  1.07897167E+00 -1.33797268E+00  3.34637941E-01
 -6.70268391E-01 -1.33797268E+00  3.34637941E-01 -6.70268391E-01 -1.33797268E+00
  3.34637941E-01 -6.70268391E-01 -1.33797268E+00  3.34637941E-01 -6.70268391E-01
  7.34306866E-01 -1.04723766E+00 -1.92118042E-01  7.34306866E-01 -1.04723766E+00
 -1.92118042E-01  7.34306866E-01 -1.04723766E+00 -1.92118042E-01  7.34306866E-01
 -1.04723766E+00 -1.92118042E-01  3.36344274E+00  6.23755137E-02  9.80277817E-02
  3.36344274E+00  6.23755137E-02  9.80277817E-02  3.36344274E+00  6.23755137E-02
  9.80277817E-02  3.36344274E+00  6.23755137E-02  9.80277817E-02 -3.93299786E+00
 -2.75111228E+00 -7.94303536E-01 -3.93299786E+00 -2.75111228E+00 -7.94303536E-01
 -4.71826923E+00 -2.18362491E-01 -2.80765416E+00 -4.71826923E+00 -2.18362491E-01
 -2.80765416E+00 -5.09966947E+00 -1.03940127E-01  2.97480367E+00 -5.09966947E+00
 -1.03940127E-01  2.97480367E+00 -5.82362279E+00  2.46374311E+00  9.58358462E-01
 -5.82362279E+00  2.46374311E+00  9.58358462E-01 -7.67397424E+00 -3.22347986E-01
  8.41185447E-01 -7.67397424E+00 -3.22347986E-01  8.41185447E-01 -1.09725768E+00
  2.37432777E+00 -8.50367588E-01 -1.09725768E+00  2.37432777E+00 -8.50367588E-01
  5.82393636E-01 -3.09399006E+00  8.60720282E-03  5.82393636E-01 -3.09399006E+00
  8.60720282E-03
Constraint Structure                       R   N=          42
  5.10107034E+00 -1.53247245E+00  5.35315601E-01  3.58939774E+00  2.43872582E+00
 -1.16250879E-01 -3.96874421E+00 -6.83325396E-01 -9.28470903E-01 -5.75109055E+00
  4.00492127E-01  1.07897167E+00 -1.33797268E+00  3.34637941E-01 -6.70268391E-01
  7.34306866E-01 -1.04723766E+00 -1.92118042E-01  3.36344274E+00  6.23755137E-02
  9.80277817E-02 -3.93299786E+00 -2.75111228E+00 -7.94303536E-01 -4.71826923E+00
 -2.18362491E-01 -2.80765416E+00 -5.09966947E+00 -1.03940127E-01  2.97480367E+00
 -5.82362279E+00  2.46374311E+00  9.58358462E-01 -7.67397424E+00 -3.22347986E-01
  8.41185447E-01 -1.09725768E+00  2.37432777E+00 -8.50367588E-01  5.82393636E-01
 -3.09399006E+00  8.60720282E-03
Num ILSW                                   I              100
ILSW                                       I   N=         100
           0           1           0           1           2           0
           0           0           0           0           0          -1
           0           0           0           0           0           0
           0           0           0           0           1           0
           1           0           0           0           0           0
           0           0      100000           0          -1           0
           0           0           0           0           0           0
           0           0           0           1           1           0
           0           0           1           0           0           0
           0           0           4          40           0           0
           0           0           0           0           0           0
           0           0           0           0           0           0
           0           0           0           0           0           0
           0           0           0           0           0           0
           0           0           0           0           0           0
           0           0           0           0           0           0
           0           0           0           0
Num RLSW                                   I               40
RLSW                                       R   N=          40
  1.00000000E+00  1.00000000E+00  1.00000000E+00  1.00000000E+00  1.00000000E+00
  0.00000000E+00  0.00000000E+00  1.00000000E+00  0.00000000E+00  0.00000000E+00
  0.00000000E+00  0.00000000E+00  1.00000000E+00  0.00000000E+00  0.00000000E+00
  0.00000000E+00  0.00000000E+00  1.00000000E+00  0.00000000E+00  0.00000000E+00
  0.00000000E+00  0.00000000E+00  1.00000000E+00  0.00000000E+00  0.00000000E+00
  0.00000000E+00  0.00000000E+00  1.00000000E+00  0.00000000E+00  0.00000000E+00
  0.00000000E+00  0.00000000E+00  0.00000000E+00  0.00000000E+00  0.00000000E+00
  0.00000000E+00  0.00000000E+00  0.00000000E+00  1.00000000E+00  1.00000000E+00
MxBond                                     I                4
NBond                                      I   N=          14
           1           1           4           4           3           3
           3           1           1           1           1           1
           1           1
IBond                                      I   N=          56
           7           0           0           0           7           0
           0           0           4           5           8           9
           3          10          11          12           3           6
          13           0           5           7          14           0
           1           2           6           0           3           0
           0           0           3           0           0           0
           4           0           0           0           4           0
           0           0           4           0           0           0
           5           0           0           0           6           0
           0           0
RBond                                      R   N=          56
  2.00000000E+00  0.00000000E+00  0.00000000E+00  0.00000000E+00  2.00000000E+00
  0.00000000E+00  0.00000000E+00  0.00000000E+00  1.00000000E+00  1.00000000E+00
  1.00000000E+00  1.00000000E+00  1.00000000E+00  1.00000000E+00  1.00000000E+00
  1.00000000E+00  1.00000000E+00  2.00000000E+00  1.00000000E+00  0.00000000E+00
  2.00000000E+00  1.00000000E+00  1.00000000E+00  0.00000000E+00  2.00000000E+00
  2.00000000E+00  1.00000000E+00  0.00000000E+00  1.00000000E+00  0.00000000E+00
  0.00000000E+00  0.00000000E+00  1.00000000E+00  0.00000000E+00  0.00000000E+00
  0.00000000E+00  1.00000000E+00  0.00000000E+00  0.00000000E+00  0.00000000E+00
  1.00000000E+00  0.00000000E+00  0.00000000E+00  0.00000000E+00  1.00000000E+00
  0.00000000E+00  0.00000000E+00  0.00000000E+00  1.00000000E+00  0.00000000E+00
  0.00000000E+00  0.00000000E+00  1.00000000E+00  0.00000000E+00  0.00000000E+00
  0.00000000E+00
Virial Ratio                               R      2.002446443834594E+00
SCF Energy                                 R     -3.432498728865088E+02
MP2 Energy                                 R     -3.442455919615928E+02
Total Energy                               R     -3.442455919615928E+02
Post-SCF wavefunction norm                 R      1.625275212767527E+00
RMS Force                                  R      6.346993639285185E-06
RMS Density                                R      2.394259785173432E-09
External E-field                           R   N=          35
  0.00000000E+00  0.00000000E+00  0.00000000E+00  0.00000000E+00  0.00000000E+00
  0.00000000E+00  0.00000000E+00  0.00000000E+00  0.00000000E+00  0.00000000E+00
  0.00000000E+00  0.00000000E+00  0.00000000E+00  0.00000000E+00  0.00000000E+00
  0.00000000E+00  0.00000000E+00  0.00000000E+00  0.00000000E+00  0.00000000E+00
  0.00000000E+00  0.00000000E+00  0.00000000E+00  0.00000000E+00  0.00000000E+00
  0.00000000E+00  0.00000000E+00  0.00000000E+00  0.00000000E+00  0.00000000E+00
  0.00000000E+00  0.00000000E+00  0.00000000E+00  0.00000000E+00  0.00000000E+00
IOpCl                                      I                0
IROHF                                      I                0
Alpha Orbital Energies                     R   N=         119
 -2.04617034E+01 -2.04606335E+01 -1.13076436E+01 -1.12246408E+01 -1.12221248E+01
 -1.12134631E+01 -1.12037389E+01 -1.32602598E+00 -1.22481991E+00 -1.07165447E+00
 -9.83500238E-01 -8.57681955E-01 -7.63614068E-01 -6.87668448E-01 -6.17522475E-01
 -6.04676110E-01 -5.86255485E-01 -5.56571200E-01 -5.27102552E-01 -5.15924726E-01
 -5.12471919E-01 -4.88745491E-01 -4.73278093E-01 -3.72998102E-01 -3.69717622E-01
 -3.59916142E-01 -3.40295354E-01  1.57309356E-01  2.54833404E-01  2.79486849E-01
  3.05379054E-01  3.19701499E-01  3.36446970E-01  3.41846970E-01  3.47388279E-01
  3.53197645E-01  4.05450875E-01  4.61317780E-01  5.14422326E-01  5.26665116E-01
  5.93412667E-01  6.14992864E-01  7.29038310E-01  7.46222803E-01  7.74621028E-01
  8.10079282E-01  8.12396508E-01  8.60979586E-01  8.76188589E-01  9.01731068E-01
  9.16012256E-01  9.55884554E-01  9.72768158E-01  9.91403013E-01  1.04284543E+00
  1.07065279E+00  1.11031636E+00  1.13070427E+00  1.14385991E+00  1.16488875E+00
  1.17650658E+00  1.18856711E+00  1.19841702E+00  1.22425960E+00  1.24974356E+00
  1.25752793E+00  1.31021978E+00  1.32207632E+00  1.33009232E+00  1.40189354E+00
  1.43193291E+00  1.47744678E+00  1.57301806E+00  1.62645190E+00  1.63575684E+00
  1.69535688E+00  1.72604386E+00  1.76656782E+00  1.84555391E+00  1.90439353E+00
  1.94058025E+00  2.04079642E+00  2.07691498E+00  2.10116354E+00  2.16347502E+00
  2.18815954E+00  2.19149918E+00  2.22323713E+00  2.24867038E+00  2.27862707E+00
  2.29998131E+00  2.32401833E+00  2.35474844E+00  2.40963320E+00  2.44607017E+00
  2.49698004E+00  2.54653273E+00  2.62018701E+00  2.62918222E+00  2.66186617E+00
  2.70625373E+00  2.78674674E+00  2.88632061E+00  2.95346550E+00  3.00309215E+00
  3.02354522E+00  3.09605906E+00  3.20533041E+00  3.28466967E+00  3.33022177E+00
  3.49900434E+00  3.56209958E+00  4.31198565E+00  4.54404556E+00  4.61424995E+00
  4.74156582E+00  4.78999768E+00  4.87060794E+00  4.95229523E+00
Alpha MO coefficients                      R   N=       14161
  9.94575368E-01  2.09925150E-02 -9.04877259E-04  8.45453474E-04 -2.29197749E-04
  4.18961212E-03  1.23046177E-04 -8.69201829E-05  2.83027634E-05 -3.83017002E-03
 -3.85022414E-03 -4.02855003E-03 -4.98626499E-05  4.23073599E-05 -3.04109100E-05
 -1.50388568E-02 -3.69651289E-04 -2.77297248E-05  2.74431149E-05 -7.16361921E-06
  2.40585274E-04 -4.01101605E-05 -1.38249288E-04  8.25130462E-06  2.62841576E-05
  5.10879166E-05 -1.21057874E-05  1.10131298E-04 -4.91971260E-06  9.62540901E-06
  3.68319042E-06  1.41819060E-05  1.27455407E-06  1.31500452E-06  1.59314114E-07
 -1.25571693E-04 -3.25392023E-05 -4.04198471E-05 -4.83584597E-06  5.46663948E-06
  4.24483073E-06  6.83314681E-06 -1.20352965E-06  9.39793114E-08 -2.85602742E-07
 -4.35520582E-07 -1.63901353E-06  1.48591536E-06 -4.87073775E-07 -1.39827503E-06
  2.84715437E-05  5.68032103E-06  1.04972820E-06 -7.64693781E-06 -4.77378748E-07
 -1.19406070E-06  1.91725660E-07 -8.75125567E-07 -4.23621367E-07 -1.00329804E-06
  3.64585643E-06  2.03869668E-05  1.66194177E-05 -8.29588032E-06  3.96350749E-06
 -1.95525278E-04 -1.89438333E-04  4.37482483E-05 -3.45218013E-05  2.84393703E-06
  1.32526717E-05  8.73938345E-06 -1.04049431E-05 -6.41442632E-08 -2.42273894E-06
 -3.46638221E-06  1.51303759E-05 -2.53192945E-05 -7.39379404E-07 -3.96628794E-06
  1.16822472E-04 -2.07291215E-04  8.56173449E-05 -4.12503849E-05 -8.45024157E-05
  7.66499115E-06 -2.36020345E-05  1.80612987E-05 -1.31341776E-05 -8.56087809E-07
 -6.12767947E-06  4.93509042E-04  9.96129808E-05 -1.19132098E-04  2.80490930E-05
 -3.36004784E-04 -3.16668763E-04  6.90116730E-07 -4.93969616E-05 -2.89557869E-04
 -3.10798873E-04 -7.21069726E-05  2.99421997E-04 -7.34754415E-05  7.74480827E-05
  2.54745152E-06 -6.51919455E-06  4.31899026E-06  8.96802493E-06 -1.72415400E-06
  1.48798923E-06 -6.26106414E-07 -6.21639359E-06 -4.83413559E-07 -4.46811135E-06
  1.40435953E-05 -1.44414442E-05  1.42201338E-05 -2.93237274E-05  1.50165808E-02
  2.60859354E-04 -2.92520971E-05 -1.38831020E-05 -3.10825193E-06  3.66646328E-04
 -1.30621270E-04  7.73593618E-05 -2.84121907E-05  1.70050147E-05 -1.73839207E-04
 -1.33741410E-04 -2.78380076E-05  3.06722870E-05  4.18814766E-10  9.94569125E-01
  2.09844648E-02 -1.21228468E-04 -1.25844831E-03  1.12964284E-04  4.28586455E-03
  2.15478171E-05  1.40621023E-04 -1.16179071E-05 -3.90753424E-03 -3.80784435E-03
 -4.04123417E-03  2.15837288E-05  2.26249016E-05 -2.55514045E-05  4.72672815E-06
  2.26085599E-05 -4.35072119E-06  1.11880353E-06 -9.44427116E-07 -2.05747119E-04
 -5.02917009E-05 -1.03742256E-04  7.11313047E-06  3.43677639E-06  4.23346873E-06
  6.28535007E-06 -8.45582834E-06  7.23042290E-07 -1.03339575E-06  8.46032798E-07
  2.74243174E-06  4.73643230E-06 -3.05928823E-07 -1.29561291E-06  1.78227041E-05
 -6.77545362E-06  1.49463010E-06 -2.44646926E-05  7.49286639E-07  9.37441102E-07
  4.08170479E-06 -6.35776035E-07 -1.28800969E-06 -1.55465706E-06  5.15704012E-07
  7.49432965E-06  5.85199509E-06  3.84309862E-06  3.11671062E-07 -1.25488236E-04
 -3.25996107E-04  1.68009821E-04 -6.73875057E-05 -1.24435463E-05 -1.45058475E-05
  4.28021573E-06  2.44611089E-05 -6.34358255E-06  6.40814461E-06 -2.10948260E-06
  2.03099443E-06 -2.62021546E-05 -2.56155187E-05 -1.23800272E-06  2.40282031E-04
 -2.57369491E-04  1.14157833E-04 -5.41246771E-05  1.14434156E-05 -4.51518958E-05
 -1.76405298E-05 -6.15728981E-05  1.23183504E-05 -6.68362892E-06 -7.18994806E-06
  5.14266930E-04 -6.17016714E-07  1.50736166E-04 -1.58993534E-05 -3.75650011E-04
 -2.17107516E-04 -2.82169422E-04 -3.59264874E-06 -6.50968126E-05 -5.87521859E-04
 -6.51127758E-05 -4.28539150E-06 -6.54059361E-07  6.33165969E-05  1.14973378E-06
 -2.87470369E-05  1.03925546E-05  2.04514018E-05  6.37558142E-07  1.41969884E-05
 -2.68471330E-06  3.91373465E-06 -5.41368902E-07 -1.33731582E-05  3.04607732E-05
 -1.78333374E-04  1.56912092E-05 -4.17540449E-06 -1.89640963E-04  5.52094816E-04
 -8.55581207E-05  1.88877371E-04 -3.29325476E-05 -2.07240343E-03  7.04249418E-04
 -1.60087238E-03  2.76668073E-04 -1.44023965E-05 -7.15526371E-05  4.06734840E-04
  2.84115630E-04 -1.09517110E-04  1.05021131E-04 -1.82650324E-04  5.79024990E-04
  5.43687878E-05 -1.96381345E-04  2.89141993E-05 -2.33833960E-03 -5.27430678E-04
  1.68397777E-03 -2.58365451E-04  2.40229547E-04 -2.64615542E-04  4.34953823E-04
  9.68883188E-06 -3.84132412E-05  8.79120127E-05 -3.34154887E-05 -1.68055365E-04
  1.08082310E-05 -1.23909411E-06 -2.52300385E-06  1.35329639E-03  5.86300446E-04
  3.43908288E-04  9.13971562E-05  5.64881612E-06 -4.19471414E-05 -5.79156823E-05
  2.29787669E-05  7.86849576E-06  5.30193884E-06 -2.20394496E-06  4.17870506E-06
 -2.10866412E-05 -8.43000170E-07  1.52532161E-05 -1.68752734E-04 -4.51517460E-05
  7.87749484E-06  1.13996958E-05 -6.44462009E-06  2.63889389E-06 -3.74634769E-06
  1.16247616E-05  5.41940197E-06  1.28838414E-05 -3.95991928E-05 -1.60405614E-04
 -1.01199574E-04 -8.52309040E-05 -1.04195084E-05  4.46725438E-04  1.49973432E-03
 -2.73234514E-05  2.31606473E-04  1.57788147E-05  7.87670703E-05 -8.86655593E-05
 -9.93277753E-05  3.48748654E-05 -3.59855077E-05  2.74611682E-03  1.73295820E-04
 -7.73697911E-05 -4.84280609E-05 -5.66914647E-06  3.45935843E-03  2.58617010E-03
  1.11729485E-04  3.89573876E-04 -5.92598285E-04 -2.66121054E-04 -1.99053642E-04
 -1.00385971E-04 -6.12247451E-05 -6.26116195E-06  9.95942762E-01  2.57412209E-02
  2.33646003E-04  8.32152670E-05  2.75333841E-05 -6.22410318E-03  3.94719019E-03
  1.81891003E-03  4.22643993E-04 -1.15702441E-03 -4.51449333E-04 -2.12631577E-03
 -3.40647321E-04  2.18934325E-04 -2.62412135E-04 -5.75694490E-05  1.27863227E-04
 -3.89465911E-05 -3.30669685E-05  1.67885370E-05 -3.15599597E-06 -2.24625086E-06
  3.09194414E-05 -1.54789606E-06  5.45846825E-05 -1.18150470E-04  1.88102784E-05
 -1.71041800E-04 -1.33223383E-04 -2.78156415E-05 -1.21101632E-04  1.46842549E-05
  1.06049647E-06  8.65981065E-07  5.89379837E-04 -1.81445792E-04  5.00895283E-05
 -2.05535701E-05 -4.03279880E-05 -9.06986814E-05 -9.65331846E-05  9.81006678E-07
  9.61280481E-06  2.51924469E-06  1.04178994E-07 -1.12849383E-05  3.04939335E-06
  8.67800691E-06 -5.16194831E-06  1.70875040E-08  9.48137650E-05 -8.02923381E-05
  4.54182249E-05 -1.56568677E-05  2.65700013E-05 -1.96704552E-05  4.32081600E-08
  7.12034932E-07 -9.47264186E-06  1.34927409E-01  4.21541767E-03 -5.26459444E-05
  1.62474992E-05 -1.34598502E-05 -6.75847931E-04  1.68606529E-03 -6.03571110E-04
 -3.62724052E-04 -6.62370253E-04 -3.95414008E-04 -2.75941501E-04 -2.24747423E-04
  9.77991299E-07 -8.81729814E-05  2.80758742E-03 -2.87693818E-04 -1.43977418E-04
 -2.52931380E-05 -8.03165412E-06  2.14589238E-03  1.26432255E-03  5.17805616E-05
 -5.98546160E-04 -6.48931348E-05 -1.61277825E-04 -1.06751793E-04 -3.19993933E-06
 -3.89746449E-05 -9.89291853E-06  9.85770819E-01  2.72576249E-02 -2.35268454E-04
 -1.00259956E-04  5.79876359E-05 -1.27688892E-02 -4.18817922E-04  1.37508907E-03
 -4.13549083E-04 -1.47107317E-03 -1.72696756E-03 -2.24495816E-03 -2.05307526E-04
  1.53995717E-04 -1.12763491E-04  3.73265695E-02  6.64261536E-04  2.12649682E-04
 -1.22557605E-04  2.53855264E-05  4.48079025E-03 -2.38938622E-03  6.56220020E-04
 -3.04643416E-04 -3.30376827E-04 -3.93097260E-04 -2.00523991E-04 -5.94744234E-07