
    -----------------------------------------------------------------------
          Psi4: An Open-Source Ab Initio Electronic Structure Package
                               Psi4 1.3.2 release

                         Git: Rev {HEAD} ecbda83 


    R. M. Parrish, L. A. Burns, D. G. A. Smith, A. C. Simmonett,
    A. E. DePrince III, E. G. Hohenstein, U. Bozkaya, A. Yu. Sokolov,
    R. Di Remigio, R. M. Richard, J. F. Gonthier, A. M. James,
    H. R. McAlexander, A. Kumar, M. Saitow, X. Wang, B. P. Pritchard,
    P. Verma, H. F. Schaefer III, K. Patkowski, R. A. King, E. F. Valeev,
    F. A. Evangelista, J. M. Turney, T. D. Crawford, and C. D. Sherrill,
    J. Chem. Theory Comput. 13(7) pp 3185--3197 (2017).
    (doi: 10.1021/acs.jctc.7b00174)


                         Additional Contributions by
    P. Kraus, H. Kruse, M. H. Lechner, M. C. Schieber, R. A. Shaw,
    A. Alenaizan, R. Galvelis, Z. L. Glick, S. Lehtola, and J. P. Misiewicz

    -----------------------------------------------------------------------


    Psi4 started on: Wednesday, 04 November 2020 12:02PM

    Process ID: 4690
    Host:       node142.bme.utexas.edu
    PSIDATADIR: /home/xy3866/psi4conda/share/psi4
    Memory:     500.0 MiB
    Threads:    8
    
  ==> Input File <==

--------------------------------------------------------------------------
#psi4
#
memory 32 gb

molecule  {
-1 1
  S        0.9464737    -0.7865690     0.0000000
  C        0.0000000     0.7834870     0.0000000
  C       -1.5238603     0.6942586     0.0000000
  H        0.2939480     1.3744500     0.8762970
  H        0.2939480     1.3744500    -0.8762970
  H       -2.0143880     1.6210480     0.0000000
  H       -1.8561270     0.0903230    -0.8834160
  H       -1.8561270     0.0903230     0.8834160
units angstrom
no_reorient  #important for SAPT in psi4, default
symmetry c1  #important for SAPT in psi4, default
}

set PROPERTIES_ORIGIN ["COM"]
properties('MP2/aug-cc-pvtz', properties = ['dipole'])
--------------------------------------------------------------------------

  Memory set to  29.802 GiB by Python driver.
    SCF Algorithm Type (re)set to DF.

*** tstart() called on node142.bme.utexas.edu
*** at Wed Nov  4 12:02:08 2020

   => Loading Basis Set <=

    Name: AUG-CC-PVTZ
    Role: ORBITAL
    Keyword: BASIS
    atoms 1   entry S          line   902 file /home/xy3866/psi4conda/share/psi4/basis/aug-cc-pvtz.gbs 
    atoms 2-3 entry C          line   235 file /home/xy3866/psi4conda/share/psi4/basis/aug-cc-pvtz.gbs 
    atoms 4-8 entry H          line    36 file /home/xy3866/psi4conda/share/psi4/basis/aug-cc-pvtz.gbs 


         ---------------------------------------------------------
                                   SCF
               by Justin Turney, Rob Parrish, Andy Simmonett
                          and Daniel G. A. Smith
                              RHF Reference
                        8 Threads,  30517 MiB Core
         ---------------------------------------------------------

  ==> Geometry <==

    Molecular point group: c1
    Full point group: Cs

    Geometry (in Angstrom), charge = -1, multiplicity = 1:

       Center              X                  Y                   Z               Mass       
    ------------   -----------------  -----------------  -----------------  -----------------
         S            0.835093421360    -0.740198981433     0.000000000000    31.972071174400
         C           -0.111380278640     0.829857018567     0.000000000000    12.000000000000
         C           -1.635240578640     0.740628618567     0.000000000000    12.000000000000
         H            0.182567721360     1.420820018567     0.876297000000     1.007825032230
         H            0.182567721360     1.420820018567    -0.876297000000     1.007825032230
         H           -2.125768278640     1.667418018567     0.000000000000     1.007825032230
         H           -1.967507278640     0.136693018567    -0.883416000000     1.007825032230
         H           -1.967507278640     0.136693018567     0.883416000000     1.007825032230

  Running in c1 symmetry.

  Rotational constants: A =      1.13481  B =      0.17269  C =      0.15869 [cm^-1]
  Rotational constants: A =  34020.80899  B =   5177.15894  C =   4757.39003 [MHz]
  Nuclear repulsion =   96.803114226732887

  Charge       = -1
  Multiplicity = 1
  Electrons    = 34
  Nalpha       = 17
  Nbeta        = 17

  ==> Algorithm <==

  SCF Algorithm Type is DF.
  DIIS enabled.
  MOM disabled.
  Fractional occupation disabled.
  Guess Type is SAD.
  Energy threshold   = 1.00e-10
  Density threshold  = 1.00e-10
  Integral threshold = 0.00e+00

  ==> Primary Basis <==

  Basis Set: AUG-CC-PVTZ
    Blend: AUG-CC-PVTZ
    Number of shells: 89
    Number of basis function: 257
    Number of Cartesian functions: 294
    Spherical Harmonics?: true
    Max angular momentum: 3

   => Loading Basis Set <=

    Name: (AUG-CC-PVTZ AUX)
    Role: JKFIT
    Keyword: DF_BASIS_SCF
    atoms 1   entry S          line   730 file /home/xy3866/psi4conda/share/psi4/basis/aug-cc-pvtz-jkfit.gbs 
    atoms 2-3 entry C          line   162 file /home/xy3866/psi4conda/share/psi4/basis/aug-cc-pvtz-jkfit.gbs 
    atoms 4-8 entry H          line    70 file /home/xy3866/psi4conda/share/psi4/basis/aug-cc-pvtz-jkfit.gbs 

  ==> Pre-Iterations <==

   -------------------------------------------------------
    Irrep   Nso     Nmo     Nalpha   Nbeta   Ndocc  Nsocc
   -------------------------------------------------------
     A        257     257       0       0       0       0
   -------------------------------------------------------
    Total     257     257      17      17      17       0
   -------------------------------------------------------

  ==> Integral Setup <==

  DFHelper Memory: AOs need 0.307 GiB; user supplied 22.352 GiB. Using in-core AOs.

  ==> MemDFJK: Density-Fitted J/K Matrices <==

    J tasked:                   Yes
    K tasked:                   Yes
    wK tasked:                   No
    OpenMP threads:               8
    Memory [MiB]:             22888
    Algorithm:                 Core
    Schwarz Cutoff:           1E-12
    Mask sparsity (%):       0.0000
    Fitting Condition:        1E-10

   => Auxiliary Basis Set <=

  Basis Set: (AUG-CC-PVTZ AUX)
    Blend: AUG-CC-PVTZ-JKFIT
    Number of shells: 172
    Number of basis function: 584
    Number of Cartesian functions: 717
    Spherical Harmonics?: true
    Max angular momentum: 4

  Minimum eigenvalue in the overlap matrix is 2.6466582297E-05.
  Using Symmetric Orthogonalization.

  SCF Guess: Superposition of Atomic Densities via on-the-fly atomic UHF.

  ==> Iterations <==

                           Total Energy        Delta E     RMS |[F,P]|

   @DF-RHF iter SAD:  -475.46714131288564   -4.75467e+02   0.00000e+00 
   @DF-RHF iter   1:  -476.05116129308033   -5.84020e-01   1.97575e-03 DIIS
   @DF-RHF iter   2:  -476.18544909811038   -1.34288e-01   1.01819e-03 DIIS
   @DF-RHF iter   3:  -476.22068562851848   -3.52365e-02   1.66845e-04 DIIS
   @DF-RHF iter   4:  -476.22246166115332   -1.77603e-03   6.63605e-05 DIIS
   @DF-RHF iter   5:  -476.22271452582214   -2.52865e-04   1.34152e-05 DIIS
   @DF-RHF iter   6:  -476.22273097056700   -1.64447e-05   3.79217e-06 DIIS
   @DF-RHF iter   7:  -476.22273275946964   -1.78890e-06   1.28999e-06 DIIS
   @DF-RHF iter   8:  -476.22273298859733   -2.29128e-07   3.49912e-07 DIIS
   @DF-RHF iter   9:  -476.22273300498705   -1.63897e-08   9.92324e-08 DIIS
   @DF-RHF iter  10:  -476.22273300606264   -1.07559e-09   3.02250e-08 DIIS
   @DF-RHF iter  11:  -476.22273300614557   -8.29345e-11   7.64822e-09 DIIS
   @DF-RHF iter  12:  -476.22273300615353   -7.95808e-12   2.57575e-09 DIIS
   @DF-RHF iter  13:  -476.22273300615478   -1.25056e-12   7.63131e-10 DIIS
   @DF-RHF iter  14:  -476.22273300615495   -1.70530e-13   3.06899e-10 DIIS
   @DF-RHF iter  15:  -476.22273300615450    4.54747e-13   1.00301e-10 DIIS
   @DF-RHF iter  16:  -476.22273300615507   -5.68434e-13   3.09374e-11 DIIS
  Energy and wave function converged.


  ==> Post-Iterations <==

    Orbital Energies [Eh]
    ---------------------

    Doubly Occupied:                                                      

       1A    -91.666452     2A    -11.057955     3A    -11.055759  
       4A     -8.666205     5A     -6.347791     6A     -6.346120  
       7A     -6.346080     8A     -0.858490     9A     -0.703436  
      10A     -0.570558    11A     -0.429014    12A     -0.420757  
      13A     -0.336031    14A     -0.314541    15A     -0.229005  
      16A     -0.089669    17A     -0.087371  

    Virtual:                                                              

      18A      0.122712    19A      0.139503    20A      0.140964  
      21A      0.151685    22A      0.164019    23A      0.194356  
      24A      0.210394    25A      0.228430    26A      0.233292  
      27A      0.247930    28A      0.257322    29A      0.265159  
      30A      0.267203    31A      0.285232    32A      0.288343  
      33A      0.311794    34A      0.356660    35A      0.360347  
      36A      0.380069    37A      0.389437    38A      0.421191  
      39A      0.425465    40A      0.427839    41A      0.439717  
      42A      0.460945    43A      0.466955    44A      0.478043  
      45A      0.483377    46A      0.493950    47A      0.507553  
      48A      0.515127    49A      0.523821    50A      0.537291  
      51A      0.549670    52A      0.551820    53A      0.561937  
      54A      0.576102    55A      0.578456    56A      0.581052  
      57A      0.585568    58A      0.593691    59A      0.614130  
      60A      0.621160    61A      0.624936    62A      0.626365  
      63A      0.628136    64A      0.643451    65A      0.655208  
      66A      0.680986    67A      0.686696    68A      0.704791  
      69A      0.725975    70A      0.735455    71A      0.745936  
      72A      0.854635    73A      0.885171    74A      0.902356  
      75A      0.905517    76A      0.955439    77A      0.957413  
      78A      0.960134    79A      0.979682    80A      0.987385  
      81A      0.998763    82A      1.003655    83A      1.016231  
      84A      1.029188    85A      1.030213    86A      1.045220  
      87A      1.045849    88A      1.048510    89A      1.082800  
      90A      1.095084    91A      1.096369    92A      1.109487  
      93A      1.122319    94A      1.131977    95A      1.149043  
      96A      1.162321    97A      1.178398    98A      1.185623  
      99A      1.197492   100A      1.219596   101A      1.223470  
     102A      1.223544   103A      1.245364   104A      1.258146  
     105A      1.263680   106A      1.286727   107A      1.300111  
     108A      1.310252   109A      1.311331   110A      1.328378  
     111A      1.343180   112A      1.371465   113A      1.399511  
     114A      1.415206   115A      1.421987   116A      1.435009  
     117A      1.476203   118A      1.493644   119A      1.507342  
     120A      1.522554   121A      1.544976   122A      1.580818  
     123A      1.594239   124A      1.612550   125A      1.636458  
     126A      1.639539   127A      1.673101   128A      1.698223  
     129A      1.716008   130A      1.752946   131A      1.786862  
     132A      1.804792   133A      1.824085   134A      1.834616  
     135A      1.851469   136A      1.867931   137A      1.879172  
     138A      1.882588   139A      1.917971   140A      1.942129  
     141A      1.970632   142A      1.991938   143A      2.016939  
     144A      2.047039   145A      2.071754   146A      2.084906  
     147A      2.093433   148A      2.114273   149A      2.155996  
     150A      2.183418   151A      2.187324   152A      2.254040  
     153A      2.262702   154A      2.323326   155A      2.346387  
     156A      2.351607   157A      2.388508   158A      2.394531  
     159A      2.413379   160A      2.421643   161A      2.442323  
     162A      2.478503   163A      2.479501   164A      2.574662  
     165A      2.615061   166A      2.633193   167A      2.686256  
     168A      2.703239   169A      2.755964   170A      2.793843  
     171A      2.810139   172A      2.852030   173A      2.888378  
     174A      2.933291   175A      2.948292   176A      3.033908  
     177A      3.153304   178A      3.198254   179A      3.253111  
     180A      3.358004   181A      3.396432   182A      3.549517  
     183A      3.560539   184A      3.619466   185A      3.632465  
     186A      3.717664   187A      3.744460   188A      3.764184  
     189A      3.783521   190A      3.791876   191A      3.823250  
     192A      3.879566   193A      3.880268   194A      3.911765  
     195A      3.917481   196A      3.997813   197A      4.015759  
     198A      4.055907   199A      4.073782   200A      4.117571  
     201A      4.135303   202A      4.152275   203A      4.155772  
     204A      4.225509   205A      4.263488   206A      4.290698  
     207A      4.290800   208A      4.345837   209A      4.360109  
     210A      4.376060   211A      4.443683   212A      4.450342  
     213A      4.556743   214A      4.567827   215A      4.608354  
     216A      4.641255   217A      4.706903   218A      4.710746  
     219A      4.779786   220A      4.846008   221A      4.925857  
     222A      4.956383   223A      4.971540   224A      4.994981  
     225A      5.006391   226A      5.085422   227A      5.134426  
     228A      5.147793   229A      5.183850   230A      5.244347  
     231A      5.252116   232A      5.264857   233A      5.295106  
     234A      5.370124   235A      5.412075   236A      5.475650  
     237A      5.539776   238A      5.574267   239A      5.616536  
     240A      5.700731   241A      5.759964   242A      5.776032  
     243A      5.933241   244A      5.991069   245A      6.057916  
     246A      6.111463   247A      6.206598   248A      6.222034  
     249A      6.337158   250A      6.387718   251A      6.412504  
     252A      6.851469   253A      6.879885   254A      6.976064  
     255A      6.990562   256A     16.954143   257A     17.869754  

    Final Occupation by Irrep:
              A 
    DOCC [    17 ]

  @DF-RHF Final Energy:  -476.22273300615507

   => Energetics <=

    Nuclear Repulsion Energy =             96.8031142267328875
    One-Electron Energy =                -855.0012267020438230
    Two-Electron Energy =                 281.9753794691558824
    Total Energy =                       -476.2227330061550674

Computation Completed

*** tstop() called on node142.bme.utexas.edu at Wed Nov  4 12:02:16 2020
Module time:
	user time   =      39.58 seconds =       0.66 minutes
	system time =       2.33 seconds =       0.04 minutes
	total time  =          8 seconds =       0.13 minutes
Total time:
	user time   =      39.58 seconds =       0.66 minutes
	system time =       2.33 seconds =       0.04 minutes
	total time  =          8 seconds =       0.13 minutes
   => Loading Basis Set <=

    Name: (AUG-CC-PVTZ AUX)
    Role: RIFIT
    Keyword: DF_BASIS_MP2
    atoms 1   entry S          line   666 file /home/xy3866/psi4conda/share/psi4/basis/aug-cc-pvtz-ri.gbs 
    atoms 2-3 entry C          line   148 file /home/xy3866/psi4conda/share/psi4/basis/aug-cc-pvtz-ri.gbs 
    atoms 4-8 entry H          line    30 file /home/xy3866/psi4conda/share/psi4/basis/aug-cc-pvtz-ri.gbs 


*** tstart() called on node142.bme.utexas.edu
*** at Wed Nov  4 12:02:16 2020


  //>>>>>>>>>>>>>>>>>>>>>>>>>>>>>>>>>>>//
  //               DFMP2               //
  //<<<<<<<<<<<<<<<<<<<<<<<<<<<<<<<<<<<//

	 --------------------------------------------------------
	                          DF-MP2                         
	      2nd-Order Density-Fitted Moller-Plesset Theory     
	              RMP2 Wavefunction,   8 Threads             
	                                                         
	        Rob Parrish, Justin Turney, Andy Simmonett,      
	           Ed Hohenstein, and C. David Sherrill          
	 --------------------------------------------------------

   => Auxiliary Basis Set <=

  Basis Set: (AUG-CC-PVTZ AUX)
    Blend: AUG-CC-PVTZ-RI
    Number of shells: 163
    Number of basis function: 589
    Number of Cartesian functions: 738
    Spherical Harmonics?: true
    Max angular momentum: 4

	 --------------------------------------------------------
	                 NBF =   257, NAUX =   589
	 --------------------------------------------------------
	   CLASS    FOCC     OCC    AOCC    AVIR     VIR    FVIR
	   PAIRS       0      17      17     240     240       0
	 --------------------------------------------------------

  DFHelper Memory: AOs need 0.307 GiB; user supplied 22.352 GiB. Using in-core AOs.


         ------------------------------------------------------------
                                     CPHF                           
                                  Rob Parrish                       
         ------------------------------------------------------------

  ==> Geometry <==

    Molecular point group: c1
    Full point group: Cs

    Geometry (in Angstrom), charge = -1, multiplicity = 1:

       Center              X                  Y                   Z               Mass       
    ------------   -----------------  -----------------  -----------------  -----------------
         S            0.835093421360    -0.740198981433     0.000000000000    31.972071174400
         C           -0.111380278640     0.829857018567     0.000000000000    12.000000000000
         C           -1.635240578640     0.740628618567     0.000000000000    12.000000000000
         H            0.182567721360     1.420820018567     0.876297000000     1.007825032230
         H            0.182567721360     1.420820018567    -0.876297000000     1.007825032230
         H           -2.125768278640     1.667418018567     0.000000000000     1.007825032230
         H           -1.967507278640     0.136693018567    -0.883416000000     1.007825032230
         H           -1.967507278640     0.136693018567     0.883416000000     1.007825032230

  Nuclear repulsion =   96.803114226732887
  Reference energy  = -476.222733006155067

  ==> Basis Set <==

  Basis Set: AUG-CC-PVTZ
    Blend: AUG-CC-PVTZ
    Number of shells: 89
    Number of basis function: 257
    Number of Cartesian functions: 294
    Spherical Harmonics?: true
    Max angular momentum: 3

  ==> CGRSolver (by Rob Parrish) <==

   Number of roots    =         1
   Preconditioning    =    JACOBI
   Convergence cutoff =     1E-06
   Maximum iterations =       100

  ==> CPHFRHamiltonian (by Rob Parrish) <== 

  ==> MemDFJK: Density-Fitted J/K Matrices <==

    J tasked:                   Yes
    K tasked:                   Yes
    wK tasked:                   No
    OpenMP threads:               8
    Memory [MiB]:             22888
    Algorithm:                 Core
    Schwarz Cutoff:           1E-12
    Mask sparsity (%):       0.0000
    Fitting Condition:        1E-10

   => Auxiliary Basis Set <=

  Basis Set: (AUG-CC-PVTZ AUX)
    Blend: AUG-CC-PVTZ-JKFIT
    Number of shells: 172
    Number of basis function: 584
    Number of Cartesian functions: 717
    Spherical Harmonics?: true
    Max angular momentum: 4

  ==> CPHF Iterations <==

  => Iterations <=

             Iter  Converged  Remaining    Residual
  CGR           1          0          1   1.105E-01
  CGR           2          0          1   2.311E-02
  CGR           3          0          1   9.863E-03
  CGR           4          0          1   3.042E-03
  CGR           5          0          1   7.551E-04
  CGR           6          0          1   2.166E-04
  CGR           7          0          1   7.879E-05
  CGR           8          0          1   2.630E-05
  CGR           9          0          1   7.667E-06
  CGR          10          0          1   2.260E-06
  CGR          11          1          0   5.054E-07

    CGRSolver converged.

	-----------------------------------------------------------
	 ==================> DF-MP2 Energies <==================== 
	-----------------------------------------------------------
	 Reference Energy          =    -476.2227330061550674 [Eh]
	 Singles Energy            =      -0.0000000000000000 [Eh]
	 Same-Spin Energy          =      -0.1431470979892364 [Eh]
	 Opposite-Spin Energy      =      -0.4897944368762051 [Eh]
	 Correlation Energy        =      -0.6329415348654415 [Eh]
	 Total Energy              =    -476.8556745410205053 [Eh]
	-----------------------------------------------------------
	 ================> DF-SCS-MP2 Energies <================== 
	-----------------------------------------------------------
	 SCS Same-Spin Scale       =       0.3333333333333333 [-]
	 SCS Opposite-Spin Scale   =       1.2000000000000000 [-]
	 SCS Same-Spin Energy      =      -0.0477156993297455 [Eh]
	 SCS Opposite-Spin Energy  =      -0.5877533242514460 [Eh]
	 SCS Correlation Energy    =      -0.6354690235811915 [Eh]
	 SCS Total Energy          =    -476.8582020297362760 [Eh]
	-----------------------------------------------------------



Properties will be evaluated at   0.000000,  -0.000000,   0.000000 [a0]

Properties computed using the MP2 density matrix

  Nuclear Dipole Moment: [e a0]
     X:    -5.3175      Y:     4.4639      Z:     0.0000

  Electronic Dipole Moment: [e a0]
     X:     4.0768      Y:    -3.1340      Z:     0.0000

  Dipole Moment: [e a0]
     X:    -1.2407      Y:     1.3299      Z:     0.0000     Total:     1.8187

  Dipole Moment: [D]
     X:    -3.1534      Y:     3.3802      Z:     0.0000     Total:     4.6227


*** tstop() called on node142.bme.utexas.edu at Wed Nov  4 12:02:30 2020
Module time:
	user time   =      84.94 seconds =       1.42 minutes
	system time =       2.89 seconds =       0.05 minutes
	total time  =         14 seconds =       0.23 minutes
Total time:
	user time   =     125.66 seconds =       2.09 minutes
	system time =       5.33 seconds =       0.09 minutes
	total time  =         22 seconds =       0.37 minutes

    Psi4 stopped on: Wednesday, 04 November 2020 12:02PM
    Psi4 wall time for execution: 0:00:22.47

*** Psi4 exiting successfully. Buy a developer a beer!
