
    -----------------------------------------------------------------------
          Psi4: An Open-Source Ab Initio Electronic Structure Package
                               Psi4 1.3.2 release

                         Git: Rev {HEAD} ecbda83 


    R. M. Parrish, L. A. Burns, D. G. A. Smith, A. C. Simmonett,
    A. E. DePrince III, E. G. Hohenstein, U. Bozkaya, A. Yu. Sokolov,
    R. Di Remigio, R. M. Richard, J. F. Gonthier, A. M. James,
    H. R. McAlexander, A. Kumar, M. Saitow, X. Wang, B. P. Pritchard,
    P. Verma, H. F. Schaefer III, K. Patkowski, R. A. King, E. F. Valeev,
    F. A. Evangelista, J. M. Turney, T. D. Crawford, and C. D. Sherrill,
    J. Chem. Theory Comput. 13(7) pp 3185--3197 (2017).
    (doi: 10.1021/acs.jctc.7b00174)


                         Additional Contributions by
    P. Kraus, H. Kruse, M. H. Lechner, M. C. Schieber, R. A. Shaw,
    A. Alenaizan, R. Galvelis, Z. L. Glick, S. Lehtola, and J. P. Misiewicz

    -----------------------------------------------------------------------


    Psi4 started on: Tuesday, 03 November 2020 05:40PM

    Process ID: 29898
    Host:       node37.bme.utexas.edu
    PSIDATADIR: /home/xy3866/psi4conda/share/psi4
    Memory:     500.0 MiB
    Threads:    8
    
  ==> Input File <==

--------------------------------------------------------------------------
#psi4
#
memory 32 gb

molecule  {
0 1
  O       -0.0063431    -0.6057575    -0.1877030
  O        1.3565350     1.0092090     0.6922610
  C       -1.1649080     0.1839100     0.2068510
  C       -1.4179200     1.2632690    -0.8279250
  C       -2.2843308    -0.8276298     0.3192866
  C        1.2071900    -0.0583260     0.1211490
  C        2.3131480    -0.9859210    -0.3056480
  H       -0.9474970     0.6396690     1.1762190
  H       -2.3155240     1.8326500    -0.5690360
  H       -0.5734580     1.9518970    -0.8732450
  H       -1.5650280     0.8097800    -1.8115960
  H       -3.2117410    -0.3160520     0.6373810
  H       -2.0484320    -1.5899530     1.0551950
  H       -2.4714270    -1.2985150    -0.6417240
  H        2.2239110    -1.2047570    -1.3723200
  H        2.2280730    -1.9316170     0.2368100
  H        3.2753640    -0.5218720    -0.0948010
units angstrom
no_reorient  #important for SAPT in psi4, default
symmetry c1  #important for SAPT in psi4, default
}

set PROPERTIES_ORIGIN ["COM"]
properties('MP2/aug-cc-pvtz', properties = ['dipole'])
--------------------------------------------------------------------------

  Memory set to  29.802 GiB by Python driver.
    SCF Algorithm Type (re)set to DF.

*** tstart() called on node37.bme.utexas.edu
*** at Tue Nov  3 17:40:26 2020

   => Loading Basis Set <=

    Name: AUG-CC-PVTZ
    Role: ORBITAL
    Keyword: BASIS
    atoms 1-2  entry O          line   327 file /home/xy3866/psi4conda/share/psi4/basis/aug-cc-pvtz.gbs 
    atoms 3-7  entry C          line   235 file /home/xy3866/psi4conda/share/psi4/basis/aug-cc-pvtz.gbs 
    atoms 8-17 entry H          line    36 file /home/xy3866/psi4conda/share/psi4/basis/aug-cc-pvtz.gbs 


         ---------------------------------------------------------
                                   SCF
               by Justin Turney, Rob Parrish, Andy Simmonett
                          and Daniel G. A. Smith
                              RHF Reference
                        8 Threads,  30517 MiB Core
         ---------------------------------------------------------

  ==> Geometry <==

    Molecular point group: c1
    Full point group: C1

    Geometry (in Angstrom), charge = 0, multiplicity = 1:

       Center              X                  Y                   Z               Mass       
    ------------   -----------------  -----------------  -----------------  -----------------
         O           -0.006208830031    -0.602968023767    -0.187312538233    15.994914619570
         O            1.356669269969     1.011998476233     0.692651461767    15.994914619570
         C           -1.164773730031     0.186699476233     0.207241461767    12.000000000000
         C           -1.417785730031     1.266058476233    -0.827534538233    12.000000000000
         C           -2.284196530031    -0.824840323767     0.319677061767    12.000000000000
         C            1.207324269969    -0.055536523767     0.121539461767    12.000000000000
         C            2.313282269969    -0.983131523767    -0.305257538233    12.000000000000
         H           -0.947362730031     0.642458476233     1.176609461767     1.007825032230
         H           -2.315389730031     1.835439476233    -0.568645538233     1.007825032230
         H           -0.573323730031     1.954686476233    -0.872854538233     1.007825032230
         H           -1.564893730031     0.812569476233    -1.811205538233     1.007825032230
         H           -3.211606730031    -0.313262523767     0.637771461767     1.007825032230
         H           -2.048297730031    -1.587163523767     1.055585461767     1.007825032230
         H           -2.471292730031    -1.295725523767    -0.641333538233     1.007825032230
         H            2.224045269969    -1.201967523767    -1.371929538233     1.007825032230
         H            2.228207269969    -1.928827523767     0.237200461767     1.007825032230
         H            3.275498269969    -0.519082523767    -0.094410538233     1.007825032230

  Running in c1 symmetry.

  Rotational constants: A =      0.15719  B =      0.05707  C =      0.04886 [cm^-1]
  Rotational constants: A =   4712.49917  B =   1710.78600  C =   1464.86528 [MHz]
  Nuclear repulsion =  320.981920607377390

  Charge       = 0
  Multiplicity = 1
  Electrons    = 56
  Nalpha       = 28
  Nbeta        = 28

  ==> Algorithm <==

  SCF Algorithm Type is DF.
  DIIS enabled.
  MOM disabled.
  Fractional occupation disabled.
  Guess Type is SAD.
  Energy threshold   = 1.00e-10
  Density threshold  = 1.00e-10
  Integral threshold = 0.00e+00

  ==> Primary Basis <==

  Basis Set: AUG-CC-PVTZ
    Blend: AUG-CC-PVTZ
    Number of shells: 188
    Number of basis function: 552
    Number of Cartesian functions: 635
    Spherical Harmonics?: true
    Max angular momentum: 3

   => Loading Basis Set <=

    Name: (AUG-CC-PVTZ AUX)
    Role: JKFIT
    Keyword: DF_BASIS_SCF
    atoms 1-2  entry O          line   286 file /home/xy3866/psi4conda/share/psi4/basis/aug-cc-pvtz-jkfit.gbs 
    atoms 3-7  entry C          line   162 file /home/xy3866/psi4conda/share/psi4/basis/aug-cc-pvtz-jkfit.gbs 
    atoms 8-17 entry H          line    70 file /home/xy3866/psi4conda/share/psi4/basis/aug-cc-pvtz-jkfit.gbs 

  ==> Pre-Iterations <==

   -------------------------------------------------------
    Irrep   Nso     Nmo     Nalpha   Nbeta   Ndocc  Nsocc
   -------------------------------------------------------
     A        552     552       0       0       0       0
   -------------------------------------------------------
    Total     552     552      28      28      28       0
   -------------------------------------------------------

  ==> Integral Setup <==

  DFHelper Memory: AOs need 2.682 GiB; user supplied 22.352 GiB. Using in-core AOs.

  ==> MemDFJK: Density-Fitted J/K Matrices <==

    J tasked:                   Yes
    K tasked:                   Yes
    wK tasked:                   No
    OpenMP threads:               8
    Memory [MiB]:             22888
    Algorithm:                 Disk
    Schwarz Cutoff:           1E-12
    Mask sparsity (%):       3.9094
    Fitting Condition:        1E-10

   => Auxiliary Basis Set <=

  Basis Set: (AUG-CC-PVTZ AUX)
    Blend: AUG-CC-PVTZ-JKFIT
    Number of shells: 350
    Number of basis function: 1188
    Number of Cartesian functions: 1467
    Spherical Harmonics?: true
    Max angular momentum: 4

  Minimum eigenvalue in the overlap matrix is 6.3573196370E-06.
  Using Symmetric Orthogonalization.

  SCF Guess: Superposition of Atomic Densities via on-the-fly atomic UHF.

  ==> Iterations <==

                           Total Energy        Delta E     RMS |[F,P]|

   @DF-RHF iter SAD:  -344.00095321133705   -3.44001e+02   0.00000e+00 
   @DF-RHF iter   1:  -344.75962288075755   -7.58670e-01   1.32081e-03 DIIS
   @DF-RHF iter   2:  -344.97914183422364   -2.19519e-01   7.12475e-04 DIIS
   @DF-RHF iter   3:  -345.03556768769602   -5.64259e-02   1.54583e-04 DIIS
   @DF-RHF iter   4:  -345.03978367950356   -4.21599e-03   6.56761e-05 DIIS
   @DF-RHF iter   5:  -345.04059202831968   -8.08349e-04   1.35415e-05 DIIS
   @DF-RHF iter   6:  -345.04063956175617   -4.75334e-05   6.88191e-06 DIIS
   @DF-RHF iter   7:  -345.04065134494505   -1.17832e-05   2.21312e-06 DIIS
   @DF-RHF iter   8:  -345.04065344857776   -2.10363e-06   9.36362e-07 DIIS
   @DF-RHF iter   9:  -345.04065382436352   -3.75786e-07   2.76853e-07 DIIS
   @DF-RHF iter  10:  -345.04065385837362   -3.40101e-08   7.13104e-08 DIIS
   @DF-RHF iter  11:  -345.04065386026502   -1.89141e-09   2.15698e-08 DIIS
   @DF-RHF iter  12:  -345.04065386039230   -1.27272e-10   5.77178e-09 DIIS
   @DF-RHF iter  13:  -345.04065386040321   -1.09139e-11   1.76042e-09 DIIS
   @DF-RHF iter  14:  -345.04065386040463   -1.42109e-12   7.13216e-10 DIIS
   @DF-RHF iter  15:  -345.04065386040639   -1.76215e-12   2.37411e-10 DIIS
   @DF-RHF iter  16:  -345.04065386040526    1.13687e-12   1.04437e-10 DIIS
   @DF-RHF iter  17:  -345.04065386040611   -8.52651e-13   4.73497e-11 DIIS
  Energy and wave function converged.


  ==> Post-Iterations <==

    Orbital Energies [Eh]
    ---------------------

    Doubly Occupied:                                                      

       1A    -20.596356     2A    -20.544162     3A    -11.382493  
       4A    -11.289919     5A    -11.240636     6A    -11.220557  
       7A    -11.217081     8A     -1.445958     9A     -1.351105  
      10A     -1.074358    11A     -1.006141    12A     -0.945589  
      13A     -0.834498    14A     -0.765284    15A     -0.692590  
      16A     -0.663953    17A     -0.653559    18A     -0.611565  
      19A     -0.586183    20A     -0.577308    21A     -0.561247  
      22A     -0.548970    23A     -0.531030    24A     -0.518288  
      25A     -0.503018    26A     -0.483372    27A     -0.453515  
      28A     -0.442549  

    Virtual:                                                              

      29A      0.028416    30A      0.034065    31A      0.037474  
      32A      0.041750    33A      0.052602    34A      0.054041  
      35A      0.057493    36A      0.063697    37A      0.064778  
      38A      0.074374    39A      0.092977    40A      0.110472  
      41A      0.113578    42A      0.118058    43A      0.124042  
      44A      0.127573    45A      0.128202    46A      0.130556  
      47A      0.139219    48A      0.142251    49A      0.147019  
      50A      0.150051    51A      0.155453    52A      0.159826  
      53A      0.165288    54A      0.169048    55A      0.176356  
      56A      0.190520    57A      0.196748    58A      0.207031  
      59A      0.213499    60A      0.217159    61A      0.224512  
      62A      0.238208    63A      0.248819    64A      0.250413  
      65A      0.259434    66A      0.276011    67A      0.280517  
      68A      0.285589    69A      0.296423    70A      0.298498  
      71A      0.300531    72A      0.309671    73A      0.313664  
      74A      0.320738    75A      0.326517    76A      0.330280  
      77A      0.337976    78A      0.339011    79A      0.346871  
      80A      0.348599    81A      0.355800    82A      0.361863  
      83A      0.363700    84A      0.368381    85A      0.372920  
      86A      0.379780    87A      0.389932    88A      0.395529  
      89A      0.399073    90A      0.401780    91A      0.407489  
      92A      0.414682    93A      0.418131    94A      0.423050  
      95A      0.427461    96A      0.436863    97A      0.442488  
      98A      0.447659    99A      0.451759   100A      0.457845  
     101A      0.464093   102A      0.465346   103A      0.469374  
     104A      0.470107   105A      0.474895   106A      0.480404  
     107A      0.486801   108A      0.490845   109A      0.501831  
     110A      0.507841   111A      0.518651   112A      0.522605  
     113A      0.525861   114A      0.530808   115A      0.538069  
     116A      0.544620   117A      0.551453   118A      0.553776  
     119A      0.554800   120A      0.561959   121A      0.569541  
     122A      0.574743   123A      0.587374   124A      0.591982  
     125A      0.605064   126A      0.615287   127A      0.623175  
     128A      0.630467   129A      0.635442   130A      0.643978  
     131A      0.651874   132A      0.677822   133A      0.682561  
     134A      0.684843   135A      0.703018   136A      0.707254  
     137A      0.720205   138A      0.737111   139A      0.752082  
     140A      0.756110   141A      0.782485   142A      0.787667  
     143A      0.792100   144A      0.807556   145A      0.810616  
     146A      0.817349   147A      0.825065   148A      0.830089  
     149A      0.834711   150A      0.844149   151A      0.852653  
     152A      0.856553   153A      0.873810   154A      0.874177  
     155A      0.881088   156A      0.888710   157A      0.890797  
     158A      0.894836   159A      0.900919   160A      0.905922  
     161A      0.914458   162A      0.923459   163A      0.929293  
     164A      0.929985   165A      0.940100   166A      0.948610  
     167A      0.955764   168A      0.960993   169A      0.965691  
     170A      0.973919   171A      0.983363   172A      0.992555  
     173A      0.994533   174A      1.001194   175A      1.006395  
     176A      1.012309   177A      1.027929   178A      1.043404  
     179A      1.044794   180A      1.054672   181A      1.066255  
     182A      1.069498   183A      1.073179   184A      1.080502  
     185A      1.087627   186A      1.097296   187A      1.101549  
     188A      1.111435   189A      1.126843   190A      1.127672  
     191A      1.136874   192A      1.139435   193A      1.148957  
     194A      1.150175   195A      1.167560   196A      1.169705  
     197A      1.175799   198A      1.188875   199A      1.198382  
     200A      1.204283   201A      1.206556   202A      1.224183  
     203A      1.227077   204A      1.231772   205A      1.238831  
     206A      1.248705   207A      1.251797   208A      1.264208  
     209A      1.273825   210A      1.278219   211A      1.283940  
     212A      1.294927   213A      1.305847   214A      1.317689  
     215A      1.324111   216A      1.337388   217A      1.347278  
     218A      1.372241   219A      1.375053   220A      1.394701  
     221A      1.401088   222A      1.414748   223A      1.420901  
     224A      1.428359   225A      1.437971   226A      1.457679  
     227A      1.462932   228A      1.477843   229A      1.485433  
     230A      1.493787   231A      1.495554   232A      1.509789  
     233A      1.518532   234A      1.520841   235A      1.532670  
     236A      1.547936   237A      1.556861   238A      1.566697  
     239A      1.573439   240A      1.588898   241A      1.610413  
     242A      1.616700   243A      1.622121   244A      1.626764  
     245A      1.635481   246A      1.648547   247A      1.651937  
     248A      1.662322   249A      1.672415   250A      1.692332  
     251A      1.696945   252A      1.703879   253A      1.714833  
     254A      1.720410   255A      1.727922   256A      1.731240  
     257A      1.740794   258A      1.749706   259A      1.752445  
     260A      1.762363   261A      1.775988   262A      1.779391  
     263A      1.785985   264A      1.795073   265A      1.811142  
     266A      1.829065   267A      1.838707   268A      1.849097  
     269A      1.856509   270A      1.869413   271A      1.872123  
     272A      1.884024   273A      1.894020   274A      1.912806  
     275A      1.916084   276A      1.922747   277A      1.927982  
     278A      1.958471   279A      1.960665   280A      1.973111  
     281A      1.975561   282A      1.994702   283A      1.995360  
     284A      2.008894   285A      2.028544   286A      2.052331  
     287A      2.059998   288A      2.068598   289A      2.075292  
     290A      2.118980   291A      2.128485   292A      2.149712  
     293A      2.160400   294A      2.174687   295A      2.187494  
     296A      2.200394   297A      2.209860   298A      2.216763  
     299A      2.224921   300A      2.227809   301A      2.235639  
     302A      2.249003   303A      2.254193   304A      2.266385  
     305A      2.286670   306A      2.296647   307A      2.308355  
     308A      2.342683   309A      2.356512   310A      2.365606  
     311A      2.375759   312A      2.392707   313A      2.425080  
     314A      2.445824   315A      2.476696   316A      2.495148  
     317A      2.515085   318A      2.528946   319A      2.547869  
     320A      2.564927   321A      2.584881   322A      2.619518  
     323A      2.644957   324A      2.657545   325A      2.683903  
     326A      2.690808   327A      2.712585   328A      2.735319  
     329A      2.747209   330A      2.771605   331A      2.792316  
     332A      2.814470   333A      2.847589   334A      2.879566  
     335A      2.897210   336A      2.929474   337A      2.949628  
     338A      2.959113   339A      2.993081   340A      3.020387  
     341A      3.069632   342A      3.076968   343A      3.108711  
     344A      3.132270   345A      3.147523   346A      3.194724  
     347A      3.222757   348A      3.276379   349A      3.314480  
     350A      3.337814   351A      3.355242   352A      3.381212  
     353A      3.402821   354A      3.413212   355A      3.431761  
     356A      3.444874   357A      3.450144   358A      3.485603  
     359A      3.504460   360A      3.514135   361A      3.534565  
     362A      3.546591   363A      3.558894   364A      3.589116  
     365A      3.617276   366A      3.626832   367A      3.639693  
     368A      3.651258   369A      3.660888   370A      3.680971  
     371A      3.682655   372A      3.703927   373A      3.709947  
     374A      3.728669   375A      3.732674   376A      3.752411  
     377A      3.765728   378A      3.785544   379A      3.787732  
     380A      3.795943   381A      3.812892   382A      3.835637  
     383A      3.848753   384A      3.853642   385A      3.886890  
     386A      3.903471   387A      3.920772   388A      3.924811  
     389A      3.939767   390A      3.949737   391A      3.957714  
     392A      3.966250   393A      3.971543   394A      3.982393  
     395A      3.997982   396A      4.002450   397A      4.010789  
     398A      4.032912   399A      4.043320   400A      4.053317  
     401A      4.061304   402A      4.080174   403A      4.105595  
     404A      4.109822   405A      4.118690   406A      4.154927  
     407A      4.172949   408A      4.183922   409A      4.203803  
     410A      4.210471   411A      4.220159   412A      4.228509  
     413A      4.235192   414A      4.255405   415A      4.285792  
     416A      4.292438   417A      4.312450   418A      4.329246  
     419A      4.340445   420A      4.343832   421A      4.356315  
     422A      4.360663   423A      4.392626   424A      4.395978  
     425A      4.418961   426A      4.438331   427A      4.474516  
     428A      4.492432   429A      4.500761   430A      4.523045  
     431A      4.556806   432A      4.564141   433A      4.576460  
     434A      4.607319   435A      4.618527   436A      4.620249  
     437A      4.659209   438A      4.670365   439A      4.686528  
     440A      4.702954   441A      4.741567   442A      4.758820  
     443A      4.767540   444A      4.811345   445A      4.821491  
     446A      4.833461   447A      4.841212   448A      4.854924  
     449A      4.872458   450A      4.891553   451A      4.910402  
     452A      4.926217   453A      4.937059   454A      4.955021  
     455A      4.971655   456A      4.991720   457A      5.018716  
     458A      5.038470   459A      5.054033   460A      5.078523  
     461A      5.094834   462A      5.101264   463A      5.133724  
     464A      5.139671   465A      5.165914   466A      5.183751  
     467A      5.188406   468A      5.215578   469A      5.224594  
     470A      5.262959   471A      5.275015   472A      5.312051  
     473A      5.319577   474A      5.351582   475A      5.356013  
     476A      5.365032   477A      5.408094   478A      5.436493  
     479A      5.444826   480A      5.451783   481A      5.475770  
     482A      5.484237   483A      5.496314   484A      5.503818  
     485A      5.540203   486A      5.548111   487A      5.615309  
     488A      5.630914   489A      5.655216   490A      5.664841  
     491A      5.677245   492A      5.715148   493A      5.748089  
     494A      5.791099   495A      5.803236   496A      5.844086  
     497A      5.863450   498A      5.913644   499A      5.957249  
     500A      5.972670   501A      6.054425   502A      6.079358  
     503A      6.082472   504A      6.110827   505A      6.119594  
     506A      6.175860   507A      6.192820   508A      6.216735  
     509A      6.228150   510A      6.282945   511A      6.302256  
     512A      6.355983   513A      6.394465   514A      6.646885  
     515A      6.674363   516A      6.714126   517A      6.769216  
     518A      6.806027   519A      6.814005   520A      6.822689  
     521A      6.873441   522A      6.887244   523A      6.913124  
     524A      6.976842   525A      6.987173   526A      7.070291  
     527A      7.104424   528A      7.172283   529A      7.251990  
     530A      7.281157   531A      7.347353   532A      7.385434  
     533A      7.452979   534A      7.517070   535A      7.551654  
     536A      7.644655   537A      7.678658   538A      7.732012  
     539A      7.800023   540A      7.845666   541A      7.964629  
     542A      7.997271   543A      8.082894   544A      8.351409  
     545A      8.552005   546A     15.234818   547A     15.966637  
     548A     17.608410   549A     18.140886   550A     18.219804  
     551A     19.366495   552A     19.887143  

    Final Occupation by Irrep:
              A 
    DOCC [    28 ]

  @DF-RHF Final Energy:  -345.04065386040611

   => Energetics <=

    Nuclear Repulsion Energy =            320.9819206073773898
    One-Electron Energy =               -1106.5625836064225496
    Two-Electron Energy =                 440.5400091386391068
    Total Energy =                       -345.0406538604061097

Computation Completed

*** tstop() called on node37.bme.utexas.edu at Tue Nov  3 17:41:29 2020
Module time:
	user time   =     225.40 seconds =       3.76 minutes
	system time =      51.91 seconds =       0.87 minutes
	total time  =         63 seconds =       1.05 minutes
Total time:
	user time   =     225.40 seconds =       3.76 minutes
	system time =      51.91 seconds =       0.87 minutes
	total time  =         63 seconds =       1.05 minutes
   => Loading Basis Set <=

    Name: (AUG-CC-PVTZ AUX)
    Role: RIFIT
    Keyword: DF_BASIS_MP2
    atoms 1-2  entry O          line   264 file /home/xy3866/psi4conda/share/psi4/basis/aug-cc-pvtz-ri.gbs 
    atoms 3-7  entry C          line   148 file /home/xy3866/psi4conda/share/psi4/basis/aug-cc-pvtz-ri.gbs 
    atoms 8-17 entry H          line    30 file /home/xy3866/psi4conda/share/psi4/basis/aug-cc-pvtz-ri.gbs 


*** tstart() called on node37.bme.utexas.edu
*** at Tue Nov  3 17:41:29 2020


  //>>>>>>>>>>>>>>>>>>>>>>>>>>>>>>>>>>>//
  //               DFMP2               //
  //<<<<<<<<<<<<<<<<<<<<<<<<<<<<<<<<<<<//

	 --------------------------------------------------------
	                          DF-MP2                         
	      2nd-Order Density-Fitted Moller-Plesset Theory     
	              RMP2 Wavefunction,   8 Threads             
	                                                         
	        Rob Parrish, Justin Turney, Andy Simmonett,      
	           Ed Hohenstein, and C. David Sherrill          
	 --------------------------------------------------------

   => Auxiliary Basis Set <=

  Basis Set: (AUG-CC-PVTZ AUX)
    Blend: AUG-CC-PVTZ-RI
    Number of shells: 336
    Number of basis function: 1202
    Number of Cartesian functions: 1502
    Spherical Harmonics?: true
    Max angular momentum: 4

	 --------------------------------------------------------
	                 NBF =   552, NAUX =  1202
	 --------------------------------------------------------
	   CLASS    FOCC     OCC    AOCC    AVIR     VIR    FVIR
	   PAIRS       0      28      28     524     524       0
	 --------------------------------------------------------

  DFHelper Memory: AOs need 2.682 GiB; user supplied 22.352 GiB. Using in-core AOs.


         ------------------------------------------------------------
                                     CPHF                           
                                  Rob Parrish                       
         ------------------------------------------------------------

  ==> Geometry <==

    Molecular point group: c1
    Full point group: C1

    Geometry (in Angstrom), charge = 0, multiplicity = 1:

       Center              X                  Y                   Z               Mass       
    ------------   -----------------  -----------------  -----------------  -----------------
         O           -0.006208830031    -0.602968023767    -0.187312538233    15.994914619570
         O            1.356669269969     1.011998476233     0.692651461767    15.994914619570
         C           -1.164773730031     0.186699476233     0.207241461767    12.000000000000
         C           -1.417785730031     1.266058476233    -0.827534538233    12.000000000000
         C           -2.284196530031    -0.824840323767     0.319677061767    12.000000000000
         C            1.207324269969    -0.055536523767     0.121539461767    12.000000000000
         C            2.313282269969    -0.983131523767    -0.305257538233    12.000000000000
         H           -0.947362730031     0.642458476233     1.176609461767     1.007825032230
         H           -2.315389730031     1.835439476233    -0.568645538233     1.007825032230
         H           -0.573323730031     1.954686476233    -0.872854538233     1.007825032230
         H           -1.564893730031     0.812569476233    -1.811205538233     1.007825032230
         H           -3.211606730031    -0.313262523767     0.637771461767     1.007825032230
         H           -2.048297730031    -1.587163523767     1.055585461767     1.007825032230
         H           -2.471292730031    -1.295725523767    -0.641333538233     1.007825032230
         H            2.224045269969    -1.201967523767    -1.371929538233     1.007825032230
         H            2.228207269969    -1.928827523767     0.237200461767     1.007825032230
         H            3.275498269969    -0.519082523767    -0.094410538233     1.007825032230

  Nuclear repulsion =  320.981920607377390
  Reference energy  = -345.040653860406110

  ==> Basis Set <==

  Basis Set: AUG-CC-PVTZ
    Blend: AUG-CC-PVTZ
    Number of shells: 188
    Number of basis function: 552
    Number of Cartesian functions: 635
    Spherical Harmonics?: true
    Max angular momentum: 3

  ==> CGRSolver (by Rob Parrish) <==

   Number of roots    =         1
   Preconditioning    =    JACOBI
   Convergence cutoff =     1E-06
   Maximum iterations =       100

  ==> CPHFRHamiltonian (by Rob Parrish) <== 

  ==> MemDFJK: Density-Fitted J/K Matrices <==

    J tasked:                   Yes
    K tasked:                   Yes
    wK tasked:                   No
    OpenMP threads:               8
    Memory [MiB]:             22888
    Algorithm:                 Disk
    Schwarz Cutoff:           1E-12
    Mask sparsity (%):       3.9094
    Fitting Condition:        1E-10

   => Auxiliary Basis Set <=

  Basis Set: (AUG-CC-PVTZ AUX)
    Blend: AUG-CC-PVTZ-JKFIT
    Number of shells: 350
    Number of basis function: 1188
    Number of Cartesian functions: 1467
    Spherical Harmonics?: true
    Max angular momentum: 4

  ==> CPHF Iterations <==

  => Iterations <=

             Iter  Converged  Remaining    Residual
  CGR           1          0          1   1.113E-01
  CGR           2          0          1   3.186E-02
  CGR           3          0          1   1.228E-02
  CGR           4          0          1   4.180E-03
  CGR           5          0          1   1.517E-03
  CGR           6          0          1   3.659E-04
  CGR           7          0          1   1.183E-04
  CGR           8          0          1   3.914E-05
  CGR           9          0          1   1.337E-05
  CGR          10          0          1   5.778E-06
  CGR          11          0          1   1.718E-06
  CGR          12          1          0   5.455E-07

    CGRSolver converged.

	-----------------------------------------------------------
	 ==================> DF-MP2 Energies <==================== 
	-----------------------------------------------------------
	 Reference Energy          =    -345.0406538604061097 [Eh]
	 Singles Energy            =      -0.0000000000000000 [Eh]
	 Same-Spin Energy          =      -0.3416598503590272 [Eh]
	 Opposite-Spin Energy      =      -1.1327506206818267 [Eh]
	 Correlation Energy        =      -1.4744104710408539 [Eh]
	 Total Energy              =    -346.5150643314469789 [Eh]
	-----------------------------------------------------------
	 ================> DF-SCS-MP2 Energies <================== 
	-----------------------------------------------------------
	 SCS Same-Spin Scale       =       0.3333333333333333 [-]
	 SCS Opposite-Spin Scale   =       1.2000000000000000 [-]
	 SCS Same-Spin Energy      =      -0.1138866167863424 [Eh]
	 SCS Opposite-Spin Energy  =      -1.3593007448181920 [Eh]
	 SCS Correlation Energy    =      -1.4731873616045343 [Eh]
	 SCS Total Energy          =    -346.5138412220106261 [Eh]
	-----------------------------------------------------------



Properties will be evaluated at   0.000000,  -0.000000,   0.000000 [a0]

Properties computed using the MP2 density matrix

  Nuclear Dipole Moment: [e a0]
     X:    -5.0600      Y:    -1.4988      Z:    -2.1099

  Electronic Dipole Moment: [e a0]
     X:     4.6941      Y:     0.9706      Z:     1.8177

  Dipole Moment: [e a0]
     X:    -0.3659      Y:    -0.5282      Z:    -0.2922     Total:     0.7058

  Dipole Moment: [D]
     X:    -0.9299      Y:    -1.3425      Z:    -0.7427     Total:     1.7941


*** tstop() called on node37.bme.utexas.edu at Tue Nov  3 17:43:23 2020
Module time:
	user time   =     540.69 seconds =       9.01 minutes
	system time =      83.74 seconds =       1.40 minutes
	total time  =        114 seconds =       1.90 minutes
Total time:
	user time   =     767.34 seconds =      12.79 minutes
	system time =     135.73 seconds =       2.26 minutes
	total time  =        177 seconds =       2.95 minutes

    Psi4 stopped on: Tuesday, 03 November 2020 05:43PM
    Psi4 wall time for execution: 0:02:57.75

*** Psi4 exiting successfully. Buy a developer a beer!
