
    -----------------------------------------------------------------------
          Psi4: An Open-Source Ab Initio Electronic Structure Package
                               Psi4 1.3.2 release

                         Git: Rev {HEAD} ecbda83 


    R. M. Parrish, L. A. Burns, D. G. A. Smith, A. C. Simmonett,
    A. E. DePrince III, E. G. Hohenstein, U. Bozkaya, A. Yu. Sokolov,
    R. Di Remigio, R. M. Richard, J. F. Gonthier, A. M. James,
    H. R. McAlexander, A. Kumar, M. Saitow, X. Wang, B. P. Pritchard,
    P. Verma, H. F. Schaefer III, K. Patkowski, R. A. King, E. F. Valeev,
    F. A. Evangelista, J. M. Turney, T. D. Crawford, and C. D. Sherrill,
    J. Chem. Theory Comput. 13(7) pp 3185--3197 (2017).
    (doi: 10.1021/acs.jctc.7b00174)


                         Additional Contributions by
    P. Kraus, H. Kruse, M. H. Lechner, M. C. Schieber, R. A. Shaw,
    A. Alenaizan, R. Galvelis, Z. L. Glick, S. Lehtola, and J. P. Misiewicz

    -----------------------------------------------------------------------


    Psi4 started on: Tuesday, 03 November 2020 05:37PM

    Process ID: 29482
    Host:       node37.bme.utexas.edu
    PSIDATADIR: /home/xy3866/psi4conda/share/psi4
    Memory:     500.0 MiB
    Threads:    8
    
  ==> Input File <==

--------------------------------------------------------------------------
#psi4
#
memory 32 gb

molecule  {
0 1
  O       -0.0086601    -0.6373795    -0.1249543
  O        1.3565350     1.0092090     0.6922610
  C       -1.1649080     0.1839100     0.2068510
  C       -1.4802249     1.2870483    -0.7848412
  C       -2.2926420    -0.8179640     0.3227230
  C        1.2071900    -0.0583260     0.1211490
  C        2.3131480    -0.9859210    -0.3056480
  H       -0.9474970     0.6396690     1.1762190
  H       -2.3155240     1.8326500    -0.5690360
  H       -0.5734580     1.9518970    -0.8732450
  H       -1.5650280     0.8097800    -1.8115960
  H       -3.2117410    -0.3160520     0.6373810
  H       -2.0484320    -1.5899530     1.0551950
  H       -2.4714270    -1.2985150    -0.6417240
  H        2.2239110    -1.2047570    -1.3723200
  H        2.2280730    -1.9316170     0.2368100
  H        3.2753640    -0.5218720    -0.0948010
units angstrom
no_reorient  #important for SAPT in psi4, default
symmetry c1  #important for SAPT in psi4, default
}

set PROPERTIES_ORIGIN ["COM"]
properties('MP2/aug-cc-pvtz', properties = ['dipole'])
--------------------------------------------------------------------------

  Memory set to  29.802 GiB by Python driver.
    SCF Algorithm Type (re)set to DF.

*** tstart() called on node37.bme.utexas.edu
*** at Tue Nov  3 17:37:18 2020

   => Loading Basis Set <=

    Name: AUG-CC-PVTZ
    Role: ORBITAL
    Keyword: BASIS
    atoms 1-2  entry O          line   327 file /home/xy3866/psi4conda/share/psi4/basis/aug-cc-pvtz.gbs 
    atoms 3-7  entry C          line   235 file /home/xy3866/psi4conda/share/psi4/basis/aug-cc-pvtz.gbs 
    atoms 8-17 entry H          line    36 file /home/xy3866/psi4conda/share/psi4/basis/aug-cc-pvtz.gbs 


         ---------------------------------------------------------
                                   SCF
               by Justin Turney, Rob Parrish, Andy Simmonett
                          and Daniel G. A. Smith
                              RHF Reference
                        8 Threads,  30517 MiB Core
         ---------------------------------------------------------

  ==> Geometry <==

    Molecular point group: c1
    Full point group: C1

    Geometry (in Angstrom), charge = 0, multiplicity = 1:

       Center              X                  Y                   Z               Mass       
    ------------   -----------------  -----------------  -----------------  -----------------
         O            0.000139498257    -0.633566687279    -0.139866394191    15.994914619570
         O            1.365334598257     1.013021812721     0.677348905809    15.994914619570
         C           -1.156108401743     0.187722812721     0.191938905809    12.000000000000
         C           -1.471425301743     1.290861112721    -0.799753294191    12.000000000000
         C           -2.283842401743    -0.814151187279     0.307810905809    12.000000000000
         C            1.215989598257    -0.054513187279     0.106236905809    12.000000000000
         C            2.321947598257    -0.982108187279    -0.320560094191    12.000000000000
         H           -0.938697401743     0.643481812721     1.161306905809     1.007825032230
         H           -2.306724401743     1.836462812721    -0.583948094191     1.007825032230
         H           -0.564658401743     1.955709812721    -0.888157094191     1.007825032230
         H           -1.556228401743     0.813592812721    -1.826508094191     1.007825032230
         H           -3.202941401743    -0.312239187279     0.622468905809     1.007825032230
         H           -2.039632401743    -1.586140187279     1.040282905809     1.007825032230
         H           -2.462627401743    -1.294702187279    -0.656636094191     1.007825032230
         H            2.232710598257    -1.200944187279    -1.387232094191     1.007825032230
         H            2.236872598257    -1.927804187279     0.221897905809     1.007825032230
         H            3.284163598257    -0.518059187279    -0.109713094191     1.007825032230

  Running in c1 symmetry.

  Rotational constants: A =      0.15751  B =      0.05673  C =      0.04834 [cm^-1]
  Rotational constants: A =   4722.06627  B =   1700.81515  C =   1449.07395 [MHz]
  Nuclear repulsion =  320.445017232524265

  Charge       = 0
  Multiplicity = 1
  Electrons    = 56
  Nalpha       = 28
  Nbeta        = 28

  ==> Algorithm <==

  SCF Algorithm Type is DF.
  DIIS enabled.
  MOM disabled.
  Fractional occupation disabled.
  Guess Type is SAD.
  Energy threshold   = 1.00e-10
  Density threshold  = 1.00e-10
  Integral threshold = 0.00e+00

  ==> Primary Basis <==

  Basis Set: AUG-CC-PVTZ
    Blend: AUG-CC-PVTZ
    Number of shells: 188
    Number of basis function: 552
    Number of Cartesian functions: 635
    Spherical Harmonics?: true
    Max angular momentum: 3

   => Loading Basis Set <=

    Name: (AUG-CC-PVTZ AUX)
    Role: JKFIT
    Keyword: DF_BASIS_SCF
    atoms 1-2  entry O          line   286 file /home/xy3866/psi4conda/share/psi4/basis/aug-cc-pvtz-jkfit.gbs 
    atoms 3-7  entry C          line   162 file /home/xy3866/psi4conda/share/psi4/basis/aug-cc-pvtz-jkfit.gbs 
    atoms 8-17 entry H          line    70 file /home/xy3866/psi4conda/share/psi4/basis/aug-cc-pvtz-jkfit.gbs 

  ==> Pre-Iterations <==

   -------------------------------------------------------
    Irrep   Nso     Nmo     Nalpha   Nbeta   Ndocc  Nsocc
   -------------------------------------------------------
     A        552     552       0       0       0       0
   -------------------------------------------------------
    Total     552     552      28      28      28       0
   -------------------------------------------------------

  ==> Integral Setup <==

  DFHelper Memory: AOs need 2.681 GiB; user supplied 22.352 GiB. Using in-core AOs.

  ==> MemDFJK: Density-Fitted J/K Matrices <==

    J tasked:                   Yes
    K tasked:                   Yes
    wK tasked:                   No
    OpenMP threads:               8
    Memory [MiB]:             22888
    Algorithm:                 Disk
    Schwarz Cutoff:           1E-12
    Mask sparsity (%):       3.9284
    Fitting Condition:        1E-10

   => Auxiliary Basis Set <=

  Basis Set: (AUG-CC-PVTZ AUX)
    Blend: AUG-CC-PVTZ-JKFIT
    Number of shells: 350
    Number of basis function: 1188
    Number of Cartesian functions: 1467
    Spherical Harmonics?: true
    Max angular momentum: 4

  Minimum eigenvalue in the overlap matrix is 7.0118440260E-06.
  Using Symmetric Orthogonalization.

  SCF Guess: Superposition of Atomic Densities via on-the-fly atomic UHF.

  ==> Iterations <==

                           Total Energy        Delta E     RMS |[F,P]|

   @DF-RHF iter SAD:  -343.98883052001594   -3.43989e+02   0.00000e+00 
   @DF-RHF iter   1:  -344.74924406650729   -7.60414e-01   1.32335e-03 DIIS
   @DF-RHF iter   2:  -344.96888067902063   -2.19637e-01   7.17999e-04 DIIS
   @DF-RHF iter   3:  -345.02629677015534   -5.74161e-02   1.56646e-04 DIIS
   @DF-RHF iter   4:  -345.03058528041277   -4.28851e-03   6.70051e-05 DIIS
   @DF-RHF iter   5:  -345.03142239398096   -8.37114e-04   1.34981e-05 DIIS
   @DF-RHF iter   6:  -345.03147090740032   -4.85134e-05   6.81237e-06 DIIS
   @DF-RHF iter   7:  -345.03148288717858   -1.19798e-05   2.24993e-06 DIIS
   @DF-RHF iter   8:  -345.03148503552421   -2.14835e-06   9.62480e-07 DIIS
   @DF-RHF iter   9:  -345.03148542688916   -3.91365e-07   2.81452e-07 DIIS
   @DF-RHF iter  10:  -345.03148546243938   -3.55502e-08   7.09371e-08 DIIS
   @DF-RHF iter  11:  -345.03148546430964   -1.87026e-09   2.22850e-08 DIIS
   @DF-RHF iter  12:  -345.03148546444299   -1.33355e-10   5.97084e-09 DIIS
   @DF-RHF iter  13:  -345.03148546445510   -1.21076e-11   1.77323e-09 DIIS
   @DF-RHF iter  14:  -345.03148546445567   -5.68434e-13   7.06609e-10 DIIS
   @DF-RHF iter  15:  -345.03148546445607   -3.97904e-13   2.28459e-10 DIIS
   @DF-RHF iter  16:  -345.03148546445829   -2.21689e-12   1.00718e-10 DIIS
   @DF-RHF iter  17:  -345.03148546445601    2.27374e-12   4.51531e-11 DIIS
  Energy and wave function converged.


  ==> Post-Iterations <==

    Orbital Energies [Eh]
    ---------------------

    Doubly Occupied:                                                      

       1A    -20.599061     2A    -20.545508     3A    -11.383651  
       4A    -11.289913     5A    -11.241441     6A    -11.219808  
       7A    -11.218614     8A     -1.446374     9A     -1.351879  
      10A     -1.075010    11A     -1.007791    12A     -0.945076  
      13A     -0.836173    14A     -0.763282    15A     -0.692888  
      16A     -0.665738    17A     -0.656542    18A     -0.609523  
      19A     -0.595047    20A     -0.578635    21A     -0.557565  
      22A     -0.543922    23A     -0.533945    24A     -0.528389  
      25A     -0.497992    26A     -0.473590    27A     -0.456063  
      28A     -0.441063  

    Virtual:                                                              

      29A      0.028503    30A      0.033810    31A      0.037608  
      32A      0.041754    33A      0.052539    34A      0.053864  
      35A      0.057124    36A      0.064601    37A      0.065070  
      38A      0.073997    39A      0.092992    40A      0.110633  
      41A      0.113769    42A      0.117906    43A      0.123699  
      44A      0.127610    45A      0.128549    46A      0.131101  
      47A      0.138370    48A      0.142353    49A      0.147581  
      50A      0.149124    51A      0.155470    52A      0.159176  
      53A      0.165638    54A      0.168968    55A      0.175604  
      56A      0.190158    57A      0.196934    58A      0.206346  
      59A      0.212947    60A      0.216657    61A      0.224638  
      62A      0.237474    63A      0.248086    64A      0.252317  
      65A      0.258813    66A      0.275465    67A      0.280601  
      68A      0.286323    69A      0.295114    70A      0.298593  
      71A      0.300712    72A      0.309857    73A      0.313761  
      74A      0.320537    75A      0.326248    76A      0.330351  
      77A      0.337422    78A      0.338690    79A      0.347534  
      80A      0.348335    81A      0.354641    82A      0.361507  
      83A      0.362831    84A      0.368614    85A      0.372991  
      86A      0.379958    87A      0.390519    88A      0.396086  
      89A      0.398286    90A      0.400626    91A      0.406880  
      92A      0.412966    93A      0.417340    94A      0.421553  
      95A      0.427333    96A      0.434723    97A      0.443904  
      98A      0.447207    99A      0.452775   100A      0.458065  
     101A      0.463630   102A      0.466902   103A      0.470196  
     104A      0.473620   105A      0.475815   106A      0.477039  
     107A      0.485567   108A      0.491353   109A      0.501553  
     110A      0.509102   111A      0.517887   112A      0.522014  
     113A      0.525656   114A      0.531035   115A      0.536072  
     116A      0.544411   117A      0.550780   118A      0.554211  
     119A      0.555402   120A      0.562559   121A      0.569459  
     122A      0.572894   123A      0.589731   124A      0.591321  
     125A      0.603726   126A      0.617071   127A      0.622866  
     128A      0.630302   129A      0.635962   130A      0.643826  
     131A      0.651994   132A      0.677675   133A      0.683398  
     134A      0.685430   135A      0.704907   136A      0.708071  
     137A      0.720206   138A      0.738117   139A      0.752565  
     140A      0.757282   141A      0.780396   142A      0.787009  
     143A      0.795458   144A      0.803485   145A      0.809874  
     146A      0.816929   147A      0.820426   148A      0.827847  
     149A      0.832328   150A      0.839977   151A      0.852772  
     152A      0.857007   153A      0.869909   154A      0.873905  
     155A      0.877429   156A      0.885033   157A      0.893423  
     158A      0.894147   159A      0.900523   160A      0.906723  
     161A      0.915154   162A      0.920910   163A      0.930965  
     164A      0.932026   165A      0.942028   166A      0.949546  
     167A      0.957394   168A      0.960192   169A      0.965425  
     170A      0.967852   171A      0.983294   172A      0.991740  
     173A      0.994384   174A      1.003079   175A      1.008943  
     176A      1.011642   177A      1.028993   178A      1.044829  
     179A      1.047651   180A      1.055312   181A      1.064786  
     182A      1.067765   183A      1.069246   184A      1.080379  
     185A      1.088800   186A      1.093946   187A      1.106889  
     188A      1.112613   189A      1.125466   190A      1.128459  
     191A      1.135705   192A      1.139742   193A      1.147359  
     194A      1.154230   195A      1.167582   196A      1.170695  
     197A      1.178260   198A      1.188618   199A      1.198377  
     200A      1.202052   201A      1.209546   202A      1.223421  
     203A      1.225412   204A      1.230190   205A      1.242973  
     206A      1.247030   207A      1.250115   208A      1.264827  
     209A      1.271989   210A      1.275169   211A      1.283919  
     212A      1.294865   213A      1.304159   214A      1.318799  
     215A      1.324567   216A      1.341272   217A      1.350996  
     218A      1.370289   219A      1.376140   220A      1.397304  
     221A      1.399015   222A      1.410953   223A      1.414082  
     224A      1.428417   225A      1.438022   226A      1.454713  
     227A      1.463817   228A      1.474146   229A      1.488048  
     230A      1.497779   231A      1.501567   232A      1.511114  
     233A      1.516221   234A      1.519115   235A      1.527776  
     236A      1.546046   237A      1.558246   238A      1.569305  
     239A      1.575914   240A      1.589566   241A      1.608684  
     242A      1.616055   243A      1.622460   244A      1.626082  
     245A      1.634233   246A      1.647160   247A      1.650994  
     248A      1.662036   249A      1.669889   250A      1.687039  
     251A      1.694032   252A      1.707548   253A      1.713867  
     254A      1.720581   255A      1.726165   256A      1.730740  
     257A      1.735742   258A      1.749987   259A      1.751687  
     260A      1.761453   261A      1.777205   262A      1.783735  
     263A      1.785321   264A      1.794393   265A      1.810534  
     266A      1.834687   267A      1.838483   268A      1.853112  
     269A      1.856417   270A      1.869351   271A      1.874739  
     272A      1.884606   273A      1.896398   274A      1.906816  
     275A      1.913598   276A      1.917736   277A      1.933624  
     278A      1.957511   279A      1.964055   280A      1.972329  
     281A      1.974278   282A      1.992303   283A      1.995613  
     284A      2.015428   285A      2.023809   286A      2.046188  
     287A      2.057410   288A      2.063230   289A      2.080153  
     290A      2.117092   291A      2.133259   292A      2.138172  
     293A      2.147894   294A      2.176827   295A      2.194435  
     296A      2.199029   297A      2.204160   298A      2.213691  
     299A      2.229687   300A      2.231525   301A      2.232716  
     302A      2.245436   303A      2.251638   304A      2.271433  
     305A      2.286035   306A      2.292627   307A      2.315635  
     308A      2.334038   309A      2.347328   310A      2.368179  
     311A      2.375796   312A      2.394156   313A      2.411629  
     314A      2.448279   315A      2.482370   316A      2.498483  
     317A      2.509984   318A      2.521949   319A      2.543388  
     320A      2.558499   321A      2.582171   322A      2.633509  
     323A      2.645491   324A      2.650225   325A      2.680565  
     326A      2.686158   327A      2.715211   328A      2.730776  
     329A      2.749278   330A      2.772097   331A      2.788842  
     332A      2.816213   333A      2.834508   334A      2.878912  
     335A      2.906738   336A      2.931711   337A      2.950618  
     338A      2.962206   339A      3.013518   340A      3.015522  
     341A      3.066604   342A      3.076866   343A      3.115748  
     344A      3.126524   345A      3.163251   346A      3.187175  
     347A      3.207857   348A      3.277978   349A      3.313298  
     350A      3.337643   351A      3.358420   352A      3.374902  
     353A      3.397962   354A      3.413608   355A      3.429626  
     356A      3.436848   357A      3.463720   358A      3.488370  
     359A      3.501918   360A      3.510893   361A      3.529199  
     362A      3.554134   363A      3.567291   364A      3.603941  
     365A      3.615756   366A      3.627092   367A      3.640402  
     368A      3.651626   369A      3.657775   370A      3.671723  
     371A      3.688456   372A      3.696593   373A      3.708755  
     374A      3.720023   375A      3.732556   376A      3.751678  
     377A      3.767850   378A      3.775927   379A      3.787620  
     380A      3.792590   381A      3.813487   382A      3.822249  
     383A      3.852166   384A      3.872009   385A      3.881203  
     386A      3.896044   387A      3.912384   388A      3.926230  
     389A      3.941025   390A      3.949638   391A      3.953428  
     392A      3.962799   393A      3.966751   394A      3.979197  
     395A      3.987036   396A      3.999754   397A      4.016971  
     398A      4.035763   399A      4.038693   400A      4.055565  
     401A      4.061334   402A      4.077660   403A      4.095847  
     404A      4.105231   405A      4.117803   406A      4.143658  
     407A      4.161030   408A      4.174222   409A      4.201385  
     410A      4.207183   411A      4.215075   412A      4.218949  
     413A      4.235572   414A      4.271534   415A      4.272991  
     416A      4.284186   417A      4.322683   418A      4.329390  
     419A      4.331581   420A      4.347881   421A      4.360476  
     422A      4.381321   423A      4.383434   424A      4.400504  
     425A      4.422289   426A      4.440839   427A      4.480504  
     428A      4.481694   429A      4.500102   430A      4.529097  
     431A      4.554083   432A      4.563890   433A      4.578156  
     434A      4.594811   435A      4.616952   436A      4.621379  
     437A      4.670024   438A      4.679573   439A      4.688542  
     440A      4.703012   441A      4.741557   442A      4.759008  
     443A      4.771844   444A      4.805597   445A      4.813953  
     446A      4.818819   447A      4.822320   448A      4.856333  
     449A      4.861336   450A      4.893374   451A      4.900121  
     452A      4.932822   453A      4.937495   454A      4.967217  
     455A      4.981418   456A      4.990397   457A      4.998939  
     458A      5.028998   459A      5.046293   460A      5.076180  
     461A      5.094299   462A      5.103525   463A      5.135185  
     464A      5.149240   465A      5.166503   466A      5.167737  
     467A      5.191749   468A      5.230628   469A      5.238278  
     470A      5.251915   471A      5.274467   472A      5.303434  
     473A      5.312786   474A      5.345440   475A      5.360463  
     476A      5.377555   477A      5.402956   478A      5.416195  
     479A      5.437142   480A      5.452297   481A      5.465288  
     482A      5.482086   483A      5.506130   484A      5.528529  
     485A      5.549272   486A      5.577280   487A      5.602000  
     488A      5.626708   489A      5.641040   490A      5.669170  
     491A      5.699451   492A      5.739043   493A      5.769269  
     494A      5.793713   495A      5.806866   496A      5.846962  
     497A      5.875025   498A      5.922471   499A      5.943203  
     500A      5.975631   501A      6.034359   502A      6.057089  
     503A      6.092206   504A      6.110032   505A      6.118212  
     506A      6.167929   507A      6.171309   508A      6.199520  
     509A      6.270551   510A      6.289702   511A      6.351751  
     512A      6.370117   513A      6.427948   514A      6.650811  
     515A      6.670752   516A      6.714025   517A      6.770379  
     518A      6.793673   519A      6.815034   520A      6.823474  
     521A      6.870476   522A      6.886264   523A      6.909625  
     524A      6.974464   525A      6.998466   526A      7.060904  
     527A      7.102825   528A      7.172520   529A      7.252233  
     530A      7.291887   531A      7.339743   532A      7.383455  
     533A      7.449707   534A      7.510472   535A      7.555868  
     536A      7.631271   537A      7.674909   538A      7.733201  
     539A      7.802751   540A      7.848409   541A      7.962859  
     542A      7.970890   543A      8.081108   544A      8.362103  
     545A      8.548043   546A     15.185212   547A     15.930097  
     548A     17.612756   549A     18.017441   550A     18.382138  
     551A     19.330486   552A     19.858155  

    Final Occupation by Irrep:
              A 
    DOCC [    28 ]

  @DF-RHF Final Energy:  -345.03148546445601

   => Energetics <=

    Nuclear Repulsion Energy =            320.4450172325242647
    One-Electron Energy =               -1105.4440371477730878
    Two-Electron Energy =                 439.9675344507928116
    Total Energy =                       -345.0314854644560114

Computation Completed

*** tstop() called on node37.bme.utexas.edu at Tue Nov  3 17:38:23 2020
Module time:
	user time   =     215.59 seconds =       3.59 minutes
	system time =      47.48 seconds =       0.79 minutes
	total time  =         65 seconds =       1.08 minutes
Total time:
	user time   =     215.59 seconds =       3.59 minutes
	system time =      47.48 seconds =       0.79 minutes
	total time  =         65 seconds =       1.08 minutes
   => Loading Basis Set <=

    Name: (AUG-CC-PVTZ AUX)
    Role: RIFIT
    Keyword: DF_BASIS_MP2
    atoms 1-2  entry O          line   264 file /home/xy3866/psi4conda/share/psi4/basis/aug-cc-pvtz-ri.gbs 
    atoms 3-7  entry C          line   148 file /home/xy3866/psi4conda/share/psi4/basis/aug-cc-pvtz-ri.gbs 
    atoms 8-17 entry H          line    30 file /home/xy3866/psi4conda/share/psi4/basis/aug-cc-pvtz-ri.gbs 


*** tstart() called on node37.bme.utexas.edu
*** at Tue Nov  3 17:38:23 2020


  //>>>>>>>>>>>>>>>>>>>>>>>>>>>>>>>>>>>//
  //               DFMP2               //
  //<<<<<<<<<<<<<<<<<<<<<<<<<<<<<<<<<<<//

	 --------------------------------------------------------
	                          DF-MP2                         
	      2nd-Order Density-Fitted Moller-Plesset Theory     
	              RMP2 Wavefunction,   8 Threads             
	                                                         
	        Rob Parrish, Justin Turney, Andy Simmonett,      
	           Ed Hohenstein, and C. David Sherrill          
	 --------------------------------------------------------

   => Auxiliary Basis Set <=

  Basis Set: (AUG-CC-PVTZ AUX)
    Blend: AUG-CC-PVTZ-RI
    Number of shells: 336
    Number of basis function: 1202
    Number of Cartesian functions: 1502
    Spherical Harmonics?: true
    Max angular momentum: 4

	 --------------------------------------------------------
	                 NBF =   552, NAUX =  1202
	 --------------------------------------------------------
	   CLASS    FOCC     OCC    AOCC    AVIR     VIR    FVIR
	   PAIRS       0      28      28     524     524       0
	 --------------------------------------------------------

  DFHelper Memory: AOs need 2.681 GiB; user supplied 22.352 GiB. Using in-core AOs.


         ------------------------------------------------------------
                                     CPHF                           
                                  Rob Parrish                       
         ------------------------------------------------------------

  ==> Geometry <==

    Molecular point group: c1
    Full point group: C1

    Geometry (in Angstrom), charge = 0, multiplicity = 1:

       Center              X                  Y                   Z               Mass       
    ------------   -----------------  -----------------  -----------------  -----------------
         O            0.000139498257    -0.633566687279    -0.139866394191    15.994914619570
         O            1.365334598257     1.013021812721     0.677348905809    15.994914619570
         C           -1.156108401743     0.187722812721     0.191938905809    12.000000000000
         C           -1.471425301743     1.290861112721    -0.799753294191    12.000000000000
         C           -2.283842401743    -0.814151187279     0.307810905809    12.000000000000
         C            1.215989598257    -0.054513187279     0.106236905809    12.000000000000
         C            2.321947598257    -0.982108187279    -0.320560094191    12.000000000000
         H           -0.938697401743     0.643481812721     1.161306905809     1.007825032230
         H           -2.306724401743     1.836462812721    -0.583948094191     1.007825032230
         H           -0.564658401743     1.955709812721    -0.888157094191     1.007825032230
         H           -1.556228401743     0.813592812721    -1.826508094191     1.007825032230
         H           -3.202941401743    -0.312239187279     0.622468905809     1.007825032230
         H           -2.039632401743    -1.586140187279     1.040282905809     1.007825032230
         H           -2.462627401743    -1.294702187279    -0.656636094191     1.007825032230
         H            2.232710598257    -1.200944187279    -1.387232094191     1.007825032230
         H            2.236872598257    -1.927804187279     0.221897905809     1.007825032230
         H            3.284163598257    -0.518059187279    -0.109713094191     1.007825032230

  Nuclear repulsion =  320.445017232524265
  Reference energy  = -345.031485464456011

  ==> Basis Set <==

  Basis Set: AUG-CC-PVTZ
    Blend: AUG-CC-PVTZ
    Number of shells: 188
    Number of basis function: 552
    Number of Cartesian functions: 635
    Spherical Harmonics?: true
    Max angular momentum: 3

  ==> CGRSolver (by Rob Parrish) <==

   Number of roots    =         1
   Preconditioning    =    JACOBI
   Convergence cutoff =     1E-06
   Maximum iterations =       100

  ==> CPHFRHamiltonian (by Rob Parrish) <== 

  ==> MemDFJK: Density-Fitted J/K Matrices <==

    J tasked:                   Yes
    K tasked:                   Yes
    wK tasked:                   No
    OpenMP threads:               8
    Memory [MiB]:             22888
    Algorithm:                 Disk
    Schwarz Cutoff:           1E-12
    Mask sparsity (%):       3.9284
    Fitting Condition:        1E-10

   => Auxiliary Basis Set <=

  Basis Set: (AUG-CC-PVTZ AUX)
    Blend: AUG-CC-PVTZ-JKFIT
    Number of shells: 350
    Number of basis function: 1188
    Number of Cartesian functions: 1467
    Spherical Harmonics?: true
    Max angular momentum: 4

  ==> CPHF Iterations <==

  => Iterations <=

             Iter  Converged  Remaining    Residual
  CGR           1          0          1   1.111E-01
  CGR           2          0          1   3.178E-02
  CGR           3          0          1   1.220E-02
  CGR           4          0          1   4.178E-03
  CGR           5          0          1   1.510E-03
  CGR           6          0          1   3.571E-04
  CGR           7          0          1   1.145E-04
  CGR           8          0          1   3.413E-05
  CGR           9          0          1   9.977E-06
  CGR          10          0          1   4.443E-06
  CGR          11          0          1   1.489E-06
  CGR          12          1          0   4.553E-07

    CGRSolver converged.

	-----------------------------------------------------------
	 ==================> DF-MP2 Energies <==================== 
	-----------------------------------------------------------
	 Reference Energy          =    -345.0314854644560114 [Eh]
	 Singles Energy            =      -0.0000000000000000 [Eh]
	 Same-Spin Energy          =      -0.3418213185807939 [Eh]
	 Opposite-Spin Energy      =      -1.1332576235302019 [Eh]
	 Correlation Energy        =      -1.4750789421109958 [Eh]
	 Total Energy              =    -346.5065644065670085 [Eh]
	-----------------------------------------------------------
	 ================> DF-SCS-MP2 Energies <================== 
	-----------------------------------------------------------
	 SCS Same-Spin Scale       =       0.3333333333333333 [-]
	 SCS Opposite-Spin Scale   =       1.2000000000000000 [-]
	 SCS Same-Spin Energy      =      -0.1139404395269313 [Eh]
	 SCS Opposite-Spin Energy  =      -1.3599091482362422 [Eh]
	 SCS Correlation Energy    =      -1.4738495877631734 [Eh]
	 SCS Total Energy          =    -346.5053350522192090 [Eh]
	-----------------------------------------------------------



Properties will be evaluated at  -0.000000,   0.000000,  -0.000000 [a0]

Properties computed using the MP2 density matrix

  Nuclear Dipole Moment: [e a0]
     X:    -4.9787      Y:    -1.4894      Z:    -2.2532

  Electronic Dipole Moment: [e a0]
     X:     4.6370      Y:     0.9925      Z:     1.9379

  Dipole Moment: [e a0]
     X:    -0.3416      Y:    -0.4969      Z:    -0.3153     Total:     0.6804

  Dipole Moment: [D]
     X:    -0.8684      Y:    -1.2629      Z:    -0.8014     Total:     1.7295


*** tstop() called on node37.bme.utexas.edu at Tue Nov  3 17:40:16 2020
Module time:
	user time   =     533.08 seconds =       8.88 minutes
	system time =      63.45 seconds =       1.06 minutes
	total time  =        113 seconds =       1.88 minutes
Total time:
	user time   =     749.89 seconds =      12.50 minutes
	system time =     111.04 seconds =       1.85 minutes
	total time  =        178 seconds =       2.97 minutes

    Psi4 stopped on: Tuesday, 03 November 2020 05:40PM
    Psi4 wall time for execution: 0:02:58.69

*** Psi4 exiting successfully. Buy a developer a beer!
