opt=Tight                                                               
Freq      RMP2-FC                                                     6-31G(d)            
Number of atoms                            I               13
Info1-9                                    I   N=           9
          22          22        1002           0           0         100
           6           2           1
Charge                                     I                0
Multiplicity                               I                1
Number of electrons                        I               48
Number of alpha electrons                  I               24
Number of beta electrons                   I               24
Number of basis functions                  I              104
Number of independent functions            I              104
Number of point charges in /Mol/           I                0
Number of translation vectors              I                0
Atomic numbers                             I   N=          13
           8           8           7           6           6           6
           1           1           1           1           1           1
           1
Nuclear charges                            R   N=          13
  8.00000000E+00  8.00000000E+00  7.00000000E+00  6.00000000E+00  6.00000000E+00
  6.00000000E+00  1.00000000E+00  1.00000000E+00  1.00000000E+00  1.00000000E+00
  1.00000000E+00  1.00000000E+00  1.00000000E+00
Current cartesian coordinates              R   N=          39
  3.00283152E+00  2.01259046E+00  2.20264588E-01  2.44594812E+00 -2.20585275E+00
 -5.15133675E-01 -2.27667590E+00 -2.24125299E+00  8.22805656E-02 -1.11237406E+00
  2.58386034E-01  7.68081076E-01 -2.43254430E+00  2.44257874E+00 -5.32562619E-01
  1.74300969E+00  1.79391702E-02  7.48029192E-02 -1.26338585E+00  4.36836652E-01
  2.82068459E+00 -3.29917459E+00 -2.16089049E+00 -1.56031663E+00 -3.41105583E+00
 -2.99285187E+00  1.45615682E+00 -4.41656398E+00  2.57941003E+00  2.61405816E-02
 -1.46671472E+00  4.18387445E+00 -5.57469209E-03 -2.32244885E+00  2.24052922E+00
 -2.58776073E+00 -6.62719396E-01 -3.36546996E+00 -2.28254350E-01
Force Field                                I                0
Int Atom Types                             I   N=          13
           0           0           0           0           0           0
           0           0           0           0           0           0
           0
MM charges                                 R   N=          13
  0.00000000E+00  0.00000000E+00  0.00000000E+00  0.00000000E+00  0.00000000E+00
  0.00000000E+00  0.00000000E+00  0.00000000E+00  0.00000000E+00  0.00000000E+00
  0.00000000E+00  0.00000000E+00  0.00000000E+00
Integer atomic weights                     I   N=          13
          16          16          14          12          12          12
           1           1           1           1           1           1
           1
Real atomic weights                        R   N=          13
  1.59949146E+01  1.59949146E+01  1.40030740E+01  1.20000000E+01  1.20000000E+01
  1.20000000E+01  1.00782504E+00  1.00782504E+00  1.00782504E+00  1.00782504E+00
  1.00782504E+00  1.00782504E+00  1.00782504E+00
Atom fragment info                         I   N=          13
           0           0           0           0           0           0
           0           0           0           0           0           0
           0
Atom residue num                           I   N=          13
           0           0           0           0           0           0
           0           0           0           0           0           0
           0
Nuclear spins                              I   N=          13
           0           0           2           0           0           0
           1           1           1           1           1           1
           1
Nuclear ZEff                               R   N=          13
 -5.60000000E+00 -5.60000000E+00 -4.55000000E+00 -3.60000000E+00 -3.60000000E+00
 -3.60000000E+00 -1.00000000E+00 -1.00000000E+00 -1.00000000E+00 -1.00000000E+00
 -1.00000000E+00 -1.00000000E+00 -1.00000000E+00
Nuclear QMom                               R   N=          13
  0.00000000E+00  0.00000000E+00  2.04400000E+00  0.00000000E+00  0.00000000E+00
  0.00000000E+00  0.00000000E+00  0.00000000E+00  0.00000000E+00  0.00000000E+00
  0.00000000E+00  0.00000000E+00  0.00000000E+00
Nuclear GFac                               R   N=          13
  0.00000000E+00  0.00000000E+00  4.03761000E-01  0.00000000E+00  0.00000000E+00
  0.00000000E+00  2.79284600E+00  2.79284600E+00  2.79284600E+00  2.79284600E+00
  2.79284600E+00  2.79284600E+00  2.79284600E+00
MicOpt                                     I   N=          13
          -1          -1          -1          -1          -1          -1
          -1          -1          -1          -1          -1          -1
          -1
Number of contracted shells                I               38
Number of primitive shells                 I               94
Pure/Cartesian d shells                    I                1
Pure/Cartesian f shells                    I                0
Highest angular momentum                   I                2
Largest degree of contraction              I                6
Shell types                                I   N=          38
           0          -1          -1           2           0          -1
          -1           2           0          -1          -1           2
           0          -1          -1           2           0          -1
          -1           2           0          -1          -1           2
           0           0           0           0           0           0
           0           0           0           0           0           0
           0           0
Number of primitives per shell             I   N=          38
           6           3           1           1           6           3
           1           1           6           3           1           1
           6           3           1           1           6           3
           1           1           6           3           1           1
           3           1           3           1           3           1
           3           1           3           1           3           1
           3           1
Shell to atom map                          I   N=          38
           1           1           1           1           2           2
           2           2           3           3           3           3
           4           4           4           4           5           5
           5           5           6           6           6           6
           7           7           8           8           9           9
          10          10          11          11          12          12
          13          13
Primitive exponents                        R   N=          94
  5.48467166E+03  8.25234946E+02  1.88046958E+02  5.29645000E+01  1.68975704E+01
  5.79963534E+00  1.55396162E+01  3.59993359E+00  1.01376175E+00  2.70005823E-01
  8.00000000E-01  5.48467166E+03  8.25234946E+02  1.88046958E+02  5.29645000E+01
  1.68975704E+01  5.79963534E+00  1.55396162E+01  3.59993359E+00  1.01376175E+00
  2.70005823E-01  8.00000000E-01  4.17351146E+03  6.27457911E+02  1.42902093E+02
  4.02343293E+01  1.28202129E+01  4.39043701E+00  1.16263619E+01  2.71627981E+00
  7.72218397E-01  2.12031498E-01  8.00000000E-01  3.04752488E+03  4.57369518E+02
  1.03948685E+02  2.92101553E+01  9.28666296E+00  3.16392696E+00  7.86827235E+00
  1.88128854E+00  5.44249258E-01  1.68714478E-01  8.00000000E-01  3.04752488E+03
  4.57369518E+02  1.03948685E+02  2.92101553E+01  9.28666296E+00  3.16392696E+00
  7.86827235E+00  1.88128854E+00  5.44249258E-01  1.68714478E-01  8.00000000E-01
  3.04752488E+03  4.57369518E+02  1.03948685E+02  2.92101553E+01  9.28666296E+00
  3.16392696E+00  7.86827235E+00  1.88128854E+00  5.44249258E-01  1.68714478E-01
  8.00000000E-01  1.87311370E+01  2.82539436E+00  6.40121692E-01  1.61277759E-01
  1.87311370E+01  2.82539436E+00  6.40121692E-01  1.61277759E-01  1.87311370E+01
  2.82539436E+00  6.40121692E-01  1.61277759E-01  1.87311370E+01  2.82539436E+00
  6.40121692E-01  1.61277759E-01  1.87311370E+01  2.82539436E+00  6.40121692E-01
  1.61277759E-01  1.87311370E+01  2.82539436E+00  6.40121692E-01  1.61277759E-01
  1.87311370E+01  2.82539436E+00  6.40121692E-01  1.61277759E-01
Contraction coefficients                   R   N=          94
  1.83107443E-03  1.39501722E-02  6.84450781E-02  2.32714336E-01  4.70192898E-01
  3.58520853E-01 -1.10777550E-01 -1.48026263E-01  1.13076702E+00  1.00000000E+00
  1.00000000E+00  1.83107443E-03  1.39501722E-02  6.84450781E-02  2.32714336E-01
  4.70192898E-01  3.58520853E-01 -1.10777550E-01 -1.48026263E-01  1.13076702E+00
  1.00000000E+00  1.00000000E+00  1.83477216E-03  1.39946270E-02  6.85865518E-02
  2.32240873E-01  4.69069948E-01  3.60455199E-01 -1.14961182E-01 -1.69117479E-01
  1.14585195E+00  1.00000000E+00  1.00000000E+00  1.83473713E-03  1.40373228E-02
  6.88426223E-02  2.32184443E-01  4.67941348E-01  3.62311985E-01 -1.19332420E-01
 -1.60854152E-01  1.14345644E+00  1.00000000E+00  1.00000000E+00  1.83473713E-03
  1.40373228E-02  6.88426223E-02  2.32184443E-01  4.67941348E-01  3.62311985E-01
 -1.19332420E-01 -1.60854152E-01  1.14345644E+00  1.00000000E+00  1.00000000E+00
  1.83473713E-03  1.40373228E-02  6.88426223E-02  2.32184443E-01  4.67941348E-01
  3.62311985E-01 -1.19332420E-01 -1.60854152E-01  1.14345644E+00  1.00000000E+00
  1.00000000E+00  3.34946043E-02  2.34726953E-01  8.13757326E-01  1.00000000E+00
  3.34946043E-02  2.34726953E-01  8.13757326E-01  1.00000000E+00  3.34946043E-02
  2.34726953E-01  8.13757326E-01  1.00000000E+00  3.34946043E-02  2.34726953E-01
  8.13757326E-01  1.00000000E+00  3.34946043E-02  2.34726953E-01  8.13757326E-01
  1.00000000E+00  3.34946043E-02  2.34726953E-01  8.13757326E-01  1.00000000E+00
  3.34946043E-02  2.34726953E-01  8.13757326E-01  1.00000000E+00
P(S=P) Contraction coefficients            R   N=          94
  0.00000000E+00  0.00000000E+00  0.00000000E+00  0.00000000E+00  0.00000000E+00
  0.00000000E+00  7.08742682E-02  3.39752839E-01  7.27158577E-01  1.00000000E+00
  0.00000000E+00  0.00000000E+00  0.00000000E+00  0.00000000E+00  0.00000000E+00
  0.00000000E+00  0.00000000E+00  7.08742682E-02  3.39752839E-01  7.27158577E-01
  1.00000000E+00  0.00000000E+00  0.00000000E+00  0.00000000E+00  0.00000000E+00
  0.00000000E+00  0.00000000E+00  0.00000000E+00  6.75797439E-02  3.23907296E-01
  7.40895140E-01  1.00000000E+00  0.00000000E+00  0.00000000E+00  0.00000000E+00
  0.00000000E+00  0.00000000E+00  0.00000000E+00  0.00000000E+00  6.89990666E-02
  3.16423961E-01  7.44308291E-01  1.00000000E+00  0.00000000E+00  0.00000000E+00
  0.00000000E+00  0.00000000E+00  0.00000000E+00  0.00000000E+00  0.00000000E+00
  6.89990666E-02  3.16423961E-01  7.44308291E-01  1.00000000E+00  0.00000000E+00
  0.00000000E+00  0.00000000E+00  0.00000000E+00  0.00000000E+00  0.00000000E+00
  0.00000000E+00  6.89990666E-02  3.16423961E-01  7.44308291E-01  1.00000000E+00
  0.00000000E+00  0.00000000E+00  0.00000000E+00  0.00000000E+00  0.00000000E+00
  0.00000000E+00  0.00000000E+00  0.00000000E+00  0.00000000E+00  0.00000000E+00
  0.00000000E+00  0.00000000E+00  0.00000000E+00  0.00000000E+00  0.00000000E+00
  0.00000000E+00  0.00000000E+00  0.00000000E+00  0.00000000E+00  0.00000000E+00
  0.00000000E+00  0.00000000E+00  0.00000000E+00  0.00000000E+00  0.00000000E+00
  0.00000000E+00  0.00000000E+00  0.00000000E+00  0.00000000E+00
Coordinates of each shell                  R   N=         114
  3.00283177E+00  2.01259053E+00  2.20264273E-01  3.00283177E+00  2.01259053E+00
  2.20264273E-01  3.00283177E+00  2.01259053E+00  2.20264273E-01  3.00283177E+00
  2.01259053E+00  2.20264273E-01  2.44594825E+00 -2.20585266E+00 -5.15133990E-01
  2.44594825E+00 -2.20585266E+00 -5.15133990E-01  2.44594825E+00 -2.20585266E+00
 -5.15133990E-01  2.44594825E+00 -2.20585266E+00 -5.15133990E-01 -2.27667577E+00
 -2.24125276E+00  8.22802506E-02 -2.27667577E+00 -2.24125276E+00  8.22802506E-02
 -2.27667577E+00 -2.24125276E+00  8.22802506E-02 -2.27667577E+00 -2.24125276E+00
  8.22802506E-02 -1.11237386E+00  2.58386224E-01  7.68080761E-01 -1.11237386E+00
  2.58386224E-01  7.68080761E-01 -1.11237386E+00  2.58386224E-01  7.68080761E-01
 -1.11237386E+00  2.58386224E-01  7.68080761E-01 -2.43254403E+00  2.44257897E+00
 -5.32562934E-01 -2.43254403E+00  2.44257897E+00 -5.32562934E-01 -2.43254403E+00
  2.44257897E+00 -5.32562934E-01 -2.43254403E+00  2.44257897E+00 -5.32562934E-01
  1.74300988E+00  1.79392765E-02  7.48026043E-02  1.74300988E+00  1.79392765E-02
  7.48026043E-02  1.74300988E+00  1.79392765E-02  7.48026043E-02  1.74300988E+00
  1.79392765E-02  7.48026043E-02 -1.26338565E+00  4.36836846E-01  2.82068428E+00
 -1.26338565E+00  4.36836846E-01  2.82068428E+00 -3.29917446E+00 -2.16089024E+00
 -1.56031695E+00 -3.29917446E+00 -2.16089024E+00 -1.56031695E+00 -3.41105572E+00
 -2.99285162E+00  1.45615650E+00 -3.41105572E+00 -2.99285162E+00  1.45615650E+00
 -4.41656371E+00  2.57941032E+00  2.61402666E-02 -4.41656371E+00  2.57941032E+00
  2.61402666E-02 -1.46671440E+00  4.18387465E+00 -5.57500705E-03 -1.46671440E+00
  4.18387465E+00 -5.57500705E-03 -2.32244859E+00  2.24052945E+00 -2.58776105E+00
 -2.32244859E+00  2.24052945E+00 -2.58776105E+00 -6.62719298E-01 -3.36546978E+00
 -2.28254665E-01 -6.62719298E-01 -3.36546978E+00 -2.28254665E-01
Constraint Structure                       R   N=          39
  3.00283177E+00  2.01259053E+00  2.20264273E-01  2.44594825E+00 -2.20585266E+00
 -5.15133990E-01 -2.27667577E+00 -2.24125276E+00  8.22802506E-02 -1.11237386E+00
  2.58386224E-01  7.68080761E-01 -2.43254403E+00  2.44257897E+00 -5.32562934E-01
  1.74300988E+00  1.79392765E-02  7.48026043E-02 -1.26338565E+00  4.36836846E-01
  2.82068428E+00 -3.29917446E+00 -2.16089024E+00 -1.56031695E+00 -3.41105572E+00
 -2.99285162E+00  1.45615650E+00 -4.41656371E+00  2.57941032E+00  2.61402666E-02
 -1.46671440E+00  4.18387465E+00 -5.57500705E-03 -2.32244859E+00  2.24052945E+00
 -2.58776105E+00 -6.62719298E-01 -3.36546978E+00 -2.28254665E-01
Num ILSW                                   I              100
ILSW                                       I   N=         100
           0           1           0           1           2           0
           0           0           0           0           0          -1
           0           0           0           0           0           0
           0           0           0           0           1           0
           1           0           0           0           0           0
           0           0      100000           0          -1           0
           0           0           0           0           0           0
           0           0           0           1           1           0
           0           0           1           0           0           0
           0           0           4          40           0           0
           0           0           0           0           0           0
           0           0           0           0           0           0
           0           0           0           0           0           0
           0           0           0           0           0           0
           0           0           0           0           0           0
           0           0           0           0           0           0
           0           0           0           0
Num RLSW                                   I               40
RLSW                                       R   N=          40
  1.00000000E+00  1.00000000E+00  1.00000000E+00  1.00000000E+00  1.00000000E+00
  0.00000000E+00  0.00000000E+00  1.00000000E+00  0.00000000E+00  0.00000000E+00
  0.00000000E+00  0.00000000E+00  1.00000000E+00  0.00000000E+00  0.00000000E+00
  0.00000000E+00  0.00000000E+00  1.00000000E+00  0.00000000E+00  0.00000000E+00
  0.00000000E+00  0.00000000E+00  1.00000000E+00  0.00000000E+00  0.00000000E+00
  0.00000000E+00  0.00000000E+00  1.00000000E+00  0.00000000E+00  0.00000000E+00
  0.00000000E+00  0.00000000E+00  0.00000000E+00  0.00000000E+00  0.00000000E+00
  0.00000000E+00  0.00000000E+00  0.00000000E+00  1.00000000E+00  1.00000000E+00
MxBond                                     I                4
NBond                                      I   N=          13
           1           1           4           4           4           3
           1           1           1           1           1           1
           1
IBond                                      I   N=          52
           6           0           0           0           6           0
           0           0           4           8           9          13
           3           5           6           7           4          10
          11          12           1           2           4           0
           4           0           0           0           3           0
           0           0           3           0           0           0
           5           0           0           0           5           0
           0           0           5           0           0           0
           3           0           0           0
RBond                                      R   N=          52
  2.00000000E+00  0.00000000E+00  0.00000000E+00  0.00000000E+00  2.00000000E+00
  0.00000000E+00  0.00000000E+00  0.00000000E+00  1.00000000E+00  1.00000000E+00
  1.00000000E+00  1.00000000E+00  1.00000000E+00  1.00000000E+00  1.00000000E+00
  1.00000000E+00  1.00000000E+00  1.00000000E+00  1.00000000E+00  1.00000000E+00
  2.00000000E+00  2.00000000E+00  1.00000000E+00  0.00000000E+00  1.00000000E+00
  0.00000000E+00  0.00000000E+00  0.00000000E+00  1.00000000E+00  0.00000000E+00
  0.00000000E+00  0.00000000E+00  1.00000000E+00  0.00000000E+00  0.00000000E+00
  0.00000000E+00  1.00000000E+00  0.00000000E+00  0.00000000E+00  0.00000000E+00
  1.00000000E+00  0.00000000E+00  0.00000000E+00  0.00000000E+00  1.00000000E+00
  0.00000000E+00  0.00000000E+00  0.00000000E+00  1.00000000E+00  0.00000000E+00
  0.00000000E+00  0.00000000E+00
Virial Ratio                               R      2.003002643377538E+00
SCF Energy                                 R     -3.218656694865269E+02
MP2 Energy                                 R     -3.227796702903744E+02
Total Energy                               R     -3.227796702903744E+02
Post-SCF wavefunction norm                 R      1.598918090437315E+00
RMS Force                                  R      7.244076095190498E-06
RMS Density                                R      1.187069766380660E-09
External E-field                           R   N=          35
  0.00000000E+00  0.00000000E+00  0.00000000E+00  0.00000000E+00  0.00000000E+00
  0.00000000E+00  0.00000000E+00  0.00000000E+00  0.00000000E+00  0.00000000E+00
  0.00000000E+00  0.00000000E+00  0.00000000E+00  0.00000000E+00  0.00000000E+00
  0.00000000E+00  0.00000000E+00  0.00000000E+00  0.00000000E+00  0.00000000E+00
  0.00000000E+00  0.00000000E+00  0.00000000E+00  0.00000000E+00  0.00000000E+00
  0.00000000E+00  0.00000000E+00  0.00000000E+00  0.00000000E+00  0.00000000E+00
  0.00000000E+00  0.00000000E+00  0.00000000E+00  0.00000000E+00  0.00000000E+00
IOpCl                                      I                0
IROHF                                      I                0
Alpha Orbital Energies                     R   N=         104
 -2.05085323E+01 -2.04995462E+01 -1.56767028E+01 -1.13467533E+01 -1.12934723E+01
 -1.12327857E+01 -1.37598329E+00 -1.29898252E+00 -1.26769462E+00 -1.04076562E+00
 -8.92011362E-01 -7.74043419E-01 -7.46828514E-01 -7.18935075E-01 -6.61396144E-01
 -6.21476657E-01 -5.96067876E-01 -5.69891897E-01 -5.47516236E-01 -5.40282218E-01
 -5.13333046E-01 -4.17302753E-01 -3.99838990E-01 -3.98217893E-01  1.86959359E-01
  2.20809819E-01  2.52629680E-01  2.78201083E-01  3.01204452E-01  3.06600618E-01
  3.16751103E-01  3.31516326E-01  3.69156600E-01  4.14855011E-01  4.68717378E-01
  5.14638140E-01  6.00822782E-01  7.14531880E-01  7.30639555E-01  7.60022625E-01
  8.27170517E-01  8.48989725E-01  8.72226812E-01  9.11009136E-01  9.39388344E-01
  9.45072698E-01  9.69556184E-01  9.93059634E-01  1.05686203E+00  1.07682438E+00
  1.08874585E+00  1.11904861E+00  1.12768692E+00  1.14117817E+00  1.14413158E+00
  1.18814716E+00  1.21256254E+00  1.23167389E+00  1.27571911E+00  1.29315174E+00
  1.33580212E+00  1.40476857E+00  1.41751456E+00  1.51445684E+00  1.56889881E+00
  1.63078498E+00  1.70027193E+00  1.76760071E+00  1.82481564E+00  1.90105904E+00
  1.97215908E+00  2.04085068E+00  2.07244630E+00  2.10679228E+00  2.12683854E+00
  2.15319827E+00  2.18265850E+00  2.21563513E+00  2.23981348E+00  2.27695434E+00
  2.34060563E+00  2.35258361E+00  2.40384509E+00  2.43187482E+00  2.47374698E+00
  2.60365948E+00  2.65602855E+00  2.66465044E+00  2.69426223E+00  2.77884793E+00
  2.85762393E+00  2.91276403E+00  2.97596091E+00  3.08840828E+00  3.21692271E+00
  3.28106514E+00  3.35887028E+00  3.51438861E+00  4.19252554E+00  4.33841581E+00
  4.59914825E+00  4.73228292E+00  4.74773680E+00  4.98961521E+00
Alpha MO coefficients                      R   N=       10816
 -1.71869022E-03 -8.23844865E-05 -3.03512829E-05  8.96784520E-06  9.79611914E-06
  3.16474396E-04 -1.21874231E-04 -1.16744865E-04 -5.26956538E-06  6.73878027E-05
 -7.15255315E-05 -6.61097843E-05  9.45463973E-05 -1.10766416E-05 -2.05036708E-05
  9.94677544E-01  2.09751526E-02 -4.75513217E-04  1.15145064E-03  3.28542995E-04
  4.29113146E-03  3.64129809E-05 -2.03701418E-04 -5.32085612E-05 -3.90745851E-03
 -3.86310124E-03 -4.04268611E-03 -2.97533687E-05 -4.08977931E-05  5.24878232E-05
 -9.66277321E-06 -1.35777566E-05 -2.37884492E-05  1.60354393E-05  2.48261115E-07
  2.02360556E-04  7.38851069E-05 -1.34930649E-04 -4.13972888E-06 -4.61625466E-05
 -2.76624756E-05 -2.65735043E-05 -1.18849011E-05  9.42640930E-07 -1.82515456E-06
 -4.25861882E-06  9.30889385E-06 -3.08453147E-05  2.10510945E-05  1.40593660E-05
  5.02512975E-05 -1.04290597E-04  1.29865262E-05 -3.11584891E-05 -4.25427184E-05
 -1.98713992E-05 -2.78138729E-05  4.98198454E-05  1.79529669E-05 -9.88920529E-06
  1.97178105E-06  6.62765331E-06  9.05857833E-06 -7.59293730E-07  3.30355406E-07
 -7.76682966E-05 -5.22513064E-05  2.81959871E-05 -5.18775471E-06  1.50250408E-06
  5.29042194E-06  7.03595442E-06 -7.85052511E-07 -1.70599745E-06 -4.01002120E-06
 -9.24680282E-06  5.05529104E-04  3.68740601E-05 -1.70681330E-04 -4.10234722E-05
 -3.56669637E-04 -2.30897789E-04  1.07744418E-04  8.22806613E-05 -7.81418579E-05
 -5.40529524E-04 -8.88649606E-05  1.05287779E-04  2.24451892E-05 -1.32828005E-04
  1.01409719E-05 -1.69865244E-05  2.21607436E-06  8.08524452E-06 -1.06965701E-05
 -4.46576882E-06 -2.61309661E-06 -2.32061532E-05  1.25235740E-05 -5.87833615E-06
  4.64351148E-06  9.98376060E-06 -1.16657867E-05 -3.39884320E-04  9.94688244E-01
  2.10201263E-02 -7.38027888E-04 -1.16912639E-03 -7.97481495E-05  4.18653167E-03
  8.22545781E-05  1.10706740E-04 -6.91483756E-06 -3.84007994E-03 -3.77905608E-03
 -4.04078737E-03  1.07087596E-04 -2.53971368E-05  4.11861225E-05  1.69437789E-03
 -2.98733767E-05 -2.74566407E-05 -7.05865541E-07  5.70235062E-06  3.98681483E-04
 -1.05861351E-04  1.50344004E-04  4.92356452E-05 -2.48397200E-06 -5.54813532E-05
 -7.99279770E-05 -1.21228979E-04 -4.60736925E-05  3.34551657E-05  4.38843094E-06
  2.43146172E-05  4.03694395E-06 -2.13850815E-08 -2.72777464E-06 -1.60215825E-04
 -5.42002176E-05 -7.91783541E-05  1.51359611E-05 -5.75163476E-06  1.21812433E-05
  1.29824040E-05 -1.46041383E-05 -1.08388638E-06  4.24443591E-06 -8.08170367E-06
 -1.54436037E-05 -3.72339032E-05 -1.06430744E-05  1.21534110E-05  2.19849768E-04
 -8.78906323E-05 -6.62337818E-05 -1.26765045E-04 -6.43668642E-05 -2.78214410E-06
 -2.89120671E-05 -4.10424993E-05  5.64157388E-06  1.30708377E-05  4.33047708E-06
  1.84144186E-05  1.66804312E-05 -4.96813757E-06 -1.15424658E-05 -7.86742604E-05
 -1.01021692E-04  1.23647951E-04  5.04154663E-05  8.37655927E-06 -3.70263282E-06
  4.68703444E-06  5.99221638E-06 -4.17331572E-06  3.45153974E-06 -8.49643770E-06
  5.14424800E-04  3.79380956E-05  9.41564773E-05  1.57129041E-05 -4.68235412E-04
 -2.41007879E-04 -5.08054064E-05  5.45857934E-05 -2.03884726E-04 -5.62316824E-04
 -5.80171782E-05 -3.05754312E-04 -3.03236148E-05 -5.52736959E-05  1.46089269E-05
  3.11579828E-06  7.46540688E-06  1.00427240E-05  1.03824722E-07 -1.95214261E-05
 -8.10237385E-06 -5.91228388E-05  3.18343925E-05 -1.13359847E-04  1.63598501E-05
  4.23695174E-05 -8.12327545E-06 -2.49408516E-05 -1.54814862E-05 -6.44599958E-05
  3.83634656E-06 -1.82041770E-06 -2.30347965E-06  3.29896643E-04 -1.00151568E-04
 -1.06940790E-04 -2.86475317E-06 -3.57032266E-05 -2.54663126E-05 -5.10993353E-05
  2.73329355E-05  2.35957604E-07  3.39938612E-06 -7.07879032E-06 -5.37622285E-05
  1.86889375E-05 -1.16857701E-05  1.63997787E-06  2.90566130E-04 -6.82829925E-06
  2.15603816E-04  2.19839747E-05 -4.60761764E-05  2.25365983E-06 -3.97295719E-05
 -3.41712141E-05 -8.14826070E-07  1.50547025E-05  9.94940696E-01  2.53457611E-02
 -1.36909353E-04  6.19263607E-06 -2.33037497E-05 -2.65917788E-03 -2.28620840E-04
 -4.80309380E-04 -7.25561953E-05 -3.46123359E-03 -3.56728617E-03 -3.45919799E-03
 -6.85141996E-05 -2.26327291E-05 -3.63354425E-05 -3.71451796E-05 -2.67371845E-05
 -1.16976915E-04 -2.48292540E-04 -5.58208863E-05  1.84258515E-03 -2.40673393E-04
 -6.40728403E-04 -3.11008939E-04 -7.49450589E-05 -3.07820883E-05 -1.07185199E-04
  3.92516400E-05  1.72737295E-05  2.77081236E-05 -5.79022473E-06  1.71549658E-06
  1.01828526E-06  7.12615541E-05 -1.24004292E-05 -1.79932729E-04 -7.15920755E-05
  1.05067598E-04 -1.46143700E-06 -1.36578417E-05 -5.38626754E-05 -2.27249281E-05
  1.08733024E-05  1.93826681E-05  2.18831188E-06 -9.56553800E-06 -1.33096704E-05
  2.55789296E-05  2.27782461E-05  2.25587674E-06 -6.55304225E-04  5.78503160E-05
  9.26803584E-05  4.38260195E-05 -5.25320301E-05 -6.48810111E-05 -1.93090286E-05
 -5.00774395E-06  3.66035519E-06 -5.59971292E-06 -8.62839901E-05 -9.38346744E-05
  3.32500320E-04  3.86037468E-04  3.23704937E-04  3.34971387E-04  1.93599110E-06
 -5.71038963E-05  3.98893039E-06  6.15929690E-05  1.41852523E-05 -4.15015827E-05
  3.53426389E-04  4.15915265E-04 -2.35779550E-04  4.67842082E-04 -3.66316028E-05
 -2.04481997E-04 -4.91950362E-05 -1.84351527E-03  2.66497498E-04  1.59735269E-03
  3.21427974E-04  7.61729715E-05 -1.52714657E-04  3.44226446E-04 -2.00329169E-04
  1.90175043E-05 -7.95337381E-05 -1.85246389E-04  5.31045510E-04  2.22885691E-05
  1.72552207E-04  3.20927621E-05 -2.03626071E-03 -6.86181282E-05 -1.67675159E-03
 -3.18552639E-04  1.84754122E-04 -2.77542617E-04  3.77678435E-04  1.49579763E-04
  9.10003560E-05 -1.93967589E-04 -4.75667122E-05 -2.51084238E-04 -6.37152198E-05
 -5.21988858E-05  3.30157040E-05  8.92424842E-04  3.32810348E-04  4.32680878E-04
 -2.60640864E-04  1.74693966E-05 -9.35051850E-05 -1.84374138E-04  6.20963251E-05
 -1.02541548E-05  1.55328705E-05  4.84484668E-03  4.61273321E-04  1.09680278E-05
  3.20506250E-05 -8.54344086E-06  2.01439821E-03  1.96813469E-03 -3.06649972E-04
  2.78507422E-04 -4.95557291E-04 -2.36139178E-04 -1.13580845E-04  4.16709028E-05
  8.58046565E-05 -8.06508249E-06 -9.66842612E-05 -3.11785141E-04 -1.61344210E-04
  2.55478307E-05  2.93507585E-05  1.24893238E-03  9.38143171E-04 -4.76387896E-04
 -1.74980980E-05 -4.98911520E-05 -3.81263174E-05 -8.51033044E-05 -5.12764725E-05
  5.25089072E-06 -3.92255276E-05  9.95918510E-01  2.58720060E-02  1.16445479E-04
 -1.21266449E-04 -7.04132644E-05 -5.72691220E-03  3.66110434E-03 -3.84387741E-04
 -9.09703087E-04 -1.38834737E-03 -3.11675102E-04 -2.11337239E-03  2.32363587E-04
 -1.26530877E-04  3.96728438E-04 -1.89177454E-04  1.36373629E-04 -7.67118181E-05
 -1.22283219E-04  4.14957314E-05  1.46728512E-04  1.18179307E-05  4.93627725E-04
 -1.04701485E-04 -1.82880540E-04 -1.63031536E-04 -5.59531921E-05 -1.22938067E-05
  2.58837823E-05 -6.38753461E-05 -3.61390233E-04  2.81646607E-05  4.91783658E-05
 -2.83767411E-05  1.61922693E-03  1.14085739E-05 -5.49960185E-04  3.77833934E-05
 -1.45698625E-04 -9.42639741E-05 -2.96912474E-04  1.50955765E-05 -5.65156619E-05
  3.37299409E-05  2.52307260E-07 -7.36431474E-05  8.59928739E-06 -5.34330121E-05
 -2.67749199E-05 -5.08312413E-04  4.26219270E-04  4.80511148E-05  2.28325816E-05
  3.14510016E-05  3.84900251E-05 -1.17852113E-04  4.09971676E-05 -3.70844508E-05
  4.98892815E-05 -2.37824667E-04 -7.23933141E-05  1.66227681E-05  6.86386443E-05
  2.65909945E-05  4.79889665E-03  6.73673117E-04  1.58510534E-03  1.50101691E-04
 -2.96883117E-04 -6.33213213E-04 -1.43676812E-04 -2.46164220E-04 -8.95238557E-05
 -2.16013676E-04  9.96000752E-01  2.86234572E-02 -4.49373328E-04 -7.44380589E-04
 -2.90808881E-04 -2.05201993E-02 -3.19470703E-04  1.04647051E-03  1.95436916E-03
 -1.41115153E-03 -1.41629632E-03 -1.21781152E-03 -5.46349656E-05 -1.43712041E-05
 -6.03976365E-05  5.02928093E-03  4.97153638E-05  7.02954172E-05 -9.65728410E-05
  6.23562350E-05  4.93560891E-03  1.07748223E-03 -2.09001746E-03  5.01811724E-04
 -1.98491097E-04 -2.70458051E-04 -2.15332104E-04  6.62661630E-05 -1.03786309E-04
  1.76931024E-04 -5.13501366E-03 -2.50363455E-04 -2.28837370E-04  1.18258412E-05
  3.72500768E-05  4.83877994E-03 -3.40069267E-03 -9.54266735E-04  1.55541982E-04
 -3.76064363E-04 -1.89600185E-04 -2.23890674E-04 -3.36192047E-05  9.15713479E-05
  1.12286188E-05  2.76269760E-04  2.53323145E-03 -1.85476498E-04 -4.51819054E-05
 -1.84205337E-04  1.85320840E-04 -1.68858163E-04  3.31476043E-05 -1.29748636E-04
  8.70589222E-05 -2.44365566E-04 -1.74537877E-04 -1.26655522E-04 -2.93782348E-06
  6.18659449E-07  1.47830608E-05  1.91945209E-05  2.93216822E-06  3.47968438E-05
 -2.83857357E-04  1.53463337E-04 -6.93765901E-05 -1.01589329E-04 -1.99524559E-05
  4.28719892E-05 -4.54961640E-05  3.04536467E-06  2.55864066E-05  2.48492189E-06