opt=Tight                                                               
Freq      RMP2-FC                                                     6-31G(d)            
Number of atoms                            I               20
Info1-9                                    I   N=           9
          29          29        1002           0           0         100
           6           2           1
Charge                                     I                0
Multiplicity                               I                1
Number of electrons                        I               66
Number of alpha electrons                  I               33
Number of beta electrons                   I               33
Number of basis functions                  I              157
Number of independent functions            I              157
Number of point charges in /Mol/           I                0
Number of translation vectors              I                0
Atomic numbers                             I   N=          20
           7           6           6           6           6           6
           6           6           6           1           1           1
           1           1           1           1           1           1
           1           1
Nuclear charges                            R   N=          20
  7.00000000E+00  6.00000000E+00  6.00000000E+00  6.00000000E+00  6.00000000E+00
  6.00000000E+00  6.00000000E+00  6.00000000E+00  6.00000000E+00  1.00000000E+00
  1.00000000E+00  1.00000000E+00  1.00000000E+00  1.00000000E+00  1.00000000E+00
  1.00000000E+00  1.00000000E+00  1.00000000E+00  1.00000000E+00  1.00000000E+00
Current cartesian coordinates              R   N=          60
  2.98760998E+00 -7.95891530E-06 -4.97226039E-01  3.49898173E-01 -2.05802984E-06
 -2.18148239E-01 -1.02936141E+00  2.27888843E+00 -1.22986252E-01 -1.02936949E+00
 -2.27888978E+00 -1.23021727E-01  4.30531743E+00  2.31164995E+00  2.01898940E-01
  4.30531339E+00 -2.31164966E+00  2.01964839E-01 -3.65772987E+00  2.26538222E+00
  5.47258809E-02 -3.65773698E+00 -2.26537797E+00  5.46915627E-02 -5.00182127E+00
  4.15545468E-06  1.39609290E-01 -6.67256339E-02  4.08628015E+00 -1.71696898E-01
 -6.67386893E-02 -4.08628336E+00 -1.71765727E-01  3.74583321E+00  3.86281033E+00
 -1.03926336E+00  6.32941342E+00  2.01505224E+00 -6.01495541E-02  3.96335763E+00
  2.88378896E+00  2.17357659E+00  6.32941194E+00 -2.01505345E+00 -6.00654671E-02
  3.96332937E+00 -2.88374425E+00  2.17365074E+00  3.74585000E+00 -3.86283979E+00
 -1.03916954E+00 -4.65693066E+00  4.06066963E+00  1.29214691E-01 -4.65694408E+00
 -4.06066317E+00  1.29150875E-01 -7.05018619E+00  6.68764167E-06  2.84694142E-01
Force Field                                I                0
Int Atom Types                             I   N=          20
           0           0           0           0           0           0
           0           0           0           0           0           0
           0           0           0           0           0           0
           0           0
MM charges                                 R   N=          20
  0.00000000E+00  0.00000000E+00  0.00000000E+00  0.00000000E+00  0.00000000E+00
  0.00000000E+00  0.00000000E+00  0.00000000E+00  0.00000000E+00  0.00000000E+00
  0.00000000E+00  0.00000000E+00  0.00000000E+00  0.00000000E+00  0.00000000E+00
  0.00000000E+00  0.00000000E+00  0.00000000E+00  0.00000000E+00  0.00000000E+00
Integer atomic weights                     I   N=          20
          14          12          12          12          12          12
          12          12          12           1           1           1
           1           1           1           1           1           1
           1           1
Real atomic weights                        R   N=          20
  1.40030740E+01  1.20000000E+01  1.20000000E+01  1.20000000E+01  1.20000000E+01
  1.20000000E+01  1.20000000E+01  1.20000000E+01  1.20000000E+01  1.00782504E+00
  1.00782504E+00  1.00782504E+00  1.00782504E+00  1.00782504E+00  1.00782504E+00
  1.00782504E+00  1.00782504E+00  1.00782504E+00  1.00782504E+00  1.00782504E+00
Atom fragment info                         I   N=          20
           0           0           0           0           0           0
           0           0           0           0           0           0
           0           0           0           0           0           0
           0           0
Atom residue num                           I   N=          20
           0           0           0           0           0           0
           0           0           0           0           0           0
           0           0           0           0           0           0
           0           0
Nuclear spins                              I   N=          20
           2           0           0           0           0           0
           0           0           0           1           1           1
           1           1           1           1           1           1
           1           1
Nuclear ZEff                               R   N=          20
 -4.55000000E+00 -3.60000000E+00 -3.60000000E+00 -3.60000000E+00 -3.60000000E+00
 -3.60000000E+00 -3.60000000E+00 -3.60000000E+00 -3.60000000E+00 -1.00000000E+00
 -1.00000000E+00 -1.00000000E+00 -1.00000000E+00 -1.00000000E+00 -1.00000000E+00
 -1.00000000E+00 -1.00000000E+00 -1.00000000E+00 -1.00000000E+00 -1.00000000E+00
Nuclear QMom                               R   N=          20
  2.04400000E+00  0.00000000E+00  0.00000000E+00  0.00000000E+00  0.00000000E+00
  0.00000000E+00  0.00000000E+00  0.00000000E+00  0.00000000E+00  0.00000000E+00
  0.00000000E+00  0.00000000E+00  0.00000000E+00  0.00000000E+00  0.00000000E+00
  0.00000000E+00  0.00000000E+00  0.00000000E+00  0.00000000E+00  0.00000000E+00
Nuclear GFac                               R   N=          20
  4.03761000E-01  0.00000000E+00  0.00000000E+00  0.00000000E+00  0.00000000E+00
  0.00000000E+00  0.00000000E+00  0.00000000E+00  0.00000000E+00  2.79284600E+00
  2.79284600E+00  2.79284600E+00  2.79284600E+00  2.79284600E+00  2.79284600E+00
  2.79284600E+00  2.79284600E+00  2.79284600E+00  2.79284600E+00  2.79284600E+00
MicOpt                                     I   N=          20
          -1          -1          -1          -1          -1          -1
          -1          -1          -1          -1          -1          -1
          -1          -1          -1          -1          -1          -1
          -1          -1
Number of contracted shells                I               58
Number of primitive shells                 I              143
Pure/Cartesian d shells                    I                1
Pure/Cartesian f shells                    I                0
Highest angular momentum                   I                2
Largest degree of contraction              I                6
Shell types                                I   N=          58
           0          -1          -1           2           0          -1
          -1           2           0          -1          -1           2
           0          -1          -1           2           0          -1
          -1           2           0          -1          -1           2
           0          -1          -1           2           0          -1
          -1           2           0          -1          -1           2
           0           0           0           0           0           0
           0           0           0           0           0           0
           0           0           0           0           0           0
           0           0           0           0
Number of primitives per shell             I   N=          58
           6           3           1           1           6           3
           1           1           6           3           1           1
           6           3           1           1           6           3
           1           1           6           3           1           1
           6           3           1           1           6           3
           1           1           6           3           1           1
           3           1           3           1           3           1
           3           1           3           1           3           1
           3           1           3           1           3           1
           3           1           3           1
Shell to atom map                          I   N=          58
           1           1           1           1           2           2
           2           2           3           3           3           3
           4           4           4           4           5           5
           5           5           6           6           6           6
           7           7           7           7           8           8
           8           8           9           9           9           9
          10          10          11          11          12          12
          13          13          14          14          15          15
          16          16          17          17          18          18
          19          19          20          20
Primitive exponents                        R   N=         143
  4.17351146E+03  6.27457911E+02  1.42902093E+02  4.02343293E+01  1.28202129E+01
  4.39043701E+00  1.16263619E+01  2.71627981E+00  7.72218397E-01  2.12031498E-01
  8.00000000E-01  3.04752488E+03  4.57369518E+02  1.03948685E+02  2.92101553E+01
  9.28666296E+00  3.16392696E+00  7.86827235E+00  1.88128854E+00  5.44249258E-01
  1.68714478E-01  8.00000000E-01  3.04752488E+03  4.57369518E+02  1.03948685E+02
  2.92101553E+01  9.28666296E+00  3.16392696E+00  7.86827235E+00  1.88128854E+00
  5.44249258E-01  1.68714478E-01  8.00000000E-01  3.04752488E+03  4.57369518E+02
  1.03948685E+02  2.92101553E+01  9.28666296E+00  3.16392696E+00  7.86827235E+00
  1.88128854E+00  5.44249258E-01  1.68714478E-01  8.00000000E-01  3.04752488E+03
  4.57369518E+02  1.03948685E+02  2.92101553E+01  9.28666296E+00  3.16392696E+00
  7.86827235E+00  1.88128854E+00  5.44249258E-01  1.68714478E-01  8.00000000E-01
  3.04752488E+03  4.57369518E+02  1.03948685E+02  2.92101553E+01  9.28666296E+00
  3.16392696E+00  7.86827235E+00  1.88128854E+00  5.44249258E-01  1.68714478E-01
  8.00000000E-01  3.04752488E+03  4.57369518E+02  1.03948685E+02  2.92101553E+01
  9.28666296E+00  3.16392696E+00  7.86827235E+00  1.88128854E+00  5.44249258E-01
  1.68714478E-01  8.00000000E-01  3.04752488E+03  4.57369518E+02  1.03948685E+02
  2.92101553E+01  9.28666296E+00  3.16392696E+00  7.86827235E+00  1.88128854E+00
  5.44249258E-01  1.68714478E-01  8.00000000E-01  3.04752488E+03  4.57369518E+02
  1.03948685E+02  2.92101553E+01  9.28666296E+00  3.16392696E+00  7.86827235E+00
  1.88128854E+00  5.44249258E-01  1.68714478E-01  8.00000000E-01  1.87311370E+01
  2.82539436E+00  6.40121692E-01  1.61277759E-01  1.87311370E+01  2.82539436E+00
  6.40121692E-01  1.61277759E-01  1.87311370E+01  2.82539436E+00  6.40121692E-01
  1.61277759E-01  1.87311370E+01  2.82539436E+00  6.40121692E-01  1.61277759E-01
  1.87311370E+01  2.82539436E+00  6.40121692E-01  1.61277759E-01  1.87311370E+01
  2.82539436E+00  6.40121692E-01  1.61277759E-01  1.87311370E+01  2.82539436E+00
  6.40121692E-01  1.61277759E-01  1.87311370E+01  2.82539436E+00  6.40121692E-01
  1.61277759E-01  1.87311370E+01  2.82539436E+00  6.40121692E-01  1.61277759E-01
  1.87311370E+01  2.82539436E+00  6.40121692E-01  1.61277759E-01  1.87311370E+01
  2.82539436E+00  6.40121692E-01  1.61277759E-01
Contraction coefficients                   R   N=         143
  1.83477216E-03  1.39946270E-02  6.85865518E-02  2.32240873E-01  4.69069948E-01
  3.60455199E-01 -1.14961182E-01 -1.69117479E-01  1.14585195E+00  1.00000000E+00
  1.00000000E+00  1.83473713E-03  1.40373228E-02  6.88426223E-02  2.32184443E-01
  4.67941348E-01  3.62311985E-01 -1.19332420E-01 -1.60854152E-01  1.14345644E+00
  1.00000000E+00  1.00000000E+00  1.83473713E-03  1.40373228E-02  6.88426223E-02
  2.32184443E-01  4.67941348E-01  3.62311985E-01 -1.19332420E-01 -1.60854152E-01
  1.14345644E+00  1.00000000E+00  1.00000000E+00  1.83473713E-03  1.40373228E-02
  6.88426223E-02  2.32184443E-01  4.67941348E-01  3.62311985E-01 -1.19332420E-01
 -1.60854152E-01  1.14345644E+00  1.00000000E+00  1.00000000E+00  1.83473713E-03
  1.40373228E-02  6.88426223E-02  2.32184443E-01  4.67941348E-01  3.62311985E-01
 -1.19332420E-01 -1.60854152E-01  1.14345644E+00  1.00000000E+00  1.00000000E+00
  1.83473713E-03  1.40373228E-02  6.88426223E-02  2.32184443E-01  4.67941348E-01
  3.62311985E-01 -1.19332420E-01 -1.60854152E-01  1.14345644E+00  1.00000000E+00
  1.00000000E+00  1.83473713E-03  1.40373228E-02  6.88426223E-02  2.32184443E-01
  4.67941348E-01  3.62311985E-01 -1.19332420E-01 -1.60854152E-01  1.14345644E+00
  1.00000000E+00  1.00000000E+00  1.83473713E-03  1.40373228E-02  6.88426223E-02
  2.32184443E-01  4.67941348E-01  3.62311985E-01 -1.19332420E-01 -1.60854152E-01
  1.14345644E+00  1.00000000E+00  1.00000000E+00  1.83473713E-03  1.40373228E-02
  6.88426223E-02  2.32184443E-01  4.67941348E-01  3.62311985E-01 -1.19332420E-01
 -1.60854152E-01  1.14345644E+00  1.00000000E+00  1.00000000E+00  3.34946043E-02
  2.34726953E-01  8.13757326E-01  1.00000000E+00  3.34946043E-02  2.34726953E-01
  8.13757326E-01  1.00000000E+00  3.34946043E-02  2.34726953E-01  8.13757326E-01
  1.00000000E+00  3.34946043E-02  2.34726953E-01  8.13757326E-01  1.00000000E+00
  3.34946043E-02  2.34726953E-01  8.13757326E-01  1.00000000E+00  3.34946043E-02
  2.34726953E-01  8.13757326E-01  1.00000000E+00  3.34946043E-02  2.34726953E-01
  8.13757326E-01  1.00000000E+00  3.34946043E-02  2.34726953E-01  8.13757326E-01
  1.00000000E+00  3.34946043E-02  2.34726953E-01  8.13757326E-01  1.00000000E+00
  3.34946043E-02  2.34726953E-01  8.13757326E-01  1.00000000E+00  3.34946043E-02
  2.34726953E-01  8.13757326E-01  1.00000000E+00
P(S=P) Contraction coefficients            R   N=         143
  0.00000000E+00  0.00000000E+00  0.00000000E+00  0.00000000E+00  0.00000000E+00
  0.00000000E+00  6.75797439E-02  3.23907296E-01  7.40895140E-01  1.00000000E+00
  0.00000000E+00  0.00000000E+00  0.00000000E+00  0.00000000E+00  0.00000000E+00
  0.00000000E+00  0.00000000E+00  6.89990666E-02  3.16423961E-01  7.44308291E-01
  1.00000000E+00  0.00000000E+00  0.00000000E+00  0.00000000E+00  0.00000000E+00
  0.00000000E+00  0.00000000E+00  0.00000000E+00  6.89990666E-02  3.16423961E-01
  7.44308291E-01  1.00000000E+00  0.00000000E+00  0.00000000E+00  0.00000000E+00
  0.00000000E+00  0.00000000E+00  0.00000000E+00  0.00000000E+00  6.89990666E-02
  3.16423961E-01  7.44308291E-01  1.00000000E+00  0.00000000E+00  0.00000000E+00
  0.00000000E+00  0.00000000E+00  0.00000000E+00  0.00000000E+00  0.00000000E+00
  6.89990666E-02  3.16423961E-01  7.44308291E-01  1.00000000E+00  0.00000000E+00
  0.00000000E+00  0.00000000E+00  0.00000000E+00  0.00000000E+00  0.00000000E+00
  0.00000000E+00  6.89990666E-02  3.16423961E-01  7.44308291E-01  1.00000000E+00
  0.00000000E+00  0.00000000E+00  0.00000000E+00  0.00000000E+00  0.00000000E+00
  0.00000000E+00  0.00000000E+00  6.89990666E-02  3.16423961E-01  7.44308291E-01
  1.00000000E+00  0.00000000E+00  0.00000000E+00  0.00000000E+00  0.00000000E+00
  0.00000000E+00  0.00000000E+00  0.00000000E+00  6.89990666E-02  3.16423961E-01
  7.44308291E-01  1.00000000E+00  0.00000000E+00  0.00000000E+00  0.00000000E+00
  0.00000000E+00  0.00000000E+00  0.00000000E+00  0.00000000E+00  6.89990666E-02
  3.16423961E-01  7.44308291E-01  1.00000000E+00  0.00000000E+00  0.00000000E+00
  0.00000000E+00  0.00000000E+00  0.00000000E+00  0.00000000E+00  0.00000000E+00
  0.00000000E+00  0.00000000E+00  0.00000000E+00  0.00000000E+00  0.00000000E+00
  0.00000000E+00  0.00000000E+00  0.00000000E+00  0.00000000E+00  0.00000000E+00
  0.00000000E+00  0.00000000E+00  0.00000000E+00  0.00000000E+00  0.00000000E+00
  0.00000000E+00  0.00000000E+00  0.00000000E+00  0.00000000E+00  0.00000000E+00
  0.00000000E+00  0.00000000E+00  0.00000000E+00  0.00000000E+00  0.00000000E+00
  0.00000000E+00  0.00000000E+00  0.00000000E+00  0.00000000E+00  0.00000000E+00
  0.00000000E+00  0.00000000E+00  0.00000000E+00  0.00000000E+00  0.00000000E+00
  0.00000000E+00  0.00000000E+00  0.00000000E+00
Coordinates of each shell                  R   N=         174
  2.98760998E+00 -7.95891530E-06 -4.97226039E-01  2.98760998E+00 -7.95891530E-06
 -4.97226039E-01  2.98760998E+00 -7.95891530E-06 -4.97226039E-01  2.98760998E+00
 -7.95891530E-06 -4.97226039E-01  3.49898173E-01 -2.05802984E-06 -2.18148239E-01
  3.49898173E-01 -2.05802984E-06 -2.18148239E-01  3.49898173E-01 -2.05802984E-06
 -2.18148239E-01  3.49898173E-01 -2.05802984E-06 -2.18148239E-01 -1.02936141E+00
  2.27888843E+00 -1.22986252E-01 -1.02936141E+00  2.27888843E+00 -1.22986252E-01
 -1.02936141E+00  2.27888843E+00 -1.22986252E-01 -1.02936141E+00  2.27888843E+00
 -1.22986252E-01 -1.02936949E+00 -2.27888978E+00 -1.23021727E-01 -1.02936949E+00
 -2.27888978E+00 -1.23021727E-01 -1.02936949E+00 -2.27888978E+00 -1.23021727E-01
 -1.02936949E+00 -2.27888978E+00 -1.23021727E-01  4.30531743E+00  2.31164995E+00
  2.01898940E-01  4.30531743E+00  2.31164995E+00  2.01898940E-01  4.30531743E+00
  2.31164995E+00  2.01898940E-01  4.30531743E+00  2.31164995E+00  2.01898940E-01
  4.30531339E+00 -2.31164966E+00  2.01964839E-01  4.30531339E+00 -2.31164966E+00
  2.01964839E-01  4.30531339E+00 -2.31164966E+00  2.01964839E-01  4.30531339E+00
 -2.31164966E+00  2.01964839E-01 -3.65772987E+00  2.26538222E+00  5.47258809E-02
 -3.65772987E+00  2.26538222E+00  5.47258809E-02 -3.65772987E+00  2.26538222E+00
  5.47258809E-02 -3.65772987E+00  2.26538222E+00  5.47258809E-02 -3.65773698E+00
 -2.26537797E+00  5.46915627E-02 -3.65773698E+00 -2.26537797E+00  5.46915627E-02
 -3.65773698E+00 -2.26537797E+00  5.46915627E-02 -3.65773698E+00 -2.26537797E+00
  5.46915627E-02 -5.00182127E+00  4.15545468E-06  1.39609290E-01 -5.00182127E+00
  4.15545468E-06  1.39609290E-01 -5.00182127E+00  4.15545468E-06  1.39609290E-01
 -5.00182127E+00  4.15545468E-06  1.39609290E-01 -6.67256339E-02  4.08628015E+00
 -1.71696898E-01 -6.67256339E-02  4.08628015E+00 -1.71696898E-01 -6.67386893E-02
 -4.08628336E+00 -1.71765727E-01 -6.67386893E-02 -4.08628336E+00 -1.71765727E-01
  3.74583321E+00  3.86281033E+00 -1.03926336E+00  3.74583321E+00  3.86281033E+00
 -1.03926336E+00  6.32941342E+00  2.01505224E+00 -6.01495541E-02  6.32941342E+00
  2.01505224E+00 -6.01495541E-02  3.96335763E+00  2.88378896E+00  2.17357659E+00
  3.96335763E+00  2.88378896E+00  2.17357659E+00  6.32941194E+00 -2.01505345E+00
 -6.00654671E-02  6.32941194E+00 -2.01505345E+00 -6.00654671E-02  3.96332937E+00
 -2.88374425E+00  2.17365074E+00  3.96332937E+00 -2.88374425E+00  2.17365074E+00
  3.74585000E+00 -3.86283979E+00 -1.03916954E+00  3.74585000E+00 -3.86283979E+00
 -1.03916954E+00 -4.65693066E+00  4.06066963E+00  1.29214691E-01 -4.65693066E+00
  4.06066963E+00  1.29214691E-01 -4.65694408E+00 -4.06066317E+00  1.29150875E-01
 -4.65694408E+00 -4.06066317E+00  1.29150875E-01 -7.05018619E+00  6.68764167E-06
  2.84694142E-01 -7.05018619E+00  6.68764167E-06  2.84694142E-01
Constraint Structure                       R   N=          60
  2.98760998E+00 -7.95891530E-06 -4.97226039E-01  3.49898173E-01 -2.05802984E-06
 -2.18148239E-01 -1.02936141E+00  2.27888843E+00 -1.22986252E-01 -1.02936949E+00
 -2.27888978E+00 -1.23021727E-01  4.30531743E+00  2.31164995E+00  2.01898940E-01
  4.30531339E+00 -2.31164966E+00  2.01964839E-01 -3.65772987E+00  2.26538222E+00
  5.47258809E-02 -3.65773698E+00 -2.26537797E+00  5.46915627E-02 -5.00182127E+00
  4.15545468E-06  1.39609290E-01 -6.67256339E-02  4.08628015E+00 -1.71696898E-01
 -6.67386893E-02 -4.08628336E+00 -1.71765727E-01  3.74583321E+00  3.86281033E+00
 -1.03926336E+00  6.32941342E+00  2.01505224E+00 -6.01495541E-02  3.96335763E+00
  2.88378896E+00  2.17357659E+00  6.32941194E+00 -2.01505345E+00 -6.00654671E-02
  3.96332937E+00 -2.88374425E+00  2.17365074E+00  3.74585000E+00 -3.86283979E+00
 -1.03916954E+00 -4.65693066E+00  4.06066963E+00  1.29214691E-01 -4.65694408E+00
 -4.06066317E+00  1.29150875E-01 -7.05018619E+00  6.68764167E-06  2.84694142E-01
Num ILSW                                   I              100
ILSW                                       I   N=         100
           0           1           0           0           2           0
           0           0           0           0           0          -1
           0           0           0           0           0           0
           0           0           0           0           1           0
           1           0           0           0           0           0
           0           0      100000           0          -1           0
           0           0           0           0           0           0
           0           0           0           1           1           0
           0           0           1           0           0           0
           0           0           4          40           0           0
           0           0           0           0           0           0
           0           0           0           0           0           0
           0           0           0           0           0           0
           0           0           0           0           0           0
           0           0           0           0           0           0
           0           0           0           0           0           0
           0           0           0           0
Num RLSW                                   I               40
RLSW                                       R   N=          40
  1.00000000E+00  1.00000000E+00  1.00000000E+00  1.00000000E+00  1.00000000E+00
  0.00000000E+00  0.00000000E+00  1.00000000E+00  0.00000000E+00  0.00000000E+00
  0.00000000E+00  0.00000000E+00  1.00000000E+00  0.00000000E+00  0.00000000E+00
  0.00000000E+00  0.00000000E+00  1.00000000E+00  0.00000000E+00  0.00000000E+00
  0.00000000E+00  0.00000000E+00  1.00000000E+00  0.00000000E+00  0.00000000E+00
  0.00000000E+00  0.00000000E+00  1.00000000E+00  0.00000000E+00  0.00000000E+00
  0.00000000E+00  0.00000000E+00  0.00000000E+00  0.00000000E+00  0.00000000E+00
  0.00000000E+00  0.00000000E+00  0.00000000E+00  1.00000000E+00  1.00000000E+00
MxBond                                     I                4
NBond                                      I   N=          20
           3           3           3           3           4           4
           3           3           3           1           1           1
           1           1           1           1           1           1
           1           1
IBond                                      I   N=          80
           2           5           6           0           1           3
           4           0           2           7          10           0
           2           8          11           0           1          12
          13          14           1          15          16          17
           3           9          18           0           4           9
          19           0           7           8          20           0
           3           0           0           0           4           0
           0           0           5           0           0           0
           5           0           0           0           5           0
           0           0           6           0           0           0
           6           0           0           0           6           0
           0           0           7           0           0           0
           8           0           0           0           9           0
           0           0
RBond                                      R   N=          80
  1.50000000E+00  1.00000000E+00  1.00000000E+00  0.00000000E+00  1.50000000E+00
  1.50000000E+00  1.50000000E+00  0.00000000E+00  1.50000000E+00  1.50000000E+00
  1.00000000E+00  0.00000000E+00  1.50000000E+00  1.50000000E+00  1.00000000E+00
  0.00000000E+00  1.00000000E+00  1.00000000E+00  1.00000000E+00  1.00000000E+00
  1.00000000E+00  1.00000000E+00  1.00000000E+00  1.00000000E+00  1.50000000E+00
  1.50000000E+00  1.00000000E+00  0.00000000E+00  1.50000000E+00  1.50000000E+00
  1.00000000E+00  0.00000000E+00  1.50000000E+00  1.50000000E+00  1.00000000E+00
  0.00000000E+00  1.00000000E+00  0.00000000E+00  0.00000000E+00  0.00000000E+00
  1.00000000E+00  0.00000000E+00  0.00000000E+00  0.00000000E+00  1.00000000E+00
  0.00000000E+00  0.00000000E+00  0.00000000E+00  1.00000000E+00  0.00000000E+00
  0.00000000E+00  0.00000000E+00  1.00000000E+00  0.00000000E+00  0.00000000E+00
  0.00000000E+00  1.00000000E+00  0.00000000E+00  0.00000000E+00  0.00000000E+00
  1.00000000E+00  0.00000000E+00  0.00000000E+00  0.00000000E+00  1.00000000E+00
  0.00000000E+00  0.00000000E+00  0.00000000E+00  1.00000000E+00  0.00000000E+00
  0.00000000E+00  0.00000000E+00  1.00000000E+00  0.00000000E+00  0.00000000E+00
  0.00000000E+00  1.00000000E+00  0.00000000E+00  0.00000000E+00  0.00000000E+00
Virial Ratio                               R      2.001939431911687E+00
SCF Energy                                 R     -3.637780873264217E+02
MP2 Energy                                 R     -3.649658847839832E+02
Total Energy                               R     -3.649658847839832E+02
Post-SCF wavefunction norm                 R      1.684332440244663E+00
RMS Force                                  R      2.347997640716775E-07
RMS Density                                R      1.842568555063147E-09
External E-field                           R   N=          35
  0.00000000E+00  0.00000000E+00  0.00000000E+00  0.00000000E+00  0.00000000E+00
  0.00000000E+00  0.00000000E+00  0.00000000E+00  0.00000000E+00  0.00000000E+00
  0.00000000E+00  0.00000000E+00  0.00000000E+00  0.00000000E+00  0.00000000E+00
  0.00000000E+00  0.00000000E+00  0.00000000E+00  0.00000000E+00  0.00000000E+00
  0.00000000E+00  0.00000000E+00  0.00000000E+00  0.00000000E+00  0.00000000E+00
  0.00000000E+00  0.00000000E+00  0.00000000E+00  0.00000000E+00  0.00000000E+00
  0.00000000E+00  0.00000000E+00  0.00000000E+00  0.00000000E+00  0.00000000E+00
IOpCl                                      I                0
IROHF                                      I                0
Alpha Orbital Energies                     R   N=         157
 -1.55691297E+01 -1.12721605E+01 -1.12534940E+01 -1.12534720E+01 -1.12301943E+01
 -1.12301540E+01 -1.12194675E+01 -1.12194548E+01 -1.12161664E+01 -1.24903516E+00
 -1.12542504E+00 -1.00581915E+00 -9.99535461E-01 -9.61288424E-01 -8.84469027E-01
 -8.11685496E-01 -7.78986719E-01 -7.03650516E-01 -6.43695830E-01 -6.38653337E-01
 -6.32046162E-01 -6.13512100E-01 -5.78855451E-01 -5.70452110E-01 -5.50725660E-01
 -5.39087558E-01 -5.24434692E-01 -5.01188688E-01 -4.89856929E-01 -4.72061659E-01
 -4.02162085E-01 -3.26086852E-01 -2.79820895E-01  1.50319613E-01  1.64253062E-01
  2.28663710E-01  2.56363902E-01  2.72072232E-01  2.76403554E-01  3.04180953E-01
  3.11696681E-01  3.26711143E-01  3.28308691E-01  3.44697242E-01  3.49039376E-01
  3.63770465E-01  3.82220161E-01  3.95828483E-01  4.27608800E-01  4.62819711E-01
  4.91038850E-01  5.12482830E-01  5.33353610E-01  5.62696968E-01  6.64366162E-01
  7.13371609E-01  7.40493964E-01  7.49533997E-01  7.54964025E-01  7.68486050E-01
  7.92440419E-01  8.22565357E-01  8.26637080E-01  8.41798136E-01  8.44265637E-01
  8.47526950E-01  8.51475776E-01  8.55845002E-01  8.62091007E-01  9.31716875E-01
  9.38110496E-01  9.82244887E-01  9.88466813E-01  1.01373237E+00  1.08112499E+00
  1.08182431E+00  1.10938038E+00  1.11774646E+00  1.12244026E+00  1.12517007E+00
  1.12659058E+00  1.14917154E+00  1.17207627E+00  1.18247148E+00  1.18871900E+00
  1.21720521E+00  1.21755574E+00  1.25163792E+00  1.25374381E+00  1.27224925E+00
  1.29486002E+00  1.30033995E+00  1.34860119E+00  1.35528607E+00  1.45030683E+00
  1.45252442E+00  1.46920662E+00  1.52809539E+00  1.54011825E+00  1.62478063E+00
  1.66758045E+00  1.68231920E+00  1.72098629E+00  1.74518554E+00  1.78015855E+00
  1.78193663E+00  1.80970853E+00  1.84096591E+00  1.91505261E+00  2.08453399E+00
  2.10298492E+00  2.13665809E+00  2.14467527E+00  2.20011348E+00  2.21829624E+00
  2.27462478E+00  2.27996415E+00  2.28128547E+00  2.32595143E+00  2.37148074E+00
  2.39470043E+00  2.40141840E+00  2.45471821E+00  2.47073687E+00  2.47609897E+00
  2.47909747E+00  2.53160306E+00  2.54682830E+00  2.57886674E+00  2.60003102E+00
  2.62891872E+00  2.64952540E+00  2.65547188E+00  2.76265457E+00  2.82103638E+00
  2.93618432E+00  2.93740072E+00  2.96459607E+00  2.96815378E+00  2.97595591E+00
  3.05040519E+00  3.09920651E+00  3.12745642E+00  3.14597897E+00  3.26401003E+00
  3.28444028E+00  3.54909991E+00  3.80138086E+00  4.51059919E+00  4.52517266E+00
  4.55165278E+00  4.60002642E+00  4.69406151E+00  4.75567581E+00  4.76759814E+00
  4.84944278E+00  5.14572414E+00
Alpha MO coefficients                      R   N=       24649
  9.95110997E-01  2.54543751E-02 -1.94518541E-04  1.69477517E-08  1.01699548E-03
 -6.20509275E-03  1.22094333E-03 -5.26347151E-08 -1.36992360E-03 -3.24090660E-03
 -3.23372417E-03 -2.94788953E-03  3.15382502E-10 -2.53113259E-05  4.21673604E-09
  3.00172987E-05  2.96209504E-04  1.59118800E-04 -1.78031117E-09 -1.58476842E-05
  1.56865244E-03  3.47117341E-03  5.80453342E-08  3.59617716E-05 -9.21847191E-05
 -8.35251889E-06 -5.58864027E-05 -1.44683433E-10  3.80136815E-05  1.03230144E-09
 -9.76298508E-06 -6.04652426E-05  2.28641632E-05  3.12066004E-06  6.40668314E-06
  1.39053271E-03 -1.29520272E-03 -8.50759053E-04 -3.02062317E-05 -2.78136348E-05
  3.81158663E-05 -3.63817295E-05  5.66247357E-05 -6.53565048E-06  1.08509485E-05
 -9.76329363E-06 -6.04682414E-05  2.28642914E-05 -3.11998610E-06  6.40790360E-06
  1.39059049E-03 -1.29514219E-03  8.50805809E-04 -3.01988718E-05 -2.78128306E-05