
    -----------------------------------------------------------------------
          Psi4: An Open-Source Ab Initio Electronic Structure Package
                               Psi4 1.3.2 release

                         Git: Rev {HEAD} ecbda83 


    R. M. Parrish, L. A. Burns, D. G. A. Smith, A. C. Simmonett,
    A. E. DePrince III, E. G. Hohenstein, U. Bozkaya, A. Yu. Sokolov,
    R. Di Remigio, R. M. Richard, J. F. Gonthier, A. M. James,
    H. R. McAlexander, A. Kumar, M. Saitow, X. Wang, B. P. Pritchard,
    P. Verma, H. F. Schaefer III, K. Patkowski, R. A. King, E. F. Valeev,
    F. A. Evangelista, J. M. Turney, T. D. Crawford, and C. D. Sherrill,
    J. Chem. Theory Comput. 13(7) pp 3185--3197 (2017).
    (doi: 10.1021/acs.jctc.7b00174)


                         Additional Contributions by
    P. Kraus, H. Kruse, M. H. Lechner, M. C. Schieber, R. A. Shaw,
    A. Alenaizan, R. Galvelis, Z. L. Glick, S. Lehtola, and J. P. Misiewicz

    -----------------------------------------------------------------------


    Psi4 started on: Tuesday, 10 November 2020 05:44AM

    Process ID: 43487
    Host:       node37.bme.utexas.edu
    PSIDATADIR: /home/xy3866/psi4conda/share/psi4
    Memory:     500.0 MiB
    Threads:    8
    
  ==> Input File <==

--------------------------------------------------------------------------
#psi4
#
memory 32 gb

molecule  {
0 1
  O       -3.2622350    -0.3059220     0.0067540
  C        1.5611120    -0.3149990    -0.0153800
  C        0.3099430    -0.9407630    -0.0100630
  C       -0.8692280    -0.1880260    -0.0014190
  C        1.5994260     1.0858870    -0.0069900
  C       -0.8168260     1.2117300     0.0064260
  C        0.4233030     1.8430470     0.0013400
  C        2.8326460    -1.1226230     0.0134670
  C       -2.1766910    -0.8792860    -0.0025100
  H        0.2498670    -2.0299540    -0.0200910
  H        2.5633596     1.5922023    -0.0650793
  H       -1.7471690     1.7737230     0.0102860
  H        2.6825510    -2.1081700    -0.4357140
  H        3.6321630    -0.6167660    -0.5349600
  H        3.1786260    -1.2736230     1.0416080
  H        0.4815460     2.9289630     0.0030700
  H       -2.1255320    -1.9885980    -0.0123860
units angstrom
no_reorient  #important for SAPT in psi4, default
symmetry c1  #important for SAPT in psi4, default
}

set PROPERTIES_ORIGIN ["COM"]
properties('MP2/aug-cc-pvtz', properties = ['dipole'])
--------------------------------------------------------------------------

  Memory set to  29.802 GiB by Python driver.
    SCF Algorithm Type (re)set to DF.

*** tstart() called on node37.bme.utexas.edu
*** at Tue Nov 10 05:44:47 2020

   => Loading Basis Set <=

    Name: AUG-CC-PVTZ
    Role: ORBITAL
    Keyword: BASIS
    atoms 1     entry O          line   327 file /home/xy3866/psi4conda/share/psi4/basis/aug-cc-pvtz.gbs 
    atoms 2-9   entry C          line   235 file /home/xy3866/psi4conda/share/psi4/basis/aug-cc-pvtz.gbs 
    atoms 10-17 entry H          line    36 file /home/xy3866/psi4conda/share/psi4/basis/aug-cc-pvtz.gbs 


         ---------------------------------------------------------
                                   SCF
               by Justin Turney, Rob Parrish, Andy Simmonett
                          and Daniel G. A. Smith
                              RHF Reference
                        8 Threads,  30517 MiB Core
         ---------------------------------------------------------

  ==> Geometry <==

    Molecular point group: c1
    Full point group: C1

    Geometry (in Angstrom), charge = 0, multiplicity = 1:

       Center              X                  Y                   Z               Mass       
    ------------   -----------------  -----------------  -----------------  -----------------
         O           -3.188688789087    -0.320171075398     0.007477723592    15.994914619570
         C            1.634658210913    -0.329248075398    -0.014656276408    12.000000000000
         C            0.383489210913    -0.955012075398    -0.009339276408    12.000000000000
         C           -0.795681789087    -0.202275075398    -0.000695276408    12.000000000000
         C            1.672972210913     1.071637924602    -0.006266276408    12.000000000000
         C           -0.743279789087     1.197480924602     0.007149723592    12.000000000000
         C            0.496849210913     1.828797924602     0.002063723592    12.000000000000
         C            2.906192210913    -1.136872075398     0.014190723592    12.000000000000
         C           -2.103144789087    -0.893535075398    -0.001786276408    12.000000000000
         H            0.323413210913    -2.044203075398    -0.019367276408     1.007825032230
         H            2.636905810913     1.577953224602    -0.064355576408     1.007825032230
         H           -1.673622789087     1.759473924602     0.011009723592     1.007825032230
         H            2.756097210913    -2.122419075398    -0.434990276408     1.007825032230
         H            3.705709210913    -0.631015075398    -0.534236276408     1.007825032230
         H            3.252172210913    -1.287872075398     1.042331723592     1.007825032230
         H            0.555092210913     2.914713924602     0.003793723592     1.007825032230
         H           -2.051985789087    -2.002847075398    -0.011662276408     1.007825032230

  Running in c1 symmetry.

  Rotational constants: A =      0.11946  B =      0.03746  C =      0.02867 [cm^-1]
  Rotational constants: A =   3581.18479  B =   1123.03602  C =    859.54657 [MHz]
  Nuclear repulsion =  396.222020361727061

  Charge       = 0
  Multiplicity = 1
  Electrons    = 64
  Nalpha       = 32
  Nbeta        = 32

  ==> Algorithm <==

  SCF Algorithm Type is DF.
  DIIS enabled.
  MOM disabled.
  Fractional occupation disabled.
  Guess Type is SAD.
  Energy threshold   = 1.00e-10
  Density threshold  = 1.00e-10
  Integral threshold = 0.00e+00

  ==> Primary Basis <==

  Basis Set: AUG-CC-PVTZ
    Blend: AUG-CC-PVTZ
    Number of shells: 198
    Number of basis function: 598
    Number of Cartesian functions: 695
    Spherical Harmonics?: true
    Max angular momentum: 3

   => Loading Basis Set <=

    Name: (AUG-CC-PVTZ AUX)
    Role: JKFIT
    Keyword: DF_BASIS_SCF
    atoms 1     entry O          line   286 file /home/xy3866/psi4conda/share/psi4/basis/aug-cc-pvtz-jkfit.gbs 
    atoms 2-9   entry C          line   162 file /home/xy3866/psi4conda/share/psi4/basis/aug-cc-pvtz-jkfit.gbs 
    atoms 10-17 entry H          line    70 file /home/xy3866/psi4conda/share/psi4/basis/aug-cc-pvtz-jkfit.gbs 

  ==> Pre-Iterations <==

   -------------------------------------------------------
    Irrep   Nso     Nmo     Nalpha   Nbeta   Ndocc  Nsocc
   -------------------------------------------------------
     A        598     598       0       0       0       0
   -------------------------------------------------------
    Total     598     598      32      32      32       0
   -------------------------------------------------------

  ==> Integral Setup <==

  DFHelper Memory: AOs need 3.402 GiB; user supplied 22.352 GiB. Using in-core AOs.

  ==> MemDFJK: Density-Fitted J/K Matrices <==

    J tasked:                   Yes
    K tasked:                   Yes
    wK tasked:                   No
    OpenMP threads:               8
    Memory [MiB]:             22888
    Algorithm:                 Disk
    Schwarz Cutoff:           1E-12
    Mask sparsity (%):       5.1364
    Fitting Condition:        1E-10

   => Auxiliary Basis Set <=

  Basis Set: (AUG-CC-PVTZ AUX)
    Blend: AUG-CC-PVTZ-JKFIT
    Number of shells: 382
    Number of basis function: 1304
    Number of Cartesian functions: 1619
    Spherical Harmonics?: true
    Max angular momentum: 4

  Minimum eigenvalue in the overlap matrix is 5.9765321922E-07.
  Using Symmetric Orthogonalization.

  SCF Guess: Superposition of Atomic Densities via on-the-fly atomic UHF.

  ==> Iterations <==

                           Total Energy        Delta E     RMS |[F,P]|

   @DF-RHF iter SAD:  -381.74104822491734   -3.81741e+02   0.00000e+00 
   @DF-RHF iter   1:  -382.33955373948243   -5.98506e-01   1.12476e-03 DIIS
   @DF-RHF iter   2:  -382.53760846515951   -1.98055e-01   6.25972e-04 DIIS
   @DF-RHF iter   3:  -382.59305980654744   -5.54513e-02   1.41252e-04 DIIS
   @DF-RHF iter   4:  -382.59680037978057   -3.74057e-03   5.87212e-05 DIIS
   @DF-RHF iter   5:  -382.59746504225029   -6.64662e-04   1.10124e-05 DIIS
   @DF-RHF iter   6:  -382.59750430645141   -3.92642e-05   4.48846e-06 DIIS
   @DF-RHF iter   7:  -382.59751275931342   -8.45286e-06   1.77707e-06 DIIS
   @DF-RHF iter   8:  -382.59751434348254   -1.58417e-06   7.95021e-07 DIIS
   @DF-RHF iter   9:  -382.59751465516598   -3.11683e-07   3.17622e-07 DIIS
   @DF-RHF iter  10:  -382.59751470274335   -4.75774e-08   8.48118e-08 DIIS
   @DF-RHF iter  11:  -382.59751470743737   -4.69402e-09   3.72055e-08 DIIS
   @DF-RHF iter  12:  -382.59751470819526   -7.57893e-10   1.44319e-08 DIIS
   @DF-RHF iter  13:  -382.59751470841417   -2.18904e-10   8.00877e-09 DIIS
   @DF-RHF iter  14:  -382.59751470847181   -5.76392e-11   3.69274e-09 DIIS
   @DF-RHF iter  15:  -382.59751470848499   -1.31877e-11   1.25527e-09 DIIS
   @DF-RHF iter  16:  -382.59751470848744   -2.44427e-12   5.23510e-10 DIIS
   @DF-RHF iter  17:  -382.59751470848573    1.70530e-12   1.47408e-10 DIIS
   @DF-RHF iter  18:  -382.59751470848863   -2.89901e-12   4.02600e-11 DIIS
  Energy and wave function converged.


  ==> Post-Iterations <==

    Orbital Energies [Eh]
    ---------------------

    Doubly Occupied:                                                      

       1A    -20.554152     2A    -11.336695     3A    -11.259261  
       4A    -11.256918     5A    -11.254109     6A    -11.252759  
       7A    -11.250513     8A    -11.249291     9A    -11.237876  
      10A     -1.378814    11A     -1.172938    12A     -1.065798  
      13A     -1.042972    14A     -0.948581    15A     -0.891802  
      16A     -0.834637    17A     -0.772301    18A     -0.709040  
      19A     -0.678976    20A     -0.650148    21A     -0.619206  
      22A     -0.608942    23A     -0.590789    24A     -0.583434  
      25A     -0.552860    26A     -0.544454    27A     -0.520099  
      28A     -0.502785    29A     -0.489138    30A     -0.428451  
      31A     -0.353567    32A     -0.339633  

    Virtual:                                                              

      33A      0.023859    34A      0.029630    35A      0.035111  
      36A      0.040300    37A      0.045514    38A      0.051703  
      39A      0.058169    40A      0.061849    41A      0.071652  
      42A      0.079117    43A      0.083643    44A      0.096473  
      45A      0.100015    46A      0.102011    47A      0.107525  
      48A      0.113978    49A      0.117765    50A      0.124400  
      51A      0.127653    52A      0.129831    53A      0.130788  
      54A      0.135229    55A      0.136723    56A      0.143508  
      57A      0.149901    58A      0.151109    59A      0.157006  
      60A      0.162279    61A      0.164963    62A      0.169022  
      63A      0.173319    64A      0.185667    65A      0.187107  
      66A      0.194301    67A      0.204847    68A      0.213200  
      69A      0.223641    70A      0.226257    71A      0.234051  
      72A      0.238277    73A      0.241210    74A      0.254147  
      75A      0.255765    76A      0.259527    77A      0.272189  
      78A      0.274791    79A      0.285853    80A      0.292303  
      81A      0.293639    82A      0.296195    83A      0.300420  
      84A      0.304495    85A      0.321049    86A      0.323260  
      87A      0.329550    88A      0.331943    89A      0.333916  
      90A      0.343230    91A      0.349104    92A      0.350016  
      93A      0.355137    94A      0.357011    95A      0.359539  
      96A      0.369694    97A      0.373817    98A      0.384850  
      99A      0.388557   100A      0.399056   101A      0.405055  
     102A      0.406749   103A      0.413600   104A      0.416742  
     105A      0.418475   106A      0.425380   107A      0.433180  
     108A      0.436532   109A      0.441137   110A      0.449752  
     111A      0.450519   112A      0.453807   113A      0.466103  
     114A      0.467299   115A      0.474930   116A      0.475865  
     117A      0.479108   118A      0.486738   119A      0.488126  
     120A      0.495498   121A      0.497201   122A      0.502336  
     123A      0.502859   124A      0.510549   125A      0.514266  
     126A      0.523456   127A      0.527218   128A      0.531860  
     129A      0.535345   130A      0.539331   131A      0.542504  
     132A      0.546557   133A      0.548416   134A      0.558410  
     135A      0.562095   136A      0.573286   137A      0.578669  
     138A      0.596475   139A      0.599998   140A      0.617567  
     141A      0.621123   142A      0.628382   143A      0.633202  
     144A      0.642418   145A      0.650012   146A      0.674015  
     147A      0.677982   148A      0.686518   149A      0.687165  
     150A      0.699102   151A      0.707780   152A      0.710942  
     153A      0.714855   154A      0.727947   155A      0.734955  
     156A      0.737626   157A      0.743591   158A      0.750511  
     159A      0.759548   160A      0.769263   161A      0.787044  
     162A      0.803390   163A      0.809435   164A      0.811855  
     165A      0.815846   166A      0.825980   167A      0.831046  
     168A      0.841990   169A      0.849528   170A      0.854648  
     171A      0.858544   172A      0.869092   173A      0.870784  
     174A      0.880527   175A      0.883117   176A      0.884482  
     177A      0.890318   178A      0.893957   179A      0.907716  
     180A      0.910031   181A      0.914291   182A      0.924958  
     183A      0.929357   184A      0.932765   185A      0.936949  
     186A      0.949643   187A      0.950938   188A      0.953970  
     189A      0.956757   190A      0.967640   191A      0.971307  
     192A      0.977324   193A      0.983727   194A      0.991298  
     195A      0.999488   196A      1.007495   197A      1.012280  
     198A      1.020609   199A      1.023851   200A      1.027070  
     201A      1.029446   202A      1.037332   203A      1.043115  
     204A      1.046572   205A      1.059168   206A      1.066715  
     207A      1.072655   208A      1.079868   209A      1.086026  
     210A      1.090278   211A      1.092364   212A      1.095325  
     213A      1.100117   214A      1.103820   215A      1.111676  
     216A      1.116767   217A      1.132636   218A      1.142504  
     219A      1.145638   220A      1.151852   221A      1.161821  
     222A      1.169134   223A      1.179036   224A      1.183392  
     225A      1.190046   226A      1.192365   227A      1.197857  
     228A      1.201870   229A      1.207522   230A      1.216668  
     231A      1.220157   232A      1.224562   233A      1.234701  
     234A      1.242471   235A      1.254339   236A      1.260626  
     237A      1.264055   238A      1.278326   239A      1.280505  
     240A      1.292814   241A      1.299266   242A      1.307732  
     243A      1.320056   244A      1.329012   245A      1.334648  
     246A      1.352196   247A      1.353223   248A      1.370086  
     249A      1.382880   250A      1.387433   251A      1.398089  
     252A      1.402674   253A      1.411922   254A      1.421713  
     255A      1.432950   256A      1.442493   257A      1.449741  
     258A      1.452811   259A      1.474263   260A      1.494239  
     261A      1.506214   262A      1.512305   263A      1.524470  
     264A      1.537632   265A      1.542292   266A      1.545954  
     267A      1.555180   268A      1.558443   269A      1.575298  
     270A      1.590839   271A      1.593385   272A      1.619628  
     273A      1.629676   274A      1.636359   275A      1.645906  
     276A      1.655146   277A      1.664435   278A      1.684359  
     279A      1.698615   280A      1.704612   281A      1.716555  
     282A      1.721566   283A      1.727590   284A      1.739623  
     285A      1.745934   286A      1.755150   287A      1.765900  
     288A      1.779354   289A      1.786547   290A      1.801028  
     291A      1.806027   292A      1.821766   293A      1.827777  
     294A      1.842361   295A      1.851066   296A      1.864147  
     297A      1.865241   298A      1.869617   299A      1.883305  
     300A      1.886630   301A      1.894555   302A      1.903623  
     303A      1.915874   304A      1.921175   305A      1.930903  
     306A      1.948563   307A      1.959021   308A      1.968555  
     309A      1.985177   310A      2.006571   311A      2.018106  
     312A      2.023366   313A      2.030661   314A      2.036500  
     315A      2.038044   316A      2.058474   317A      2.074501  
     318A      2.084519   319A      2.088013   320A      2.098097  
     321A      2.105552   322A      2.115075   323A      2.120358  
     324A      2.138194   325A      2.155220   326A      2.161412  
     327A      2.167982   328A      2.189137   329A      2.192156  
     330A      2.206145   331A      2.208522   332A      2.229298  
     333A      2.239328   334A      2.255150   335A      2.266964  
     336A      2.275226   337A      2.290780   338A      2.299178  
     339A      2.320112   340A      2.332810   341A      2.339999  
     342A      2.368702   343A      2.377352   344A      2.381040  
     345A      2.404741   346A      2.410814   347A      2.425438  
     348A      2.429832   349A      2.457504   350A      2.469998  
     351A      2.486323   352A      2.516915   353A      2.522402  
     354A      2.541991   355A      2.556981   356A      2.564801  
     357A      2.569033   358A      2.601023   359A      2.619052  
     360A      2.640741   361A      2.651964   362A      2.712249  
     363A      2.735311   364A      2.740896   365A      2.756678  
     366A      2.767921   367A      2.779548   368A      2.812595  
     369A      2.851341   370A      2.871149   371A      2.881205  
     372A      2.922379   373A      2.938233   374A      2.956595  
     375A      2.965036   376A      3.019781   377A      3.059382  
     378A      3.127685   379A      3.145784   380A      3.182402  
     381A      3.197047   382A      3.216826   383A      3.235966  
     384A      3.240019   385A      3.257493   386A      3.271977  
     387A      3.284530   388A      3.297431   389A      3.323883  
     390A      3.332109   391A      3.339211   392A      3.347255  
     393A      3.359262   394A      3.389854   395A      3.407263  
     396A      3.421001   397A      3.444228   398A      3.448480  
     399A      3.470967   400A      3.485924   401A      3.488299  
     402A      3.503026   403A      3.507505   404A      3.509382  
     405A      3.516640   406A      3.532326   407A      3.546763  
     408A      3.564799   409A      3.570491   410A      3.581884  
     411A      3.586261   412A      3.611556   413A      3.619038  
     414A      3.631405   415A      3.641823   416A      3.654366  
     417A      3.677610   418A      3.687679   419A      3.691330  
     420A      3.708445   421A      3.715396   422A      3.722999  
     423A      3.730133   424A      3.748751   425A      3.756984  
     426A      3.765368   427A      3.777803   428A      3.793138  
     429A      3.831738   430A      3.838571   431A      3.844316  
     432A      3.857303   433A      3.871601   434A      3.882530  
     435A      3.892918   436A      3.905381   437A      3.912158  
     438A      3.917046   439A      3.928187   440A      3.952996  
     441A      3.962855   442A      3.965489   443A      3.986768  
     444A      3.997089   445A      4.015770   446A      4.020866  
     447A      4.028689   448A      4.038708   449A      4.047063  
     450A      4.062446   451A      4.071619   452A      4.074144  
     453A      4.100525   454A      4.119294   455A      4.140130  
     456A      4.151408   457A      4.158189   458A      4.171512  
     459A      4.183594   460A      4.191912   461A      4.206206  
     462A      4.215704   463A      4.229334   464A      4.242478  
     465A      4.243476   466A      4.261212   467A      4.268643  
     468A      4.293797   469A      4.299802   470A      4.314781  
     471A      4.325236   472A      4.339216   473A      4.359154  
     474A      4.375299   475A      4.377735   476A      4.394092  
     477A      4.411989   478A      4.412775   479A      4.423370  
     480A      4.433819   481A      4.449568   482A      4.457461  
     483A      4.469329   484A      4.479544   485A      4.489953  
     486A      4.516015   487A      4.521326   488A      4.549473  
     489A      4.570152   490A      4.596929   491A      4.616104  
     492A      4.624263   493A      4.640892   494A      4.651196  
     495A      4.695957   496A      4.702788   497A      4.710128  
     498A      4.715705   499A      4.728675   500A      4.741854  
     501A      4.749505   502A      4.777740   503A      4.812750  
     504A      4.821336   505A      4.831311   506A      4.853570  
     507A      4.863725   508A      4.871063   509A      4.890815  
     510A      4.894148   511A      4.932335   512A      4.952896  
     513A      4.960209   514A      4.986792   515A      5.014664  
     516A      5.031036   517A      5.066324   518A      5.077482  
     519A      5.096992   520A      5.100148   521A      5.101207  
     522A      5.122082   523A      5.135145   524A      5.160775  
     525A      5.166290   526A      5.181161   527A      5.191945  
     528A      5.211199   529A      5.219042   530A      5.258811  
     531A      5.268039   532A      5.297650   533A      5.314448  
     534A      5.321474   535A      5.337253   536A      5.342010  
     537A      5.379495   538A      5.387114   539A      5.434480  
     540A      5.454422   541A      5.461249   542A      5.485793  
     543A      5.506685   544A      5.522958   545A      5.627581  
     546A      5.647125   547A      5.674225   548A      5.702765  
     549A      5.709674   550A      5.715678   551A      5.747877  
     552A      5.791952   553A      5.819270   554A      5.828578  
     555A      5.925677   556A      5.939886   557A      6.012588  
     558A      6.065443   559A      6.133045   560A      6.161385  
     561A      6.180102   562A      6.245721   563A      6.249299  
     564A      6.363269   565A      6.402083   566A      6.420478  
     567A      6.442053   568A      6.488467   569A      6.539115  
     570A      6.567922   571A      6.666932   572A      6.729513  
     573A      6.761913   574A      6.764554   575A      6.804538  
     576A      6.832640   577A      6.943376   578A      6.968425  
     579A      7.029065   580A      7.104478   581A      7.148515  
     582A      7.206777   583A      7.332348   584A      7.400582  
     585A      7.626341   586A      7.672344   587A      7.746505  
     588A      7.847299   589A      7.939834   590A     15.298431  
     591A     16.310021   592A     16.653893   593A     18.237283  
     594A     18.397138   595A     19.232599   596A     19.779871  
     597A     20.273837   598A     20.627152  

    Final Occupation by Irrep:
              A 
    DOCC [    32 ]

  @DF-RHF Final Energy:  -382.59751470848863

   => Energetics <=

    Nuclear Repulsion Energy =            396.2220203617270613
    One-Electron Energy =               -1303.7771881378907892
    Two-Electron Energy =                 524.9576530676750963
    Total Energy =                       -382.5975147084885748

Computation Completed

*** tstop() called on node37.bme.utexas.edu at Tue Nov 10 05:46:11 2020
Module time:
	user time   =     275.86 seconds =       4.60 minutes
	system time =      66.96 seconds =       1.12 minutes
	total time  =         84 seconds =       1.40 minutes
Total time:
	user time   =     275.86 seconds =       4.60 minutes
	system time =      66.96 seconds =       1.12 minutes
	total time  =         84 seconds =       1.40 minutes
   => Loading Basis Set <=

    Name: (AUG-CC-PVTZ AUX)
    Role: RIFIT
    Keyword: DF_BASIS_MP2
    atoms 1     entry O          line   264 file /home/xy3866/psi4conda/share/psi4/basis/aug-cc-pvtz-ri.gbs 
    atoms 2-9   entry C          line   148 file /home/xy3866/psi4conda/share/psi4/basis/aug-cc-pvtz-ri.gbs 
    atoms 10-17 entry H          line    30 file /home/xy3866/psi4conda/share/psi4/basis/aug-cc-pvtz-ri.gbs 


*** tstart() called on node37.bme.utexas.edu
*** at Tue Nov 10 05:46:11 2020


  //>>>>>>>>>>>>>>>>>>>>>>>>>>>>>>>>>>>//
  //               DFMP2               //
  //<<<<<<<<<<<<<<<<<<<<<<<<<<<<<<<<<<<//

	 --------------------------------------------------------
	                          DF-MP2                         
	      2nd-Order Density-Fitted Moller-Plesset Theory     
	              RMP2 Wavefunction,   8 Threads             
	                                                         
	        Rob Parrish, Justin Turney, Andy Simmonett,      
	           Ed Hohenstein, and C. David Sherrill          
	 --------------------------------------------------------

   => Auxiliary Basis Set <=

  Basis Set: (AUG-CC-PVTZ AUX)
    Blend: AUG-CC-PVTZ-RI
    Number of shells: 364
    Number of basis function: 1322
    Number of Cartesian functions: 1664
    Spherical Harmonics?: true
    Max angular momentum: 4

	 --------------------------------------------------------
	                 NBF =   598, NAUX =  1322
	 --------------------------------------------------------
	   CLASS    FOCC     OCC    AOCC    AVIR     VIR    FVIR
	   PAIRS       0      32      32     566     566       0
	 --------------------------------------------------------

  DFHelper Memory: AOs need 3.402 GiB; user supplied 22.352 GiB. Using in-core AOs.


         ------------------------------------------------------------
                                     CPHF                           
                                  Rob Parrish                       
         ------------------------------------------------------------

  ==> Geometry <==

    Molecular point group: c1
    Full point group: C1

    Geometry (in Angstrom), charge = 0, multiplicity = 1:

       Center              X                  Y                   Z               Mass       
    ------------   -----------------  -----------------  -----------------  -----------------
         O           -3.188688789087    -0.320171075398     0.007477723592    15.994914619570
         C            1.634658210913    -0.329248075398    -0.014656276408    12.000000000000
         C            0.383489210913    -0.955012075398    -0.009339276408    12.000000000000
         C           -0.795681789087    -0.202275075398    -0.000695276408    12.000000000000
         C            1.672972210913     1.071637924602    -0.006266276408    12.000000000000
         C           -0.743279789087     1.197480924602     0.007149723592    12.000000000000
         C            0.496849210913     1.828797924602     0.002063723592    12.000000000000
         C            2.906192210913    -1.136872075398     0.014190723592    12.000000000000
         C           -2.103144789087    -0.893535075398    -0.001786276408    12.000000000000
         H            0.323413210913    -2.044203075398    -0.019367276408     1.007825032230
         H            2.636905810913     1.577953224602    -0.064355576408     1.007825032230
         H           -1.673622789087     1.759473924602     0.011009723592     1.007825032230
         H            2.756097210913    -2.122419075398    -0.434990276408     1.007825032230
         H            3.705709210913    -0.631015075398    -0.534236276408     1.007825032230
         H            3.252172210913    -1.287872075398     1.042331723592     1.007825032230
         H            0.555092210913     2.914713924602     0.003793723592     1.007825032230
         H           -2.051985789087    -2.002847075398    -0.011662276408     1.007825032230

  Nuclear repulsion =  396.222020361727061
  Reference energy  = -382.597514708488632

  ==> Basis Set <==

  Basis Set: AUG-CC-PVTZ
    Blend: AUG-CC-PVTZ
    Number of shells: 198
    Number of basis function: 598
    Number of Cartesian functions: 695
    Spherical Harmonics?: true
    Max angular momentum: 3

  ==> CGRSolver (by Rob Parrish) <==

   Number of roots    =         1
   Preconditioning    =    JACOBI
   Convergence cutoff =     1E-06
   Maximum iterations =       100

  ==> CPHFRHamiltonian (by Rob Parrish) <== 

  ==> MemDFJK: Density-Fitted J/K Matrices <==

    J tasked:                   Yes
    K tasked:                   Yes
    wK tasked:                   No
    OpenMP threads:               8
    Memory [MiB]:             22888
    Algorithm:                 Disk
    Schwarz Cutoff:           1E-12
    Mask sparsity (%):       5.1364
    Fitting Condition:        1E-10

   => Auxiliary Basis Set <=

  Basis Set: (AUG-CC-PVTZ AUX)
    Blend: AUG-CC-PVTZ-JKFIT
    Number of shells: 382
    Number of basis function: 1304
    Number of Cartesian functions: 1619
    Spherical Harmonics?: true
    Max angular momentum: 4

  ==> CPHF Iterations <==

  => Iterations <=

             Iter  Converged  Remaining    Residual
  CGR           1          0          1   1.040E-01
  CGR           2          0          1   3.153E-02
  CGR           3          0          1   1.172E-02
  CGR           4          0          1   6.226E-03
  CGR           5          0          1   2.867E-03
  CGR           6          0          1   1.242E-03
  CGR           7          0          1   4.447E-04
  CGR           8          0          1   1.727E-04
  CGR           9          0          1   6.401E-05
  CGR          10          0          1   2.725E-05
  CGR          11          0          1   1.026E-05
  CGR          12          0          1   2.602E-06
  CGR          13          1          0   9.540E-07

    CGRSolver converged.

	-----------------------------------------------------------
	 ==================> DF-MP2 Energies <==================== 
	-----------------------------------------------------------
	 Reference Energy          =    -382.5975147084886316 [Eh]
	 Singles Energy            =      -0.0000000000000000 [Eh]
	 Same-Spin Energy          =      -0.4081400888374385 [Eh]
	 Opposite-Spin Energy      =      -1.2864196619428871 [Eh]
	 Correlation Energy        =      -1.6945597507803256 [Eh]
	 Total Energy              =    -384.2920744592689744 [Eh]
	-----------------------------------------------------------
	 ================> DF-SCS-MP2 Energies <================== 
	-----------------------------------------------------------
	 SCS Same-Spin Scale       =       0.3333333333333333 [-]
	 SCS Opposite-Spin Scale   =       1.2000000000000000 [-]
	 SCS Same-Spin Energy      =      -0.1360466962791461 [Eh]
	 SCS Opposite-Spin Energy  =      -1.5437035943314645 [Eh]
	 SCS Correlation Energy    =      -1.6797502906106108 [Eh]
	 SCS Total Energy          =    -384.2772649990992591 [Eh]
	-----------------------------------------------------------



Properties will be evaluated at   0.000000,   0.000000,   0.000000 [a0]

Properties computed using the MP2 density matrix

  Nuclear Dipole Moment: [e a0]
     X:     8.8942      Y:    -1.7229      Z:    -0.0070

  Electronic Dipole Moment: [e a0]
     X:    -7.4461      Y:     1.5284      Z:     0.0042

  Dipole Moment: [e a0]
     X:     1.4481      Y:    -0.1945      Z:    -0.0028     Total:     1.4611

  Dipole Moment: [D]
     X:     3.6807      Y:    -0.4943      Z:    -0.0071     Total:     3.7138


*** tstop() called on node37.bme.utexas.edu at Tue Nov 10 05:48:52 2020
Module time:
	user time   =     739.88 seconds =      12.33 minutes
	system time =     105.17 seconds =       1.75 minutes
	total time  =        161 seconds =       2.68 minutes
Total time:
	user time   =    1016.91 seconds =      16.95 minutes
	system time =     172.24 seconds =       2.87 minutes
	total time  =        245 seconds =       4.08 minutes

    Psi4 stopped on: Tuesday, 10 November 2020 05:48AM
    Psi4 wall time for execution: 0:04:06.08

*** Psi4 exiting successfully. Buy a developer a beer!
