V005_Propane Gaussian SP Calculation on node59.bme.utexas.edu           
Freq      RMP2-FC                                                     6-31G(d)            
Number of atoms                            I               11
Info1-9                                    I   N=           9
          21          21        1002           0           0         100
           6           2           1
Charge                                     I                0
Multiplicity                               I                1
Number of electrons                        I               26
Number of alpha electrons                  I               13
Number of beta electrons                   I               13
Number of basis functions                  I               61
Number of independent functions            I               61
Number of point charges in /Mol/           I                0
Number of translation vectors              I                0
Atomic numbers                             I   N=          11
           6           6           6           1           1           1
           1           1           1           1           1
Nuclear charges                            R   N=          11
  6.00000000E+00  6.00000000E+00  6.00000000E+00  1.00000000E+00  1.00000000E+00
  1.00000000E+00  1.00000000E+00  1.00000000E+00  1.00000000E+00  1.00000000E+00
  1.00000000E+00
Current cartesian coordinates              R   N=          33
  1.87170828E-07  1.11184590E+00 -1.95939455E-05  2.39664638E+00 -4.92157850E-01
 -1.62830340E-05 -2.39664657E+00 -4.92157838E-01  3.35662993E-05  1.72203614E-05
  2.35395897E+00  1.65742540E+00 -1.72693633E-05  2.35390133E+00 -1.65750771E+00
  2.46589916E+00 -1.71010820E+00  1.67031177E+00  2.46585475E+00 -1.71018170E+00
 -1.67029271E+00  4.09669514E+00  6.83768859E-01 -6.49664675E-05 -4.09669491E+00
  6.83769326E-01  3.50733672E-05 -2.46585753E+00 -1.71011874E+00  1.67035574E+00
 -2.46589654E+00 -1.71017113E+00 -1.67024873E+00
Force Field                                I                0
Int Atom Types                             I   N=          11
           0           0           0           0           0           0
           0           0           0           0           0
MM charges                                 R   N=          11
  0.00000000E+00  0.00000000E+00  0.00000000E+00  0.00000000E+00  0.00000000E+00
  0.00000000E+00  0.00000000E+00  0.00000000E+00  0.00000000E+00  0.00000000E+00
  0.00000000E+00
Integer atomic weights                     I   N=          11
          12          12          12           1           1           1
           1           1           1           1           1
Real atomic weights                        R   N=          11
  1.20000000E+01  1.20000000E+01  1.20000000E+01  1.00782504E+00  1.00782504E+00
  1.00782504E+00  1.00782504E+00  1.00782504E+00  1.00782504E+00  1.00782504E+00
  1.00782504E+00
Atom fragment info                         I   N=          11
           0           0           0           0           0           0
           0           0           0           0           0
Atom residue num                           I   N=          11
           0           0           0           0           0           0
           0           0           0           0           0
Nuclear spins                              I   N=          11
           0           0           0           1           1           1
           1           1           1           1           1
Nuclear ZEff                               R   N=          11
 -3.60000000E+00 -3.60000000E+00 -3.60000000E+00 -1.00000000E+00 -1.00000000E+00
 -1.00000000E+00 -1.00000000E+00 -1.00000000E+00 -1.00000000E+00 -1.00000000E+00
 -1.00000000E+00
Nuclear QMom                               R   N=          11
  0.00000000E+00  0.00000000E+00  0.00000000E+00  0.00000000E+00  0.00000000E+00
  0.00000000E+00  0.00000000E+00  0.00000000E+00  0.00000000E+00  0.00000000E+00
  0.00000000E+00
Nuclear GFac                               R   N=          11
  0.00000000E+00  0.00000000E+00  0.00000000E+00  2.79284600E+00  2.79284600E+00
  2.79284600E+00  2.79284600E+00  2.79284600E+00  2.79284600E+00  2.79284600E+00
  2.79284600E+00
MicOpt                                     I   N=          11
          -1          -1          -1          -1          -1          -1
          -1          -1          -1          -1          -1
Number of contracted shells                I               28
Number of primitive shells                 I               65
Pure/Cartesian d shells                    I                1
Pure/Cartesian f shells                    I                0
Highest angular momentum                   I                2
Largest degree of contraction              I                6
Shell types                                I   N=          28
           0          -1          -1           2           0          -1
          -1           2           0          -1          -1           2
           0           0           0           0           0           0
           0           0           0           0           0           0
           0           0           0           0
Number of primitives per shell             I   N=          28
           6           3           1           1           6           3
           1           1           6           3           1           1
           3           1           3           1           3           1
           3           1           3           1           3           1
           3           1           3           1
Shell to atom map                          I   N=          28
           1           1           1           1           2           2
           2           2           3           3           3           3
           4           4           5           5           6           6
           7           7           8           8           9           9
          10          10          11          11
Primitive exponents                        R   N=          65
  3.04752488E+03  4.57369518E+02  1.03948685E+02  2.92101553E+01  9.28666296E+00
  3.16392696E+00  7.86827235E+00  1.88128854E+00  5.44249258E-01  1.68714478E-01
  8.00000000E-01  3.04752488E+03  4.57369518E+02  1.03948685E+02  2.92101553E+01
  9.28666296E+00  3.16392696E+00  7.86827235E+00  1.88128854E+00  5.44249258E-01
  1.68714478E-01  8.00000000E-01  3.04752488E+03  4.57369518E+02  1.03948685E+02
  2.92101553E+01  9.28666296E+00  3.16392696E+00  7.86827235E+00  1.88128854E+00
  5.44249258E-01  1.68714478E-01  8.00000000E-01  1.87311370E+01  2.82539436E+00
  6.40121692E-01  1.61277759E-01  1.87311370E+01  2.82539436E+00  6.40121692E-01
  1.61277759E-01  1.87311370E+01  2.82539436E+00  6.40121692E-01  1.61277759E-01
  1.87311370E+01  2.82539436E+00  6.40121692E-01  1.61277759E-01  1.87311370E+01
  2.82539436E+00  6.40121692E-01  1.61277759E-01  1.87311370E+01  2.82539436E+00
  6.40121692E-01  1.61277759E-01  1.87311370E+01  2.82539436E+00  6.40121692E-01
  1.61277759E-01  1.87311370E+01  2.82539436E+00  6.40121692E-01  1.61277759E-01
Contraction coefficients                   R   N=          65
  1.83473713E-03  1.40373228E-02  6.88426223E-02  2.32184443E-01  4.67941348E-01
  3.62311985E-01 -1.19332420E-01 -1.60854152E-01  1.14345644E+00  1.00000000E+00
  1.00000000E+00  1.83473713E-03  1.40373228E-02  6.88426223E-02  2.32184443E-01
  4.67941348E-01  3.62311985E-01 -1.19332420E-01 -1.60854152E-01  1.14345644E+00
  1.00000000E+00  1.00000000E+00  1.83473713E-03  1.40373228E-02  6.88426223E-02
  2.32184443E-01  4.67941348E-01  3.62311985E-01 -1.19332420E-01 -1.60854152E-01
  1.14345644E+00  1.00000000E+00  1.00000000E+00  3.34946043E-02  2.34726953E-01
  8.13757326E-01  1.00000000E+00  3.34946043E-02  2.34726953E-01  8.13757326E-01
  1.00000000E+00  3.34946043E-02  2.34726953E-01  8.13757326E-01  1.00000000E+00
  3.34946043E-02  2.34726953E-01  8.13757326E-01  1.00000000E+00  3.34946043E-02
  2.34726953E-01  8.13757326E-01  1.00000000E+00  3.34946043E-02  2.34726953E-01
  8.13757326E-01  1.00000000E+00  3.34946043E-02  2.34726953E-01  8.13757326E-01
  1.00000000E+00  3.34946043E-02  2.34726953E-01  8.13757326E-01  1.00000000E+00
P(S=P) Contraction coefficients            R   N=          65
  0.00000000E+00  0.00000000E+00  0.00000000E+00  0.00000000E+00  0.00000000E+00
  0.00000000E+00  6.89990666E-02  3.16423961E-01  7.44308291E-01  1.00000000E+00
  0.00000000E+00  0.00000000E+00  0.00000000E+00  0.00000000E+00  0.00000000E+00
  0.00000000E+00  0.00000000E+00  6.89990666E-02  3.16423961E-01  7.44308291E-01
  1.00000000E+00  0.00000000E+00  0.00000000E+00  0.00000000E+00  0.00000000E+00
  0.00000000E+00  0.00000000E+00  0.00000000E+00  6.89990666E-02  3.16423961E-01
  7.44308291E-01  1.00000000E+00  0.00000000E+00  0.00000000E+00  0.00000000E+00
  0.00000000E+00  0.00000000E+00  0.00000000E+00  0.00000000E+00  0.00000000E+00
  0.00000000E+00  0.00000000E+00  0.00000000E+00  0.00000000E+00  0.00000000E+00
  0.00000000E+00  0.00000000E+00  0.00000000E+00  0.00000000E+00  0.00000000E+00
  0.00000000E+00  0.00000000E+00  0.00000000E+00  0.00000000E+00  0.00000000E+00
  0.00000000E+00  0.00000000E+00  0.00000000E+00  0.00000000E+00  0.00000000E+00
  0.00000000E+00  0.00000000E+00  0.00000000E+00  0.00000000E+00  0.00000000E+00
Coordinates of each shell                  R   N=          84
  1.87170828E-07  1.11184590E+00 -1.95939455E-05  1.87170828E-07  1.11184590E+00
 -1.95939455E-05  1.87170828E-07  1.11184590E+00 -1.95939455E-05  1.87170828E-07
  1.11184590E+00 -1.95939455E-05  2.39664638E+00 -4.92157850E-01 -1.62830340E-05
  2.39664638E+00 -4.92157850E-01 -1.62830340E-05  2.39664638E+00 -4.92157850E-01
 -1.62830340E-05  2.39664638E+00 -4.92157850E-01 -1.62830340E-05 -2.39664657E+00
 -4.92157838E-01  3.35662993E-05 -2.39664657E+00 -4.92157838E-01  3.35662993E-05
 -2.39664657E+00 -4.92157838E-01  3.35662993E-05 -2.39664657E+00 -4.92157838E-01
  3.35662993E-05  1.72203614E-05  2.35395897E+00  1.65742540E+00  1.72203614E-05
  2.35395897E+00  1.65742540E+00 -1.72693633E-05  2.35390133E+00 -1.65750771E+00
 -1.72693633E-05  2.35390133E+00 -1.65750771E+00  2.46589916E+00 -1.71010820E+00
  1.67031177E+00  2.46589916E+00 -1.71010820E+00  1.67031177E+00  2.46585475E+00
 -1.71018170E+00 -1.67029271E+00  2.46585475E+00 -1.71018170E+00 -1.67029271E+00
  4.09669514E+00  6.83768859E-01 -6.49664675E-05  4.09669514E+00  6.83768859E-01
 -6.49664675E-05 -4.09669491E+00  6.83769326E-01  3.50733672E-05 -4.09669491E+00
  6.83769326E-01  3.50733672E-05 -2.46585753E+00 -1.71011874E+00  1.67035574E+00
 -2.46585753E+00 -1.71011874E+00  1.67035574E+00 -2.46589654E+00 -1.71017113E+00
 -1.67024873E+00 -2.46589654E+00 -1.71017113E+00 -1.67024873E+00
Constraint Structure                       R   N=          33
  1.87170828E-07  1.11184590E+00 -1.95939455E-05  2.39664638E+00 -4.92157850E-01
 -1.62830340E-05 -2.39664657E+00 -4.92157838E-01  3.35662993E-05  1.72203614E-05
  2.35395897E+00  1.65742540E+00 -1.72693633E-05  2.35390133E+00 -1.65750771E+00
  2.46589916E+00 -1.71010820E+00  1.67031177E+00  2.46585475E+00 -1.71018170E+00
 -1.67029271E+00  4.09669514E+00  6.83768859E-01 -6.49664675E-05 -4.09669491E+00
  6.83769326E-01  3.50733672E-05 -2.46585753E+00 -1.71011874E+00  1.67035574E+00
 -2.46589654E+00 -1.71017113E+00 -1.67024873E+00
Num ILSW                                   I              100
ILSW                                       I   N=         100
           0           1           0           0           2           0
           0           0           0           0           0          -1
           0           0           0           0           0           0
           0           0           0           0           1           0
           1           0           0           0           0           0
           0           0      100000           0          -1           0
           0           0           0           0           0           0
           0           0           0           1           1           0
           0           0           1           0           0           0
           0           0           4          40           0           0
           0           0           0           0           0           0
           0           0           0           0           0           0
           0           0           0           0           0           0
           0           0           0           0           0           0
           0           0           0           0           0           0
           0           0           0           0           0           0
           0           0           0           0
Num RLSW                                   I               40
RLSW                                       R   N=          40
  1.00000000E+00  1.00000000E+00  1.00000000E+00  1.00000000E+00  1.00000000E+00
  0.00000000E+00  0.00000000E+00  1.00000000E+00  0.00000000E+00  0.00000000E+00
  0.00000000E+00  0.00000000E+00  1.00000000E+00  0.00000000E+00  0.00000000E+00
  0.00000000E+00  0.00000000E+00  1.00000000E+00  0.00000000E+00  0.00000000E+00
  0.00000000E+00  0.00000000E+00  1.00000000E+00  0.00000000E+00  0.00000000E+00
  0.00000000E+00  0.00000000E+00  1.00000000E+00  0.00000000E+00  0.00000000E+00
  0.00000000E+00  0.00000000E+00  0.00000000E+00  0.00000000E+00  0.00000000E+00
  0.00000000E+00  0.00000000E+00  0.00000000E+00  1.00000000E+00  1.00000000E+00
MxBond                                     I                4
NBond                                      I   N=          11
           4           4           4           1           1           1
           1           1           1           1           1
IBond                                      I   N=          44
           2           3           4           5           1           6
           7           8           1           9          10          11
           1           0           0           0           1           0
           0           0           2           0           0           0
           2           0           0           0           2           0
           0           0           3           0           0           0
           3           0           0           0           3           0
           0           0
RBond                                      R   N=          44
  1.00000000E+00  1.00000000E+00  1.00000000E+00  1.00000000E+00  1.00000000E+00
  1.00000000E+00  1.00000000E+00  1.00000000E+00  1.00000000E+00  1.00000000E+00
  1.00000000E+00  1.00000000E+00  1.00000000E+00  0.00000000E+00  0.00000000E+00
  0.00000000E+00  1.00000000E+00  0.00000000E+00  0.00000000E+00  0.00000000E+00
  1.00000000E+00  0.00000000E+00  0.00000000E+00  0.00000000E+00  1.00000000E+00
  0.00000000E+00  0.00000000E+00  0.00000000E+00  1.00000000E+00  0.00000000E+00
  0.00000000E+00  0.00000000E+00  1.00000000E+00  0.00000000E+00  0.00000000E+00
  0.00000000E+00  1.00000000E+00  0.00000000E+00  0.00000000E+00  0.00000000E+00
  1.00000000E+00  0.00000000E+00  0.00000000E+00  0.00000000E+00
Virial Ratio                               R      2.001058062903365E+00
SCF Energy                                 R     -1.182632635901101E+02
MP2 Energy                                 R     -1.186603431838972E+02
Total Energy                               R     -1.186603431838972E+02
Post-SCF wavefunction norm                 R      1.504913842025375E+00
RMS Force                                  R      1.120494631765870E-06
RMS Density                                R      1.111657962713019E-09
External E-field                           R   N=          35
  0.00000000E+00  0.00000000E+00  0.00000000E+00  0.00000000E+00  0.00000000E+00
  0.00000000E+00  0.00000000E+00  0.00000000E+00  0.00000000E+00  0.00000000E+00
  0.00000000E+00  0.00000000E+00  0.00000000E+00  0.00000000E+00  0.00000000E+00
  0.00000000E+00  0.00000000E+00  0.00000000E+00  0.00000000E+00  0.00000000E+00
  0.00000000E+00  0.00000000E+00  0.00000000E+00  0.00000000E+00  0.00000000E+00
  0.00000000E+00  0.00000000E+00  0.00000000E+00  0.00000000E+00  0.00000000E+00
  0.00000000E+00  0.00000000E+00  0.00000000E+00  0.00000000E+00  0.00000000E+00
IOpCl                                      I                0
IROHF                                      I                0
Alpha Orbital Energies                     R   N=          61
 -1.12180524E+01 -1.12107294E+01 -1.12106898E+01 -1.05268596E+00 -9.23965117E-01
 -7.98397953E-01 -6.23456560E-01 -5.97039208E-01 -5.49065670E-01 -5.30151093E-01
 -4.74732715E-01 -4.74659360E-01 -4.66735796E-01  2.32674085E-01  2.95156208E-01
  2.96051033E-01  2.96137638E-01  3.16744428E-01  3.41277942E-01  3.49669034E-01
  3.53340809E-01  3.93472798E-01  4.42384461E-01  7.13288219E-01  7.15623954E-01
  7.48932295E-01  7.61087992E-01  7.86695225E-01  9.39283736E-01  9.77609639E-01
  9.78057963E-01  1.01730786E+00  1.14243037E+00  1.16214566E+00  1.17193702E+00
  1.18720684E+00  1.20342038E+00  1.22844459E+00  1.23961029E+00  1.25083005E+00
  1.25556742E+00  1.64108153E+00  1.73673294E+00  1.75264245E+00  1.81477711E+00
  2.03967378E+00  2.20693053E+00  2.24578880E+00  2.29246028E+00  2.35702963E+00
  2.42041484E+00  2.57185167E+00  2.59556774E+00  2.67151368E+00  2.72844153E+00
  2.76213900E+00  2.92139748E+00  3.03109347E+00  4.57160561E+00  4.70799107E+00
  4.88994020E+00
Alpha MO coefficients                      R   N=        3721
  9.94196220E-01  2.83903769E-02  8.34380424E-11 -1.05873572E-04  2.00739322E-09
 -1.68414028E-02  4.66794165E-10  8.87516238E-04 -1.60191857E-08 -1.65467019E-03
 -1.64128653E-03 -1.56708749E-03 -3.57911936E-10  1.16485858E-09  1.38814047E-09
  4.03997089E-02  1.19421708E-03 -7.30328698E-05  2.94031065E-06  1.08508785E-09
  3.61372700E-03 -1.55881413E-03  1.03981022E-03 -4.26272012E-09 -4.35504703E-04
 -3.43345536E-04 -1.72628298E-04  2.13666602E-04 -5.98714563E-10  1.32210234E-09
  4.03996997E-02  1.19421684E-03  7.30332070E-05  2.94054542E-06 -9.33350407E-10
  3.61372695E-03  1.55881402E-03  1.03980997E-03 -3.36852408E-08 -4.35504638E-04
 -3.43345453E-04 -1.72628311E-04 -2.13666504E-04  6.92115542E-09  5.67091714E-09
  2.15148536E-04  2.64818149E-03  2.15148368E-04  2.64818126E-03 -1.54640900E-04
  1.19075150E-04 -1.54640712E-04  1.19071924E-04 -1.37134539E-04 -2.11019969E-05
 -1.37134582E-04 -2.11022729E-05 -1.54640778E-04  1.19072611E-04 -1.54640988E-04
  1.19074099E-04 -3.85745758E-06 -9.64553585E-08 -5.90367095E-05  4.42481399E-10
  6.01910107E-10  3.59990645E-07 -2.23008450E-03 -7.34183532E-08  2.14944774E-08
 -2.93576808E-08 -1.74602410E-08 -1.99238372E-09 -2.39080765E-04  4.14206021E-09
  2.54584258E-09 -7.04091336E-01 -2.02707206E-02  1.30936694E-04  5.10577075E-05
 -3.04619100E-09  1.12027592E-02 -8.58195666E-04 -9.62352779E-05  1.54804278E-08
  1.27819582E-03  1.24627722E-03  1.20408356E-03 -1.88354817E-05 -2.08560313E-10
 -2.89171115E-10  7.04185729E-01  2.02733847E-02  1.30930128E-04 -5.10560145E-05
 -8.24991067E-10 -1.12041199E-02 -8.58216771E-04  9.61863655E-05  1.02420832E-08
 -1.27836764E-03 -1.24645395E-03 -1.20426499E-03 -1.88374407E-05  9.88004410E-10
  1.24953926E-09 -1.29842350E-08 -5.82232145E-09 -1.30795822E-08 -7.06407487E-09
 -1.52513611E-04 -2.05860271E-03 -1.52514533E-04 -2.05859742E-03 -8.24607927E-05
 -1.44093072E-03  8.24709878E-05  1.44119358E-03  1.52522590E-04  2.05881895E-03
  1.52521828E-04  2.05882391E-03 -5.75482647E-02 -1.43938925E-03  3.74591192E-09
  8.39477463E-06 -1.21929279E-11  5.36636339E-03  1.49859927E-07 -1.09355868E-03
  1.79977340E-08 -4.37384376E-04 -2.60561425E-04 -2.87228669E-05  1.61184406E-08
  4.76624161E-09  4.68631866E-09  7.02952952E-01  1.98438701E-02  4.80850707E-05
  1.31044754E-05 -1.15983858E-09 -1.01366240E-02  1.53425463E-04 -3.64766923E-04
  7.90097895E-09 -1.27870880E-03 -1.31710438E-03 -1.35229707E-03  1.23117079E-05
 -1.01552420E-09 -7.97013592E-10  7.02858395E-01  1.98411473E-02 -4.81027468E-05
  1.31112542E-05  6.12501461E-10 -1.01351188E-02 -1.53310453E-04 -3.64779891E-04
  6.55331005E-09 -1.27853723E-03 -1.31693695E-03 -1.35213515E-03 -1.23094724E-05
 -5.00129198E-10 -6.17402046E-10 -1.93641202E-04 -9.57823772E-05 -1.93641431E-04
 -9.57835665E-05  6.07078527E-05  1.64866534E-03  6.07073880E-05  1.64866924E-03
  7.68534389E-05  1.95749636E-03  7.68422744E-05  1.95730291E-03  6.06867634E-05
  1.64839260E-03  6.06873943E-05  1.64838908E-03 -1.43673227E-01  2.66510074E-01
  4.43558569E-08 -4.29681067E-02  7.65051199E-07  2.24167553E-01 -8.61385961E-10
 -5.62771845E-03  1.12979650E-07  9.31326525E-03  6.22474088E-03  2.85350041E-03
 -7.05961749E-09 -7.76202704E-08 -6.98487993E-08 -1.07056348E-01  1.98333933E-01
 -5.24670565E-02  2.77098750E-02  6.01577581E-08  1.65854317E-01 -6.99000078E-03
  3.40221096E-03  5.29821809E-09  9.23226364E-03  4.63460226E-03  2.34235532E-03
 -4.84583494E-03  3.45800144E-09  6.06804774E-09 -1.07056294E-01  1.98333828E-01
  5.24670311E-02  2.77098505E-02 -1.03261832E-06  1.65854241E-01  6.99000739E-03
  3.40220939E-03 -1.31052621E-07  9.23226253E-03  4.63460200E-03  2.34235497E-03
  4.84583051E-03 -1.67877203E-07 -9.78063826E-08  7.87719576E-02  1.35804444E-02
  7.87719529E-02  1.35804513E-02  5.99931936E-02  1.14592506E-02  5.99932143E-02
  1.14592470E-02  5.64435442E-02  9.72956388E-03  5.64435236E-02  9.72956179E-03
  5.99931851E-02  1.14592388E-02  5.99931720E-02  1.14592496E-02  8.58635515E-09
 -8.89591610E-09  1.45930383E-01 -1.93149525E-08 -1.51794509E-06 -3.52584865E-08
  3.38808026E-02  2.83621461E-11 -3.36751534E-07 -2.54608260E-09 -1.16137101E-09
 -2.39961123E-09 -1.63975307E-02  2.89034726E-07  1.71147539E-07 -1.38477487E-01
  2.56679739E-01  2.33377337E-02  4.35330175E-06 -2.28518207E-07  2.66916495E-01
  8.28994197E-03 -2.97600693E-03 -3.78350560E-08  3.19664923E-03  6.72152454E-03
  7.55789097E-03  3.39246238E-03 -1.52475031E-08 -2.86423683E-08  1.38477531E-01
 -2.56679822E-01  2.33377370E-02 -4.35095468E-06 -2.37677548E-07 -2.66916573E-01
  8.28993827E-03  2.97600562E-03 -1.46289791E-07 -3.19664827E-03 -6.72153041E-03
 -7.55789367E-03  3.39246763E-03 -1.09217230E-07 -5.65121534E-08 -1.56136284E-08
 -9.81855473E-09 -1.65786645E-08  1.19289237E-09  9.57121847E-02  2.62673590E-02
  9.57121046E-02  2.62673148E-02  1.04348565E-01  3.13230235E-02 -1.04348604E-01
 -3.13230365E-02 -9.57121600E-02 -2.62673428E-02 -9.57121967E-02 -2.62673539E-02
 -1.26829812E-01  2.38124559E-01 -1.08949302E-08  1.29923259E-01 -2.27333081E-06
  2.96388616E-01 -4.09505348E-09  4.68329726E-02 -8.13293643E-07 -1.05187080E-02
  3.34756061E-03  1.68627044E-02 -2.40804841E-09  3.29158556E-07  2.70020671E-07
  7.94037812E-02 -1.47415499E-01 -9.58678229E-02  9.87397581E-02 -7.24413626E-07
 -1.88376238E-01 -2.78003638E-02  3.22838688E-02 -2.94098361E-07  4.53824960E-03
 -2.06483630E-03 -1.14180629E-02 -1.21036892E-02  1.04524410E-08 -8.36427746E-08
  7.94037748E-02 -1.47415495E-01  9.58677925E-02  9.87397197E-02 -2.73078156E-06
 -1.88376201E-01  2.78003547E-02  3.22838610E-02 -8.45858518E-07  4.53825506E-03
 -2.06483989E-03 -1.14180603E-02  1.21036887E-02 -4.08691376E-07 -3.08496643E-07
  1.36381937E-01  5.73369033E-02  1.36381953E-01  5.73369142E-02 -9.27875984E-02
 -4.14788224E-02 -9.27877487E-02 -4.14789374E-02 -7.29497810E-02 -3.21243071E-02
 -7.29497623E-02 -3.21243000E-02 -9.27876846E-02 -4.14788937E-02 -9.27876312E-02
 -4.14788567E-02  8.73063452E-09 -3.13970627E-08  3.09049655E-06  5.18579744E-06
  2.98047236E-01  3.48604126E-08  1.45623558E-06  2.45294903E-06  1.43654943E-01
 -4.77788606E-10  5.02481201E-07 -5.04510601E-07  1.73084252E-07  5.66488868E-10
  1.68715016E-02 -2.09303824E-09 -9.78516925E-09  2.28063817E-06  3.88590039E-06
  2.22405806E-01  2.39652477E-08  1.04090696E-06  1.79498667E-06  1.03363244E-01
 -1.49591045E-07 -5.36028349E-07  6.75523317E-07 -3.21329985E-07 -4.58547591E-03
 -1.32735461E-02 -9.07715269E-10  2.85404966E-08  2.29523757E-06  3.94710045E-06
  2.22405728E-01 -1.00999526E-07  9.84620578E-07  1.85713218E-06  1.03363211E-01
  1.16039079E-07 -3.44445938E-07  2.43251350E-07 -1.04888604E-07  4.58547471E-03
 -1.32735429E-02  1.44646963E-01  9.97143758E-02 -1.44646980E-01 -9.97143591E-02
  1.10190195E-01  7.98380757E-02 -1.10189524E-01 -7.98376059E-02 -6.93494388E-07
 -4.95493951E-07  3.20211983E-07  2.02755122E-07  1.10189677E-01  7.98377240E-02
 -1.10189974E-01 -7.98379077E-02  2.14808371E-02 -4.31566234E-02 -1.10987418E-07
  2.31936200E-01 -4.11148141E-06 -5.98075064E-02 -4.86502745E-08  1.10804514E-01
 -1.95144747E-06 -1.88362044E-03 -6.19388112E-03  1.20002477E-02  4.74881548E-09
  1.57908046E-07  3.57752819E-07 -8.57834001E-03  1.22130604E-02  2.56081068E-01
  1.23568396E-01 -4.87782336E-06  3.65585294E-02  1.17177148E-01  6.48021672E-02
 -2.39054035E-06  5.10786303E-03  4.30487886E-03 -6.78296558E-03  1.72266425E-02
 -5.84680962E-07 -6.03158910E-07 -8.57834160E-03  1.22130770E-02 -2.56080960E-01
  1.23568662E-01  6.04180954E-07  3.65584817E-02 -1.17177108E-01  6.48022810E-02
  1.49796923E-07  5.10786866E-03  4.30488286E-03 -6.78298318E-03 -1.72266414E-02
  9.87069128E-08  3.08426346E-08  6.58318709E-02  5.13771421E-02  6.58319440E-02
  5.13772306E-02 -3.36957560E-02 -2.65524805E-02 -3.36970423E-02 -2.65534674E-02
  1.82586715E-01  1.36942923E-01  1.82586757E-01  1.36942950E-01 -3.36967261E-02
 -2.65532017E-02 -3.36962702E-02 -2.65528800E-02  4.91528669E-09 -9.63227904E-10
  2.23900463E-01  5.29521762E-08 -2.31861221E-06 -3.80079598E-08  1.08757757E-01
  3.02052823E-08 -1.05833487E-06  3.94696889E-09 -6.67112732E-09 -2.14648692E-11
 -6.13594455E-03  9.12965664E-08  4.98057439E-08  3.15727540E-03  1.56926027E-04
  4.73879928E-03  3.05922033E-01 -5.78415891E-06 -2.73124711E-02  1.44666397E-02
  1.60664165E-01 -3.18677848E-06  1.86100453E-02  3.50371152E-04 -2.09294479E-02
  3.46800523E-03 -6.88621058E-07 -6.63963909E-07 -3.15728989E-03 -1.56896909E-04
  4.73859418E-03 -3.05921888E-01  5.76435688E-06  2.73125080E-02  1.44665230E-02
 -1.60664092E-01  2.90420880E-06 -1.86100388E-02 -3.50369904E-04  2.09294393E-02
  3.46799574E-03  4.78603261E-07  2.59885744E-07  1.89326814E-09 -6.78055822E-08
  1.21589333E-09  7.64592995E-08 -1.18953671E-01 -9.24556224E-02 -1.18954705E-01
 -9.24565024E-02  1.17563307E-01  9.40133638E-02 -1.17563168E-01 -9.40132416E-02
  1.18954691E-01  9.24564823E-02  1.18953603E-01  9.24555602E-02  1.20908437E-08
 -5.81670535E-08  3.85141948E-07  1.61776686E-07  1.46148915E-08  1.17268953E-07
  1.56016910E-07 -1.03926734E-07 -3.53921543E-09  1.97271857E-07 -1.19388484E-08
 -1.89222924E-07  1.89053943E-07  1.16877637E-02 -5.83030336E-10  4.18598526E-09
  2.09616344E-08  3.25908052E-06  5.86855158E-06  3.13171990E-01 -1.66956016E-07
  1.89822087E-06  3.29897890E-06  1.73668326E-01 -4.08678122E-08 -9.91266841E-07
  1.03311832E-06 -3.87244067E-07  2.05014425E-03 -2.62181783E-02  8.43588491E-10
  3.29370710E-08 -3.44502115E-06 -5.96703662E-06 -3.13172090E-01 -1.78890146E-07
 -2.02679455E-06 -3.25631411E-06 -1.73668370E-01 -2.95849377E-08  7.22891196E-07
 -6.70310602E-07  3.67585150E-07  2.05014472E-03  2.62181885E-02  5.29419576E-08
  1.11096728E-07  4.90340397E-08  1.02571391E-07  1.70111822E-01  1.40993349E-01
 -1.70111003E-01 -1.40992578E-01 -9.27573120E-07 -8.18958228E-07 -5.35182047E-07
 -4.97559018E-07 -1.70111044E-01 -1.40992629E-01  1.70111897E-01  1.40993405E-01
  1.19672728E-02 -3.30018359E-02 -2.21838446E-04  3.34965065E-01 -5.84562423E-06
 -1.36887003E-02 -1.15096326E-04  1.87693762E-01 -3.30196090E-06 -2.88669926E-02
  9.43978416E-03  2.43461426E-02  1.65915114E-05  6.43467061E-07  3.03740632E-07
  1.70708967E-02 -3.40990717E-02  6.80630008E-02 -2.58418008E-01  3.75653808E-06
 -6.22188218E-02  2.86062377E-02 -1.48976459E-01  2.26406443E-06 -2.25842118E-02
  7.06150441E-03  1.89006804E-02 -2.26633858E-03  6.50040906E-07  4.42570443E-07
  1.70452959E-02 -3.40475087E-02 -6.76321140E-02 -2.58409302E-01  5.38181332E-06
 -6.21375722E-02 -2.83565856E-02 -1.48988566E-01  2.99722950E-06 -2.25958332E-02
  7.06386373E-03  1.89040215E-02  2.29973217E-03  5.07503911E-07  1.34604584E-07
  1.33435539E-01  1.31833254E-01  1.33435550E-01  1.31833198E-01  9.87836946E-02
  1.06040558E-01  9.87849673E-02  1.06041775E-01 -8.83935896E-02 -8.00325300E-02
 -8.86246333E-02 -8.02533300E-02  9.87992927E-02  1.06046731E-01  9.87986540E-02
  1.06046142E-01  8.05032393E-06 -2.21860203E-05  3.29963865E-01  2.25225940E-04
 -3.48549712E-06 -9.26148371E-06  1.71244982E-01  1.26238595E-04 -1.87143215E-06
 -1.94127265E-05  6.34603679E-06  1.63678192E-05 -2.46807099E-02  4.33730288E-07
  2.67475695E-07 -1.90315774E-02  3.83254433E-02 -3.20400377E-01  6.34147566E-03
  3.08973001E-06  6.04226663E-02 -1.85681231E-01 -9.08013533E-03  2.02731565E-06
 -8.65712889E-03  1.76328414E-03  2.49662337E-03 -2.48325498E-02  6.88546676E-07
  4.52619483E-07  1.90545078E-02 -3.83712322E-02 -3.20491690E-01 -6.68889319E-03
  3.55381763E-06 -6.05063016E-02 -1.85719585E-01  8.87979990E-03  1.84158166E-06
  8.62673970E-03 -1.75377739E-03 -2.47120722E-03 -2.48294856E-02  2.48665555E-07
  3.10116357E-07  8.96954149E-05  8.86955772E-05  8.97254930E-05  8.86048779E-05
  1.09472771E-02  3.98327006E-03  1.09484877E-02  3.98445202E-03 -1.71853247E-01
 -1.64264592E-01  1.71734262E-01  1.64156837E-01 -1.08152228E-02 -3.84144913E-03
 -1.08148662E-02 -3.84103943E-03  4.11132171E-09 -4.88184083E-09  3.35708365E-06
  5.60662669E-06  3.17758323E-01 -3.89764638E-08  2.08803246E-06  3.53498283E-06
  1.98573628E-01  3.93143248E-10  1.13384808E-06 -1.13148633E-06  3.95535782E-07
 -5.52776953E-09  3.74754626E-02  7.04533502E-09 -2.25365347E-09 -2.03909013E-06
 -3.46751896E-06 -2.02201018E-01 -4.22090630E-08 -1.12356376E-06 -1.95648644E-06
 -1.24338084E-01 -3.46592120E-08  9.23651002E-07 -8.80918245E-07  2.72112773E-07
 -6.20930680E-03  2.54918545E-02  2.12439502E-09 -3.51132300E-08 -2.15040789E-06
 -3.55608361E-06 -2.02200949E-01  7.77064662E-08 -1.18987810E-06 -2.30267543E-06