
    -----------------------------------------------------------------------
          Psi4: An Open-Source Ab Initio Electronic Structure Package
                               Psi4 1.4a3.dev225 

                         Git: Rev {master} 7105e37 


    D. G. A. Smith, L. A. Burns, A. C. Simmonett, R. M. Parrish,
    M. C. Schieber, R. Galvelis, P. Kraus, H. Kruse, R. Di Remigio,
    A. Alenaizan, A. M. James, S. Lehtola, J. P. Misiewicz, M. Scheurer,
    R. A. Shaw, J. B. Schriber, Y. Xie, Z. L. Glick, D. A. Sirianni,
    J. S. O'Brien, J. M. Waldrop, A. Kumar, E. G. Hohenstein,
    B. P. Pritchard, B. R. Brooks, H. F. Schaefer III, A. Yu. Sokolov,
    K. Patkowski, A. E. DePrince III, U. Bozkaya, R. A. King,
    F. A. Evangelista, J. M. Turney, T. D. Crawford, C. D. Sherrill,
    J. Chem. Phys. 152(18) 184108 (2020). https://doi.org/10.1063/5.0006002

                            Additional Code Authors
    E. T. Seidl, C. L. Janssen, E. F. Valeev, M. L. Leininger,
    J. F. Gonthier, R. M. Richard, H. R. McAlexander, M. Saitow, X. Wang,
    P. Verma, and M. H. Lechner

             Previous Authors, Complete List of Code Contributors,
                       and Citations for Specific Modules
    https://github.com/psi4/psi4/blob/master/codemeta.json
    https://github.com/psi4/psi4/graphs/contributors
    http://psicode.org/psi4manual/master/introduction.html#citing-psifour

    -----------------------------------------------------------------------


    Psi4 started on: Saturday, 20 March 2021 08:45PM

    Process ID: 257586
    Host:       c446-001.stampede2.tacc.utexas.edu
    PSIDATADIR: /home1/07844/xy3866/miniconda3/envs/p4env/share/psi4
    Memory:     500.0 MiB
    Threads:    32
    
  ==> Input File <==

--------------------------------------------------------------------------
#psi4
#
memory 32 gb

molecule  {
0 1
  O       -0.0931590     2.3556990    -0.4150330
  N        1.0902530     0.4589530     0.1084880
  C        3.5423410    -1.0378250     0.1583630
  C        3.3922610     0.2419230    -0.6640150
  C        2.1860550    -1.7140940     0.3593590
  C        2.3559930     1.1736850    -0.0440690
  C        1.1838660    -0.7305840     0.9537980
  C       -0.0766810     1.1350293    -0.1126859
  C       -1.3555190     0.3759530    -0.0649830
  C       -2.4581180     0.9595770     0.5701650
  C       -1.5045770    -0.8456090    -0.7357740
  C       -3.6889550     0.3043920     0.5733300
  C       -2.7428150    -1.4894620    -0.7452070
  C       -3.8339540    -0.9208060    -0.0836890
  H        4.2467360    -1.7252930    -0.3235850
  H        3.9658390    -0.7874970     1.1407660
  H        4.3526700     0.7654030    -0.7430120
  H        3.0718610    -0.0071480    -1.6828650
  H        1.8013720    -2.0729510    -0.6033450
  H        2.2806590    -2.5842610     1.0203320
  H        2.7011300     1.5279490     0.9404770
  H        2.1670460     2.0514870    -0.6632420
  H        0.1966470    -1.1794980     1.0614980
  H        1.5220510    -0.4257650     1.9581480
  H       -2.3377960     1.9283990     1.0483720
  H       -0.6569890    -1.2752080    -1.2661150
  H       -4.5402850     0.7544580     1.0784950
  H       -2.8585310    -2.4316580    -1.2759100
  H       -4.7967310    -1.4262250    -0.0878670
units angstrom
no_reorient  #important for SAPT in psi4, default
symmetry c1  #important for SAPT in psi4, default
}

set PROPERTIES_ORIGIN ["COM"]
properties('MP2/aug-cc-pvtz', properties = ['dipole'])
--------------------------------------------------------------------------

  Memory set to  29.802 GiB by Python driver.
    SCF Algorithm Type (re)set to DF.

*** tstart() called on c446-001.stampede2.tacc.utexas.edu
*** at Sat Mar 20 20:45:13 2021

   => Loading Basis Set <=

    Name: AUG-CC-PVTZ
    Role: ORBITAL
    Keyword: BASIS
    atoms 1     entry O          line   331 file /home1/07844/xy3866/miniconda3/envs/p4env/share/psi4/basis/aug-cc-pvtz.gbs 
    atoms 2     entry N          line   285 file /home1/07844/xy3866/miniconda3/envs/p4env/share/psi4/basis/aug-cc-pvtz.gbs 
    atoms 3-14  entry C          line   239 file /home1/07844/xy3866/miniconda3/envs/p4env/share/psi4/basis/aug-cc-pvtz.gbs 
    atoms 15-29 entry H          line    40 file /home1/07844/xy3866/miniconda3/envs/p4env/share/psi4/basis/aug-cc-pvtz.gbs 


         ---------------------------------------------------------
                                   SCF
               by Justin Turney, Rob Parrish, Andy Simmonett
                          and Daniel G. A. Smith
                              RHF Reference
                       32 Threads,  30517 MiB Core
         ---------------------------------------------------------

  ==> Geometry <==

    Molecular point group: c1
    Full point group: C1

    Geometry (in Angstrom), charge = 0, multiplicity = 1:

       Center              X                  Y                   Z               Mass       
    ------------   -----------------  -----------------  -----------------  -----------------
         O           -0.034878419181     2.320850411629    -0.406945540464    15.994914619570
         N            1.148533580819     0.424104411629     0.116575459536    14.003074004430
         C            3.600621580819    -1.072673588371     0.166450459536    12.000000000000
         C            3.450541580819     0.207074411629    -0.655927540464    12.000000000000
         C            2.244335580819    -1.748942588371     0.367446459536    12.000000000000
         C            2.414273580819     1.138836411629    -0.035981540464    12.000000000000
         C            1.242146580819    -0.765432588371     0.961885459536    12.000000000000
         C           -0.018400419181     1.100180711629    -0.104598440464    12.000000000000
         C           -1.297238419181     0.341104411629    -0.056895540464    12.000000000000
         C           -2.399837419181     0.924728411629     0.578252459536    12.000000000000
         C           -1.446296419181    -0.880457588371    -0.727686540464    12.000000000000
         C           -3.630674419181     0.269543411629     0.581417459536    12.000000000000
         C           -2.684534419181    -1.524310588371    -0.737119540464    12.000000000000
         C           -3.775673419181    -0.955654588371    -0.075601540464    12.000000000000
         H            4.305016580819    -1.760141588371    -0.315497540464     1.007825032230
         H            4.024119580819    -0.822345588371     1.148853459536     1.007825032230
         H            4.410950580819     0.730554411629    -0.734924540464     1.007825032230
         H            3.130141580819    -0.041996588371    -1.674777540464     1.007825032230
         H            1.859652580819    -2.107799588371    -0.595257540464     1.007825032230
         H            2.338939580819    -2.619109588371     1.028419459536     1.007825032230
         H            2.759410580819     1.493100411629     0.948564459536     1.007825032230
         H            2.225326580819     2.016638411629    -0.655154540464     1.007825032230
         H            0.254927580819    -1.214346588371     1.069585459536     1.007825032230
         H            1.580331580819    -0.460613588371     1.966235459536     1.007825032230
         H           -2.279515419181     1.893550411629     1.056459459536     1.007825032230
         H           -0.598708419181    -1.310056588371    -1.258027540464     1.007825032230
         H           -4.482004419181     0.719609411629     1.086582459536     1.007825032230
         H           -2.800250419181    -2.466506588371    -1.267822540464     1.007825032230
         H           -4.738450419181    -1.461073588371    -0.079779540464     1.007825032230

  Running in c1 symmetry.

  Rotational constants: A =      0.05020  B =      0.01403  C =      0.01190 [cm^-1]
  Rotational constants: A =   1504.94299  B =    420.63983  C =    356.76493 [MHz]
  Nuclear repulsion =  877.109332306885904

  Charge       = 0
  Multiplicity = 1
  Electrons    = 102
  Nalpha       = 51
  Nbeta        = 51

  ==> Algorithm <==

  SCF Algorithm Type is DF.
  DIIS enabled.
  MOM disabled.
  Fractional occupation disabled.
  Guess Type is SAD.
  Energy threshold   = 1.00e-10
  Density threshold  = 1.00e-10
  Integral threshold = 1.00e-12

  ==> Primary Basis <==

  Basis Set: AUG-CC-PVTZ
    Blend: AUG-CC-PVTZ
    Number of shells: 331
    Number of basis functions: 989
    Number of Cartesian functions: 1145
    Spherical Harmonics?: true
    Max angular momentum: 3

   => Loading Basis Set <=

    Name: (AUG-CC-PVTZ AUX)
    Role: JKFIT
    Keyword: DF_BASIS_SCF
    atoms 1     entry O          line   286 file /home1/07844/xy3866/miniconda3/envs/p4env/share/psi4/basis/aug-cc-pvtz-jkfit.gbs 
    atoms 2     entry N          line   224 file /home1/07844/xy3866/miniconda3/envs/p4env/share/psi4/basis/aug-cc-pvtz-jkfit.gbs 
    atoms 3-14  entry C          line   162 file /home1/07844/xy3866/miniconda3/envs/p4env/share/psi4/basis/aug-cc-pvtz-jkfit.gbs 
    atoms 15-29 entry H          line    70 file /home1/07844/xy3866/miniconda3/envs/p4env/share/psi4/basis/aug-cc-pvtz-jkfit.gbs 

  ==> Integral Setup <==

  DFHelper Memory: AOs need 13.496 GiB; user supplied 22.352 GiB. Using in-core AOs.

  ==> MemDFJK: Density-Fitted J/K Matrices <==

    J tasked:                   Yes
    K tasked:                   Yes
    wK tasked:                   No
    OpenMP threads:              32
    Memory [MiB]:             22888
    Algorithm:                 Core
    Schwarz Cutoff:           1E-12
    Mask sparsity (%):      16.6697
    Fitting Condition:        1E-10

   => Auxiliary Basis Set <=

  Basis Set: (AUG-CC-PVTZ AUX)
    Blend: AUG-CC-PVTZ-JKFIT
    Number of shells: 630
    Number of basis functions: 2146
    Number of Cartesian functions: 2659
    Spherical Harmonics?: true
    Max angular momentum: 4

  Minimum eigenvalue in the overlap matrix is 4.7178180037E-07.
  Reciprocal condition number of the overlap matrix is 1.9250472373E-08.
    Using symmetric orthogonalization.

  ==> Pre-Iterations <==

  SCF Guess: Superposition of Atomic Densities via on-the-fly atomic UHF (no occupation information).

   -------------------------
    Irrep   Nso     Nmo    
   -------------------------
     A        989     989 
   -------------------------
    Total     989     989
   -------------------------

  ==> Iterations <==

                           Total Energy        Delta E     RMS |[F,P]|

   @DF-RHF iter SAD:  -592.53990379738002   -5.92540e+02   0.00000e+00 
   @DF-RHF iter   1:  -592.23866024042832    3.01244e-01   8.79518e-04 DIIS
   @DF-RHF iter   2:  -592.57804214920520   -3.39382e-01   4.82129e-04 DIIS
   @DF-RHF iter   3:  -592.67353984639942   -9.54977e-02   1.01370e-04 DIIS
   @DF-RHF iter   4:  -592.67965380487453   -6.11396e-03   4.30167e-05 DIIS
   @DF-RHF iter   5:  -592.68060404268567   -9.50238e-04   1.03160e-05 DIIS
   @DF-RHF iter   6:  -592.68069076141671   -8.67187e-05   4.14457e-06 DIIS
   @DF-RHF iter   7:  -592.68070690443551   -1.61430e-05   1.50803e-06 DIIS
   @DF-RHF iter   8:  -592.68071084306348   -3.93863e-06   7.44217e-07 DIIS
   @DF-RHF iter   9:  -592.68071168591405   -8.42851e-07   2.62331e-07 DIIS
   @DF-RHF iter  10:  -592.68071179291360   -1.07000e-07   9.50978e-08 DIIS
   @DF-RHF iter  11:  -592.68071180540187   -1.24883e-08   3.79500e-08 DIIS
   @DF-RHF iter  12:  -592.68071180720597   -1.80410e-09   1.72100e-08 DIIS
   @DF-RHF iter  13:  -592.68071180776394   -5.57975e-10   6.48976e-09 DIIS
   @DF-RHF iter  14:  -592.68071180786876   -1.04819e-10   2.88857e-09 DIIS
   @DF-RHF iter  15:  -592.68071180789173   -2.29647e-11   1.43921e-09 DIIS
   @DF-RHF iter  16:  -592.68071180789730   -5.57066e-12   5.57189e-10 DIIS
   @DF-RHF iter  17:  -592.68071180789616    1.13687e-12   2.05203e-10 DIIS
   @DF-RHF iter  18:  -592.68071180789684   -6.82121e-13   7.28236e-11 DIIS
  Energy and wave function converged.


  ==> Post-Iterations <==

    Orbital Energies [Eh]
    ---------------------

    Doubly Occupied:                                                      

       1A    -20.510458     2A    -15.584417     3A    -11.350188  
       4A    -11.268162     5A    -11.254486     6A    -11.251488  
       7A    -11.250313     8A    -11.248338     9A    -11.246228  
      10A    -11.245780    11A    -11.243697    12A    -11.231795  
      13A    -11.228639    14A    -11.225884    15A     -1.357892  
      16A     -1.248284    17A     -1.161704    18A     -1.085420  
      19A     -1.042092    20A     -1.026616    21A     -1.023411  
      22A     -0.927239    23A     -0.869166    24A     -0.847256  
      25A     -0.836304    26A     -0.794689    27A     -0.748757  
      28A     -0.721062    29A     -0.680843    30A     -0.651230  
      31A     -0.639292    32A     -0.631739    33A     -0.624873  
      34A     -0.610468    35A     -0.600088    36A     -0.594195  
      37A     -0.588503    38A     -0.560300    39A     -0.550409  
      40A     -0.532507    41A     -0.512672    42A     -0.504203  
      43A     -0.502229    44A     -0.495097    45A     -0.477357  
      46A     -0.469536    47A     -0.461248    48A     -0.421067  
      49A     -0.369653    50A     -0.345301    51A     -0.342264  

    Virtual:                                                              

      52A      0.023693    53A      0.028669    54A      0.031841  
      55A      0.034740    56A      0.040419    57A      0.041673  
      58A      0.049911    59A      0.052617    60A      0.055991  
      61A      0.056951    62A      0.060612    63A      0.071198  
      64A      0.074557    65A      0.077845    66A      0.078167  
      67A      0.086343    68A      0.095510    69A      0.098011  
      70A      0.105818    71A      0.108742    72A      0.110863  
      73A      0.112189    74A      0.115510    75A      0.117532  
      76A      0.120046    77A      0.121966    78A      0.124239  
      79A      0.126630    80A      0.129649    81A      0.130517  
      82A      0.134723    83A      0.139356    84A      0.141288  
      85A      0.145354    86A      0.146688    87A      0.148918  
      88A      0.153385    89A      0.156865    90A      0.157731  
      91A      0.160636    92A      0.165036    93A      0.167501  
      94A      0.172592    95A      0.176259    96A      0.178186  
      97A      0.180050    98A      0.185441    99A      0.190703  
     100A      0.195616   101A      0.199745   102A      0.206600  
     103A      0.211871   104A      0.217318   105A      0.220895  
     106A      0.224628   107A      0.229705   108A      0.230697  
     109A      0.236819   110A      0.240800   111A      0.244996  
     112A      0.249049   113A      0.256733   114A      0.257657  
     115A      0.258800   116A      0.261637   117A      0.268354  
     118A      0.273782   119A      0.280357   120A      0.284928  
     121A      0.286697   122A      0.292626   123A      0.297270  
     124A      0.298417   125A      0.300804   126A      0.303094  
     127A      0.310696   128A      0.311385   129A      0.313025  
     130A      0.317851   131A      0.320212   132A      0.324127  
     133A      0.326945   134A      0.329316   135A      0.332288  
     136A      0.337187   137A      0.339098   138A      0.340011  
     139A      0.342401   140A      0.347592   141A      0.350177  
     142A      0.352733   143A      0.354134   144A      0.361428  
     145A      0.365590   146A      0.366990   147A      0.370713  
     148A      0.373692   149A      0.380142   150A      0.383289  
     151A      0.386392   152A      0.392016   153A      0.396883  
     154A      0.404679   155A      0.407276   156A      0.410358  
     157A      0.411982   158A      0.418926   159A      0.421917  
     160A      0.424586   161A      0.427173   162A      0.428107  
     163A      0.433133   164A      0.435646   165A      0.437701  
     166A      0.443189   167A      0.446727   168A      0.451126  
     169A      0.454331   170A      0.459355   171A      0.461081  
     172A      0.466118   173A      0.467616   174A      0.472131  
     175A      0.477575   176A      0.480570   177A      0.482171  
     178A      0.484547   179A      0.487108   180A      0.491136  
     181A      0.493145   182A      0.497955   183A      0.502369  
     184A      0.502907   185A      0.504024   186A      0.506671  
     187A      0.511811   188A      0.515079   189A      0.517420  
     190A      0.518812   191A      0.522568   192A      0.528318  
     193A      0.530145   194A      0.534062   195A      0.535785  
     196A      0.538793   197A      0.539835   198A      0.543678  
     199A      0.547226   200A      0.552495   201A      0.552646  
     202A      0.556080   203A      0.560342   204A      0.564369  
     205A      0.567793   206A      0.571414   207A      0.576465  
     208A      0.577701   209A      0.581712   210A      0.588518  
     211A      0.592670   212A      0.598918   213A      0.600878  
     214A      0.605843   215A      0.606461   216A      0.613041  
     217A      0.615471   218A      0.618548   219A      0.626936  
     220A      0.633005   221A      0.633139   222A      0.642777  
     223A      0.644234   224A      0.647233   225A      0.651009  
     226A      0.654187   227A      0.659155   228A      0.664991  
     229A      0.669522   230A      0.673815   231A      0.677876  
     232A      0.681469   233A      0.684355   234A      0.694517  
     235A      0.695267   236A      0.697653   237A      0.700607  
     238A      0.704535   239A      0.706112   240A      0.710318  
     241A      0.718635   242A      0.719028   243A      0.724289  
     244A      0.728681   245A      0.730038   246A      0.732062  
     247A      0.743360   248A      0.745211   249A      0.755659  
     250A      0.759133   251A      0.767188   252A      0.774348  
     253A      0.779262   254A      0.784626   255A      0.790410  
     256A      0.793056   257A      0.800387   258A      0.802603  
     259A      0.819211   260A      0.820925   261A      0.827012  
     262A      0.828200   263A      0.832404   264A      0.834908  
     265A      0.836156   266A      0.844725   267A      0.851510  
     268A      0.859987   269A      0.862672   270A      0.866075  
     271A      0.867610   272A      0.869902   273A      0.875300  
     274A      0.880523   275A      0.887165   276A      0.887378  
     277A      0.893981   278A      0.901390   279A      0.902851  
     280A      0.905968   281A      0.906751   282A      0.914190  
     283A      0.918330   284A      0.922597   285A      0.924207  
     286A      0.932199   287A      0.933876   288A      0.936552  
     289A      0.943310   290A      0.948523   291A      0.950827  
     292A      0.954896   293A      0.959235   294A      0.966625  
     295A      0.970242   296A      0.973169   297A      0.977084  
     298A      0.978725   299A      0.982068   300A      0.990432  
     301A      0.992764   302A      0.996864   303A      1.002923  
     304A      1.005501   305A      1.010638   306A      1.021435  
     307A      1.022002   308A      1.028235   309A      1.030800  
     310A      1.037612   311A      1.040527   312A      1.043597  
     313A      1.045195   314A      1.050279   315A      1.053208  
     316A      1.058823   317A      1.066871   318A      1.069240  
     319A      1.071541   320A      1.077941   321A      1.083427  
     322A      1.084302   323A      1.089324   324A      1.091700  
     325A      1.095634   326A      1.098962   327A      1.101494  
     328A      1.106746   329A      1.108440   330A      1.110173  
     331A      1.116466   332A      1.120213   333A      1.123566  
     334A      1.127106   335A      1.135703   336A      1.138787  
     337A      1.143733   338A      1.145553   339A      1.148139  
     340A      1.150446   341A      1.160360   342A      1.161887  
     343A      1.169130   344A      1.174360   345A      1.175277  
     346A      1.177955   347A      1.181607   348A      1.191326  
     349A      1.195627   350A      1.197529   351A      1.202028  
     352A      1.204469   353A      1.212349   354A      1.213439  
     355A      1.216944   356A      1.223095   357A      1.226450  
     358A      1.228920   359A      1.234041   360A      1.240998  
     361A      1.242531   362A      1.246665   363A      1.251932  
     364A      1.256528   365A      1.264318   366A      1.266929  
     367A      1.269945   368A      1.275074   369A      1.281159  
     370A      1.285784   371A      1.294976   372A      1.296717  
     373A      1.302095   374A      1.304322   375A      1.309357  
     376A      1.319611   377A      1.322198   378A      1.329070  
     379A      1.334173   380A      1.339639   381A      1.346771  
     382A      1.348850   383A      1.361269   384A      1.361616  
     385A      1.369010   386A      1.373787   387A      1.375925  
     388A      1.381141   389A      1.384952   390A      1.401473  
     391A      1.404872   392A      1.412147   393A      1.419056  
     394A      1.424409   395A      1.429790   396A      1.434414  
     397A      1.440634   398A      1.442958   399A      1.446668  
     400A      1.459107   401A      1.460426   402A      1.466306  
     403A      1.468992   404A      1.474334   405A      1.483203  
     406A      1.484879   407A      1.496200   408A      1.508985  
     409A      1.511351   410A      1.515913   411A      1.517719  
     412A      1.521731   413A      1.524790   414A      1.535676  
     415A      1.543063   416A      1.547067   417A      1.550481  
     418A      1.559803   419A      1.563955   420A      1.566255  
     421A      1.572392   422A      1.576060   423A      1.579292  
     424A      1.580750   425A      1.589177   426A      1.596636  
     427A      1.599948   428A      1.607201   429A      1.611371  
     430A      1.612245   431A      1.626592   432A      1.638202  
     433A      1.639690   434A      1.648392   435A      1.652701  
     436A      1.658460   437A      1.663506   438A      1.664709  
     439A      1.670356   440A      1.677963   441A      1.691515  
     442A      1.698293   443A      1.704286   444A      1.712376  
     445A      1.713975   446A      1.721975   447A      1.728090  
     448A      1.732858   449A      1.735466   450A      1.737479  
     451A      1.742154   452A      1.748943   453A      1.755280  
     454A      1.757823   455A      1.763983   456A      1.771298  
     457A      1.772843   458A      1.778165   459A      1.791464  
     460A      1.795460   461A      1.804632   462A      1.805181  
     463A      1.814951   464A      1.818563   465A      1.825496  
     466A      1.827509   467A      1.835356   468A      1.845275  
     469A      1.846847   470A      1.855007   471A      1.856446  
     472A      1.860739   473A      1.861812   474A      1.865640  
     475A      1.873033   476A      1.882677   477A      1.883432  
     478A      1.893567   479A      1.894718   480A      1.903804  
     481A      1.911230   482A      1.914572   483A      1.924864  
     484A      1.930940   485A      1.933430   486A      1.940082  
     487A      1.949609   488A      1.955993   489A      1.961353  
     490A      1.965611   491A      1.971946   492A      1.975396  
     493A      1.987475   494A      1.991657   495A      1.995822  
     496A      2.002535   497A      2.006439   498A      2.009868  
     499A      2.015747   500A      2.021404   501A      2.025421  
     502A      2.028978   503A      2.039177   504A      2.040832  
     505A      2.046361   506A      2.048865   507A      2.053550  
     508A      2.058325   509A      2.060793   510A      2.067156  
     511A      2.076607   512A      2.077718   513A      2.087101  
     514A      2.096536   515A      2.104450   516A      2.109970  
     517A      2.116448   518A      2.122346   519A      2.131313  
     520A      2.142085   521A      2.150015   522A      2.152252  
     523A      2.157440   524A      2.166201   525A      2.171978  
     526A      2.174355   527A      2.184055   528A      2.186163  
     529A      2.198565   530A      2.205872   531A      2.212776  
     532A      2.226653   533A      2.234802   534A      2.241801  
     535A      2.245672   536A      2.258803   537A      2.272266  
     538A      2.277812   539A      2.281978   540A      2.297253  
     541A      2.305990   542A      2.307436   543A      2.319306  
     544A      2.320707   545A      2.324633   546A      2.338177  
     547A      2.342527   548A      2.348505   549A      2.354303  
     550A      2.361462   551A      2.370623   552A      2.382020  
     553A      2.389110   554A      2.394594   555A      2.404429  
     556A      2.410000   557A      2.422273   558A      2.427397  
     559A      2.431981   560A      2.440419   561A      2.458057  
     562A      2.460376   563A      2.470998   564A      2.475855  
     565A      2.483281   566A      2.492569   567A      2.496398  
     568A      2.509565   569A      2.515784   570A      2.519259  
     571A      2.542813   572A      2.552925   573A      2.563589  
     574A      2.572751   575A      2.581175   576A      2.589111  
     577A      2.592879   578A      2.601298   579A      2.605258  
     580A      2.610580   581A      2.628202   582A      2.637252  
     583A      2.639872   584A      2.649544   585A      2.666717  
     586A      2.668891   587A      2.674859   588A      2.678431  
     589A      2.683839   590A      2.708255   591A      2.719202  
     592A      2.736187   593A      2.740593   594A      2.747465  
     595A      2.771967   596A      2.779101   597A      2.787733  
     598A      2.794524   599A      2.811672   600A      2.818246  
     601A      2.828971   602A      2.837058   603A      2.848304  
     604A      2.864361   605A      2.879667   606A      2.897444  
     607A      2.901778   608A      2.906994   609A      2.916324  
     610A      2.943965   611A      2.974873   612A      2.993057  
     613A      3.026687   614A      3.050155   615A      3.054809  
     616A      3.067923   617A      3.074475   618A      3.107203  
     619A      3.117853   620A      3.140710   621A      3.160096  
     622A      3.173677   623A      3.187874   624A      3.196252  
     625A      3.218117   626A      3.248957   627A      3.261481  
     628A      3.271132   629A      3.290151   630A      3.306931  
     631A      3.336279   632A      3.348971   633A      3.368937  
     634A      3.376971   635A      3.384667   636A      3.396109  
     637A      3.407455   638A      3.419623   639A      3.426509  
     640A      3.443038   641A      3.451572   642A      3.462686  
     643A      3.474612   644A      3.487342   645A      3.491170  
     646A      3.507734   647A      3.516466   648A      3.520301  
     649A      3.526137   650A      3.538781   651A      3.544774  
     652A      3.548769   653A      3.557477   654A      3.565780  
     655A      3.570345   656A      3.579311   657A      3.589468  
     658A      3.597883   659A      3.613022   660A      3.624023  
     661A      3.629169   662A      3.633379   663A      3.642920  
     664A      3.647982   665A      3.656152   666A      3.659160  
     667A      3.672327   668A      3.678308   669A      3.682880  
     670A      3.690477   671A      3.700806   672A      3.707985  
     673A      3.727608   674A      3.732177   675A      3.744168  
     676A      3.758681   677A      3.762038   678A      3.766714  
     679A      3.776500   680A      3.785792   681A      3.788267  
     682A      3.797458   683A      3.803406   684A      3.805385  
     685A      3.814927   686A      3.829611   687A      3.833191  
     688A      3.841357   689A      3.846141   690A      3.849667  
     691A      3.855282   692A      3.863320   693A      3.869148  
     694A      3.883407   695A      3.890819   696A      3.896298  
     697A      3.899678   698A      3.907509   699A      3.918013  
     700A      3.919245   701A      3.928826   702A      3.934607  
     703A      3.948197   704A      3.952965   705A      3.960308  
     706A      3.964304   707A      3.977874   708A      3.985316  
     709A      3.988882   710A      3.992238   711A      3.997383  
     712A      4.004948   713A      4.011069   714A      4.017367  
     715A      4.022048   716A      4.024913   717A      4.029882  
     718A      4.036505   719A      4.042841   720A      4.045567  
     721A      4.047685   722A      4.060078   723A      4.068676  
     724A      4.077138   725A      4.080288   726A      4.090512  
     727A      4.096181   728A      4.105050   729A      4.106978  
     730A      4.124918   731A      4.126209   732A      4.139461  
     733A      4.143758   734A      4.152455   735A      4.163845  
     736A      4.165280   737A      4.176173   738A      4.184256  
     739A      4.191619   740A      4.194146   741A      4.200031  
     742A      4.215361   743A      4.220192   744A      4.227927  
     745A      4.239477   746A      4.244602   747A      4.250866  
     748A      4.258965   749A      4.265991   750A      4.275876  
     751A      4.287329   752A      4.295298   753A      4.300723  
     754A      4.308929   755A      4.312855   756A      4.318094  
     757A      4.325693   758A      4.329394   759A      4.344174  
     760A      4.348595   761A      4.355652   762A      4.365490  
     763A      4.372518   764A      4.378019   765A      4.383765  
     766A      4.387337   767A      4.394442   768A      4.406396  
     769A      4.407904   770A      4.419302   771A      4.427664  
     772A      4.440330   773A      4.447887   774A      4.455374  
     775A      4.465745   776A      4.474162   777A      4.479323  
     778A      4.482990   779A      4.495923   780A      4.499060  
     781A      4.507810   782A      4.513502   783A      4.526841  
     784A      4.532996   785A      4.542621   786A      4.553127  
     787A      4.576979   788A      4.582533   789A      4.595771  
     790A      4.601051   791A      4.605795   792A      4.619825  
     793A      4.642816   794A      4.660332   795A      4.666612  
     796A      4.675834   797A      4.686380   798A      4.697478  
     799A      4.701316   800A      4.716603   801A      4.722417  
     802A      4.725800   803A      4.736751   804A      4.741650  
     805A      4.751584   806A      4.755092   807A      4.772956  
     808A      4.777866   809A      4.784035   810A      4.792465  
     811A      4.802125   812A      4.825939   813A      4.828087  
     814A      4.832685   815A      4.846083   816A      4.859913  
     817A      4.864731   818A      4.880993   819A      4.892640  
     820A      4.910432   821A      4.920254   822A      4.922814  
     823A      4.932808   824A      4.952064   825A      4.955941  
     826A      4.963762   827A      4.978738   828A      4.982947  
     829A      4.988940   830A      4.991633   831A      5.003296  
     832A      5.010207   833A      5.016602   834A      5.038531  
     835A      5.055646   836A      5.059288   837A      5.078054  
     838A      5.085012   839A      5.090659   840A      5.106541  
     841A      5.114116   842A      5.124449   843A      5.132374  
     844A      5.138524   845A      5.147274   846A      5.161463  
     847A      5.165677   848A      5.172233   849A      5.177891  
     850A      5.184347   851A      5.194432   852A      5.197526  
     853A      5.211738   854A      5.224000   855A      5.233749  
     856A      5.242335   857A      5.249213   858A      5.262360  
     859A      5.269240   860A      5.273224   861A      5.282680  
     862A      5.291704   863A      5.306317   864A      5.320086  
     865A      5.329111   866A      5.342926   867A      5.346611  
     868A      5.354535   869A      5.360167   870A      5.378151  
     871A      5.383250   872A      5.389205   873A      5.403982  
     874A      5.412536   875A      5.421907   876A      5.422859  
     877A      5.444847   878A      5.460187   879A      5.467928  
     880A      5.481428   881A      5.489151   882A      5.494057  
     883A      5.523487   884A      5.529743   885A      5.550290  
     886A      5.559956   887A      5.586472   888A      5.591927  
     889A      5.605921   890A      5.615324   891A      5.620655  
     892A      5.654457   893A      5.655476   894A      5.674638  
     895A      5.681353   896A      5.684728   897A      5.707820  
     898A      5.724476   899A      5.736463   900A      5.756598  
     901A      5.777551   902A      5.786039   903A      5.799726  
     904A      5.803197   905A      5.812057   906A      5.818004  
     907A      5.845580   908A      5.854955   909A      5.878673  
     910A      5.889985   911A      5.899038   912A      5.914453  
     913A      5.951482   914A      5.973876   915A      5.987652  
     916A      5.996680   917A      6.022782   918A      6.066384  
     919A      6.071280   920A      6.120032   921A      6.139906  
     922A      6.149568   923A      6.168025   924A      6.199142  
     925A      6.208997   926A      6.215228   927A      6.227918  
     928A      6.248824   929A      6.256097   930A      6.259644  
     931A      6.269430   932A      6.305895   933A      6.329071  
     934A      6.349833   935A      6.375113   936A      6.387317  
     937A      6.400287   938A      6.421280   939A      6.441309  
     940A      6.519105   941A      6.539591   942A      6.575909  
     943A      6.602685   944A      6.620360   945A      6.639740  
     946A      6.681652   947A      6.702937   948A      6.754729  
     949A      6.772181   950A      6.793618   951A      6.856799  
     952A      6.897982   953A      6.928593   954A      6.935449  
     955A      6.944806   956A      6.967398   957A      6.997293  
     958A      7.010744   959A      7.034079   960A      7.095472  
     961A      7.103808   962A      7.110582   963A      7.140181  
     964A      7.154750   965A      7.161817   966A      7.284262  
     967A      7.300881   968A      7.341737   969A      7.529268  
     970A      7.534124   971A      7.687541   972A      7.808632  
     973A      7.841581   974A      8.022867   975A      8.134764  
     976A     15.427833   977A     16.219407   978A     16.687295  
     979A     17.459484   980A     18.140634   981A     18.578643  
     982A     18.954869   983A     19.051144   984A     19.205034  
     985A     19.403653   986A     19.821032   987A     20.248048  
     988A     20.619135   989A     22.122215  

    Final Occupation by Irrep:
              A 
    DOCC [    51 ]

  @DF-RHF Final Energy:  -592.68071180789684

   => Energetics <=

    Nuclear Repulsion Energy =            877.1093323068859036
    One-Electron Energy =               -2545.5904077295981551
    Two-Electron Energy =                1075.8003636148155238
    Total Energy =                       -592.6807118078968415

Computation Completed

*** tstop() called on c446-001.stampede2.tacc.utexas.edu at Sat Mar 20 20:46:49 2021
Module time:
	user time   =    2008.87 seconds =      33.48 minutes
	system time =     127.26 seconds =       2.12 minutes
	total time  =         96 seconds =       1.60 minutes
Total time:
	user time   =    2008.87 seconds =      33.48 minutes
	system time =     127.26 seconds =       2.12 minutes
	total time  =         96 seconds =       1.60 minutes
   => Loading Basis Set <=

    Name: (AUG-CC-PVTZ AUX)
    Role: RIFIT
    Keyword: DF_BASIS_MP2
    atoms 1     entry O          line   264 file /home1/07844/xy3866/miniconda3/envs/p4env/share/psi4/basis/aug-cc-pvtz-ri.gbs 
    atoms 2     entry N          line   206 file /home1/07844/xy3866/miniconda3/envs/p4env/share/psi4/basis/aug-cc-pvtz-ri.gbs 
    atoms 3-14  entry C          line   148 file /home1/07844/xy3866/miniconda3/envs/p4env/share/psi4/basis/aug-cc-pvtz-ri.gbs 
    atoms 15-29 entry H          line    30 file /home1/07844/xy3866/miniconda3/envs/p4env/share/psi4/basis/aug-cc-pvtz-ri.gbs 


*** tstart() called on c446-001.stampede2.tacc.utexas.edu
*** at Sat Mar 20 20:46:50 2021


  //>>>>>>>>>>>>>>>>>>>>>>>>>>>>>>>>>>>//
  //               DFMP2               //
  //<<<<<<<<<<<<<<<<<<<<<<<<<<<<<<<<<<<//

	 --------------------------------------------------------
	                          DF-MP2                         
	      2nd-Order Density-Fitted Moller-Plesset Theory     
	              RMP2 Wavefunction,  32 Threads             
	                                                         
	        Rob Parrish, Justin Turney, Andy Simmonett,      
	           Ed Hohenstein, and C. David Sherrill          
	 --------------------------------------------------------

   => Auxiliary Basis Set <=

  Basis Set: (AUG-CC-PVTZ AUX)
    Blend: AUG-CC-PVTZ-RI
    Number of shells: 602
    Number of basis functions: 2174
    Number of Cartesian functions: 2729
    Spherical Harmonics?: true
    Max angular momentum: 4

	 --------------------------------------------------------
	                 NBF =   989, NAUX =  2174
	 --------------------------------------------------------
	   CLASS    FOCC     OCC    AOCC    AVIR     VIR    FVIR
	   PAIRS       0      51      51     938     938       0
	 --------------------------------------------------------

  DFHelper Memory: AOs need 14.422 GiB; user supplied 22.352 GiB. Using in-core AOs.


         ------------------------------------------------------------
                                     CPHF                           
                                  Rob Parrish                       
         ------------------------------------------------------------

  ==> Geometry <==

    Molecular point group: c1
    Full point group: C1

    Geometry (in Angstrom), charge = 0, multiplicity = 1:

       Center              X                  Y                   Z               Mass       
    ------------   -----------------  -----------------  -----------------  -----------------
         O           -0.034878419181     2.320850411629    -0.406945540464    15.994914619570
         N            1.148533580819     0.424104411629     0.116575459536    14.003074004430
         C            3.600621580819    -1.072673588371     0.166450459536    12.000000000000
         C            3.450541580819     0.207074411629    -0.655927540464    12.000000000000
         C            2.244335580819    -1.748942588371     0.367446459536    12.000000000000
         C            2.414273580819     1.138836411629    -0.035981540464    12.000000000000
         C            1.242146580819    -0.765432588371     0.961885459536    12.000000000000
         C           -0.018400419181     1.100180711629    -0.104598440464    12.000000000000
         C           -1.297238419181     0.341104411629    -0.056895540464    12.000000000000
         C           -2.399837419181     0.924728411629     0.578252459536    12.000000000000
         C           -1.446296419181    -0.880457588371    -0.727686540464    12.000000000000
         C           -3.630674419181     0.269543411629     0.581417459536    12.000000000000
         C           -2.684534419181    -1.524310588371    -0.737119540464    12.000000000000
         C           -3.775673419181    -0.955654588371    -0.075601540464    12.000000000000
         H            4.305016580819    -1.760141588371    -0.315497540464     1.007825032230
         H            4.024119580819    -0.822345588371     1.148853459536     1.007825032230
         H            4.410950580819     0.730554411629    -0.734924540464     1.007825032230
         H            3.130141580819    -0.041996588371    -1.674777540464     1.007825032230
         H            1.859652580819    -2.107799588371    -0.595257540464     1.007825032230
         H            2.338939580819    -2.619109588371     1.028419459536     1.007825032230
         H            2.759410580819     1.493100411629     0.948564459536     1.007825032230
         H            2.225326580819     2.016638411629    -0.655154540464     1.007825032230
         H            0.254927580819    -1.214346588371     1.069585459536     1.007825032230
         H            1.580331580819    -0.460613588371     1.966235459536     1.007825032230
         H           -2.279515419181     1.893550411629     1.056459459536     1.007825032230
         H           -0.598708419181    -1.310056588371    -1.258027540464     1.007825032230
         H           -4.482004419181     0.719609411629     1.086582459536     1.007825032230
         H           -2.800250419181    -2.466506588371    -1.267822540464     1.007825032230
         H           -4.738450419181    -1.461073588371    -0.079779540464     1.007825032230

  Nuclear repulsion =  877.109332306885790
  Reference energy  = -592.680711807896841

  ==> Basis Set <==

  Basis Set: AUG-CC-PVTZ
    Blend: AUG-CC-PVTZ
    Number of shells: 331
    Number of basis functions: 989
    Number of Cartesian functions: 1145
    Spherical Harmonics?: true
    Max angular momentum: 3

  ==> CGRSolver (by Rob Parrish) <==

   Number of roots    =         1
   Preconditioning    =    JACOBI
   Convergence cutoff =     1E-06
   Maximum iterations =       100

  ==> CPHFRHamiltonian (by Rob Parrish) <== 

  ==> MemDFJK: Density-Fitted J/K Matrices <==

    J tasked:                   Yes
    K tasked:                   Yes
    wK tasked:                   No
    OpenMP threads:              32
    Memory [MiB]:             22888
    Algorithm:                 Core
    Schwarz Cutoff:           1E-12
    Mask sparsity (%):      10.7539
    Fitting Condition:        1E-10

   => Auxiliary Basis Set <=

  Basis Set: (AUG-CC-PVTZ AUX)
    Blend: AUG-CC-PVTZ-JKFIT
    Number of shells: 630
    Number of basis functions: 2146
    Number of Cartesian functions: 2659
    Spherical Harmonics?: true
    Max angular momentum: 4

  ==> CPHF Iterations <==

  => Iterations <=

             Iter  Converged  Remaining    Residual
  CGR           1          0          1   1.144E-01
  CGR           2          0          1   3.480E-02
  CGR           3          0          1   1.480E-02
  CGR           4          0          1   5.585E-03
  CGR           5          0          1   2.471E-03
  CGR           6          0          1   1.314E-03
  CGR           7          0          1   4.931E-04
  CGR           8          0          1   1.869E-04
  CGR           9          0          1   5.817E-05
  CGR          10          0          1   1.979E-05
  CGR          11          0          1   8.634E-06
  CGR          12          0          1   3.202E-06
  CGR          13          0          1   1.520E-06
  CGR          14          1          0   4.970E-07

    CGRSolver converged.

	-----------------------------------------------------------
	 ==================> DF-MP2 Energies <==================== 
	-----------------------------------------------------------
	 Reference Energy          =    -592.6807118078968415 [Eh]
	 Singles Energy            =      -0.0000000000000000 [Eh]
	 Same-Spin Energy          =      -0.6439359023825131 [Eh]
	 Opposite-Spin Energy      =      -2.0542189023009927 [Eh]
	 Correlation Energy        =      -2.6981548046835058 [Eh]
	 Total Energy              =    -595.3788666125803957 [Eh]
	-----------------------------------------------------------
	 ================> DF-SCS-MP2 Energies <================== 
	-----------------------------------------------------------
	 SCS Same-Spin Scale       =       0.3333333333333333 [-]
	 SCS Opposite-Spin Scale   =       1.2000000000000000 [-]
	 SCS Same-Spin Energy      =      -0.2146453007941710 [Eh]
	 SCS Opposite-Spin Energy  =      -2.4650626827611912 [Eh]
	 SCS Correlation Energy    =      -2.6797079835553621 [Eh]
	 SCS Total Energy          =    -595.3604197914521592 [Eh]
	-----------------------------------------------------------



Properties will be evaluated at  -0.000000,   0.000000,  -0.000000 [a0]

Properties computed using the MP2 density matrix

  Nuclear Dipole Moment: [e a0]
     X:    11.2367      Y:    -6.9372      Z:     1.6134

  Electronic Dipole Moment: [e a0]
     X:   -10.8075      Y:     5.5508      Z:    -1.1571

  Dipole Moment: [e a0]
     X:     0.4291      Y:    -1.3864      Z:     0.4563     Total:     1.5213

  Dipole Moment: [D]
     X:     1.0907      Y:    -3.5238      Z:     1.1597     Total:     3.8668


*** tstop() called on c446-001.stampede2.tacc.utexas.edu at Sat Mar 20 20:56:25 2021
Module time:
	user time   =    6851.17 seconds =     114.19 minutes
	system time =     197.72 seconds =       3.30 minutes
	total time  =        575 seconds =       9.58 minutes
Total time:
	user time   =    8861.47 seconds =     147.69 minutes
	system time =     325.01 seconds =       5.42 minutes
	total time  =        672 seconds =      11.20 minutes

    Psi4 stopped on: Saturday, 20 March 2021 08:56PM
    Psi4 wall time for execution: 0:11:15.07

*** Psi4 exiting successfully. Buy a developer a beer!
