093_DiethylCarbonate Gaussian SP Calculation on node142.bme.utexas.edu  
Freq      RMP2-FC                                                     6-31G(d)            
Number of atoms                            I               18
Info1-9                                    I   N=           9
          29          28        1002           0           0         100
           6           2           1
Charge                                     I                0
Multiplicity                               I                1
Number of electrons                        I               64
Number of alpha electrons                  I               32
Number of beta electrons                   I               32
Number of basis functions                  I              140
Number of independent functions            I              140
Number of point charges in /Mol/           I                0
Number of translation vectors              I                0
Atomic numbers                             I   N=          18
           8           8           8           6           6           6
           6           6           1           1           1           1
           1           1           1           1           1           1
Nuclear charges                            R   N=          18
  8.00000000E+00  8.00000000E+00  8.00000000E+00  6.00000000E+00  6.00000000E+00
  6.00000000E+00  6.00000000E+00  6.00000000E+00  1.00000000E+00  1.00000000E+00
  1.00000000E+00  1.00000000E+00  1.00000000E+00  1.00000000E+00  1.00000000E+00
  1.00000000E+00  1.00000000E+00  1.00000000E+00
Current cartesian coordinates              R   N=          54
  2.05002254E+00 -8.18001073E-01 -2.15049506E-05 -2.05002268E+00 -8.18000946E-01
 -1.90983720E-05  7.11418448E-17  2.98795395E+00  1.39109286E-05  4.42284795E+00
  5.49004473E-01 -7.39922161E-06 -4.42284759E+00  5.49004224E-01 -3.34299788E-06
  6.48767432E+00 -1.42340862E+00  1.93545322E-05 -6.48767444E+00 -1.42340851E+00
  1.61637358E-05  1.78469012E-07  6.85131374E-01 -6.42230685E-06  4.49746989E+00
  1.76099579E+00 -1.67131430E+00  4.49744154E+00  1.76101323E+00  1.67128765E+00
 -4.49744338E+00  1.76100840E+00  1.67129507E+00 -4.49746884E+00  1.76100056E+00
 -1.67130667E+00  8.33708867E+00 -5.01273445E-01  2.68665221E-05  6.34669402E+00
 -2.61874577E+00  1.67587001E+00  6.34671822E+00 -2.61876662E+00 -1.67581848E+00
 -8.33708864E+00 -5.01273012E-01  2.44751931E-05 -6.34671695E+00 -2.61876191E+00
 -1.67582484E+00 -6.34669592E+00 -2.61875035E+00  1.67586364E+00
Force Field                                I                0
Int Atom Types                             I   N=          18
           0           0           0           0           0           0
           0           0           0           0           0           0
           0           0           0           0           0           0
MM charges                                 R   N=          18
  0.00000000E+00  0.00000000E+00  0.00000000E+00  0.00000000E+00  0.00000000E+00
  0.00000000E+00  0.00000000E+00  0.00000000E+00  0.00000000E+00  0.00000000E+00
  0.00000000E+00  0.00000000E+00  0.00000000E+00  0.00000000E+00  0.00000000E+00
  0.00000000E+00  0.00000000E+00  0.00000000E+00
Integer atomic weights                     I   N=          18
          16          16          16          12          12          12
          12          12           1           1           1           1
           1           1           1           1           1           1
Real atomic weights                        R   N=          18
  1.59949146E+01  1.59949146E+01  1.59949146E+01  1.20000000E+01  1.20000000E+01
  1.20000000E+01  1.20000000E+01  1.20000000E+01  1.00782504E+00  1.00782504E+00
  1.00782504E+00  1.00782504E+00  1.00782504E+00  1.00782504E+00  1.00782504E+00
  1.00782504E+00  1.00782504E+00  1.00782504E+00
Atom fragment info                         I   N=          18
           0           0           0           0           0           0
           0           0           0           0           0           0
           0           0           0           0           0           0
Atom residue num                           I   N=          18
           0           0           0           0           0           0
           0           0           0           0           0           0
           0           0           0           0           0           0
Nuclear spins                              I   N=          18
           0           0           0           0           0           0
           0           0           1           1           1           1
           1           1           1           1           1           1
Nuclear ZEff                               R   N=          18
 -5.60000000E+00 -5.60000000E+00 -5.60000000E+00 -3.60000000E+00 -3.60000000E+00
 -3.60000000E+00 -3.60000000E+00 -3.60000000E+00 -1.00000000E+00 -1.00000000E+00
 -1.00000000E+00 -1.00000000E+00 -1.00000000E+00 -1.00000000E+00 -1.00000000E+00
 -1.00000000E+00 -1.00000000E+00 -1.00000000E+00
Nuclear QMom                               R   N=          18
  0.00000000E+00  0.00000000E+00  0.00000000E+00  0.00000000E+00  0.00000000E+00
  0.00000000E+00  0.00000000E+00  0.00000000E+00  0.00000000E+00  0.00000000E+00
  0.00000000E+00  0.00000000E+00  0.00000000E+00  0.00000000E+00  0.00000000E+00
  0.00000000E+00  0.00000000E+00  0.00000000E+00
Nuclear GFac                               R   N=          18
  0.00000000E+00  0.00000000E+00  0.00000000E+00  0.00000000E+00  0.00000000E+00
  0.00000000E+00  0.00000000E+00  0.00000000E+00  2.79284600E+00  2.79284600E+00
  2.79284600E+00  2.79284600E+00  2.79284600E+00  2.79284600E+00  2.79284600E+00
  2.79284600E+00  2.79284600E+00  2.79284600E+00
MicOpt                                     I   N=          18
          -1          -1          -1          -1          -1          -1
          -1          -1          -1          -1          -1          -1
          -1          -1          -1          -1          -1          -1
Number of contracted shells                I               52
Number of primitive shells                 I              128
Pure/Cartesian d shells                    I                1
Pure/Cartesian f shells                    I                0
Highest angular momentum                   I                2
Largest degree of contraction              I                6
Shell types                                I   N=          52
           0          -1          -1           2           0          -1
          -1           2           0          -1          -1           2
           0          -1          -1           2           0          -1
          -1           2           0          -1          -1           2
           0          -1          -1           2           0          -1
          -1           2           0           0           0           0
           0           0           0           0           0           0
           0           0           0           0           0           0
           0           0           0           0
Number of primitives per shell             I   N=          52
           6           3           1           1           6           3
           1           1           6           3           1           1
           6           3           1           1           6           3
           1           1           6           3           1           1
           6           3           1           1           6           3
           1           1           3           1           3           1
           3           1           3           1           3           1
           3           1           3           1           3           1
           3           1           3           1
Shell to atom map                          I   N=          52
           1           1           1           1           2           2
           2           2           3           3           3           3
           4           4           4           4           5           5
           5           5           6           6           6           6
           7           7           7           7           8           8
           8           8           9           9          10          10
          11          11          12          12          13          13
          14          14          15          15          16          16
          17          17          18          18
Primitive exponents                        R   N=         128
  5.48467166E+03  8.25234946E+02  1.88046958E+02  5.29645000E+01  1.68975704E+01
  5.79963534E+00  1.55396162E+01  3.59993359E+00  1.01376175E+00  2.70005823E-01
  8.00000000E-01  5.48467166E+03  8.25234946E+02  1.88046958E+02  5.29645000E+01
  1.68975704E+01  5.79963534E+00  1.55396162E+01  3.59993359E+00  1.01376175E+00
  2.70005823E-01  8.00000000E-01  5.48467166E+03  8.25234946E+02  1.88046958E+02
  5.29645000E+01  1.68975704E+01  5.79963534E+00  1.55396162E+01  3.59993359E+00
  1.01376175E+00  2.70005823E-01  8.00000000E-01  3.04752488E+03  4.57369518E+02
  1.03948685E+02  2.92101553E+01  9.28666296E+00  3.16392696E+00  7.86827235E+00
  1.88128854E+00  5.44249258E-01  1.68714478E-01  8.00000000E-01  3.04752488E+03
  4.57369518E+02  1.03948685E+02  2.92101553E+01  9.28666296E+00  3.16392696E+00
  7.86827235E+00  1.88128854E+00  5.44249258E-01  1.68714478E-01  8.00000000E-01
  3.04752488E+03  4.57369518E+02  1.03948685E+02  2.92101553E+01  9.28666296E+00
  3.16392696E+00  7.86827235E+00  1.88128854E+00  5.44249258E-01  1.68714478E-01
  8.00000000E-01  3.04752488E+03  4.57369518E+02  1.03948685E+02  2.92101553E+01
  9.28666296E+00  3.16392696E+00  7.86827235E+00  1.88128854E+00  5.44249258E-01
  1.68714478E-01  8.00000000E-01  3.04752488E+03  4.57369518E+02  1.03948685E+02
  2.92101553E+01  9.28666296E+00  3.16392696E+00  7.86827235E+00  1.88128854E+00
  5.44249258E-01  1.68714478E-01  8.00000000E-01  1.87311370E+01  2.82539436E+00
  6.40121692E-01  1.61277759E-01  1.87311370E+01  2.82539436E+00  6.40121692E-01
  1.61277759E-01  1.87311370E+01  2.82539436E+00  6.40121692E-01  1.61277759E-01
  1.87311370E+01  2.82539436E+00  6.40121692E-01  1.61277759E-01  1.87311370E+01
  2.82539436E+00  6.40121692E-01  1.61277759E-01  1.87311370E+01  2.82539436E+00
  6.40121692E-01  1.61277759E-01  1.87311370E+01  2.82539436E+00  6.40121692E-01
  1.61277759E-01  1.87311370E+01  2.82539436E+00  6.40121692E-01  1.61277759E-01
  1.87311370E+01  2.82539436E+00  6.40121692E-01  1.61277759E-01  1.87311370E+01
  2.82539436E+00  6.40121692E-01  1.61277759E-01
Contraction coefficients                   R   N=         128
  1.83107443E-03  1.39501722E-02  6.84450781E-02  2.32714336E-01  4.70192898E-01
  3.58520853E-01 -1.10777550E-01 -1.48026263E-01  1.13076702E+00  1.00000000E+00
  1.00000000E+00  1.83107443E-03  1.39501722E-02  6.84450781E-02  2.32714336E-01
  4.70192898E-01  3.58520853E-01 -1.10777550E-01 -1.48026263E-01  1.13076702E+00
  1.00000000E+00  1.00000000E+00  1.83107443E-03  1.39501722E-02  6.84450781E-02
  2.32714336E-01  4.70192898E-01  3.58520853E-01 -1.10777550E-01 -1.48026263E-01
  1.13076702E+00  1.00000000E+00  1.00000000E+00  1.83473713E-03  1.40373228E-02
  6.88426223E-02  2.32184443E-01  4.67941348E-01  3.62311985E-01 -1.19332420E-01
 -1.60854152E-01  1.14345644E+00  1.00000000E+00  1.00000000E+00  1.83473713E-03
  1.40373228E-02  6.88426223E-02  2.32184443E-01  4.67941348E-01  3.62311985E-01
 -1.19332420E-01 -1.60854152E-01  1.14345644E+00  1.00000000E+00  1.00000000E+00
  1.83473713E-03  1.40373228E-02  6.88426223E-02  2.32184443E-01  4.67941348E-01
  3.62311985E-01 -1.19332420E-01 -1.60854152E-01  1.14345644E+00  1.00000000E+00
  1.00000000E+00  1.83473713E-03  1.40373228E-02  6.88426223E-02  2.32184443E-01
  4.67941348E-01  3.62311985E-01 -1.19332420E-01 -1.60854152E-01  1.14345644E+00
  1.00000000E+00  1.00000000E+00  1.83473713E-03  1.40373228E-02  6.88426223E-02
  2.32184443E-01  4.67941348E-01  3.62311985E-01 -1.19332420E-01 -1.60854152E-01
  1.14345644E+00  1.00000000E+00  1.00000000E+00  3.34946043E-02  2.34726953E-01
  8.13757326E-01  1.00000000E+00  3.34946043E-02  2.34726953E-01  8.13757326E-01
  1.00000000E+00  3.34946043E-02  2.34726953E-01  8.13757326E-01  1.00000000E+00
  3.34946043E-02  2.34726953E-01  8.13757326E-01  1.00000000E+00  3.34946043E-02
  2.34726953E-01  8.13757326E-01  1.00000000E+00  3.34946043E-02  2.34726953E-01
  8.13757326E-01  1.00000000E+00  3.34946043E-02  2.34726953E-01  8.13757326E-01
  1.00000000E+00  3.34946043E-02  2.34726953E-01  8.13757326E-01  1.00000000E+00
  3.34946043E-02  2.34726953E-01  8.13757326E-01  1.00000000E+00  3.34946043E-02
  2.34726953E-01  8.13757326E-01  1.00000000E+00
P(S=P) Contraction coefficients            R   N=         128
  0.00000000E+00  0.00000000E+00  0.00000000E+00  0.00000000E+00  0.00000000E+00
  0.00000000E+00  7.08742682E-02  3.39752839E-01  7.27158577E-01  1.00000000E+00
  0.00000000E+00  0.00000000E+00  0.00000000E+00  0.00000000E+00  0.00000000E+00
  0.00000000E+00  0.00000000E+00  7.08742682E-02  3.39752839E-01  7.27158577E-01
  1.00000000E+00  0.00000000E+00  0.00000000E+00  0.00000000E+00  0.00000000E+00
  0.00000000E+00  0.00000000E+00  0.00000000E+00  7.08742682E-02  3.39752839E-01
  7.27158577E-01  1.00000000E+00  0.00000000E+00  0.00000000E+00  0.00000000E+00
  0.00000000E+00  0.00000000E+00  0.00000000E+00  0.00000000E+00  6.89990666E-02
  3.16423961E-01  7.44308291E-01  1.00000000E+00  0.00000000E+00  0.00000000E+00
  0.00000000E+00  0.00000000E+00  0.00000000E+00  0.00000000E+00  0.00000000E+00
  6.89990666E-02  3.16423961E-01  7.44308291E-01  1.00000000E+00  0.00000000E+00
  0.00000000E+00  0.00000000E+00  0.00000000E+00  0.00000000E+00  0.00000000E+00
  0.00000000E+00  6.89990666E-02  3.16423961E-01  7.44308291E-01  1.00000000E+00
  0.00000000E+00  0.00000000E+00  0.00000000E+00  0.00000000E+00  0.00000000E+00
  0.00000000E+00  0.00000000E+00  6.89990666E-02  3.16423961E-01  7.44308291E-01
  1.00000000E+00  0.00000000E+00  0.00000000E+00  0.00000000E+00  0.00000000E+00
  0.00000000E+00  0.00000000E+00  0.00000000E+00  6.89990666E-02  3.16423961E-01
  7.44308291E-01  1.00000000E+00  0.00000000E+00  0.00000000E+00  0.00000000E+00
  0.00000000E+00  0.00000000E+00  0.00000000E+00  0.00000000E+00  0.00000000E+00
  0.00000000E+00  0.00000000E+00  0.00000000E+00  0.00000000E+00  0.00000000E+00
  0.00000000E+00  0.00000000E+00  0.00000000E+00  0.00000000E+00  0.00000000E+00
  0.00000000E+00  0.00000000E+00  0.00000000E+00  0.00000000E+00  0.00000000E+00
  0.00000000E+00  0.00000000E+00  0.00000000E+00  0.00000000E+00  0.00000000E+00
  0.00000000E+00  0.00000000E+00  0.00000000E+00  0.00000000E+00  0.00000000E+00
  0.00000000E+00  0.00000000E+00  0.00000000E+00  0.00000000E+00  0.00000000E+00
  0.00000000E+00  0.00000000E+00  0.00000000E+00
Coordinates of each shell                  R   N=         156
  2.05002254E+00 -8.18001073E-01 -2.15049506E-05  2.05002254E+00 -8.18001073E-01
 -2.15049506E-05  2.05002254E+00 -8.18001073E-01 -2.15049506E-05  2.05002254E+00
 -8.18001073E-01 -2.15049506E-05 -2.05002268E+00 -8.18000946E-01 -1.90983720E-05
 -2.05002268E+00 -8.18000946E-01 -1.90983720E-05 -2.05002268E+00 -8.18000946E-01
 -1.90983720E-05 -2.05002268E+00 -8.18000946E-01 -1.90983720E-05  5.33575410E-17
  2.98795395E+00  1.39109286E-05  5.33575410E-17  2.98795395E+00  1.39109286E-05
  5.33575410E-17  2.98795395E+00  1.39109286E-05  5.33575410E-17  2.98795395E+00
  1.39109286E-05  4.42284795E+00  5.49004473E-01 -7.39922161E-06  4.42284795E+00
  5.49004473E-01 -7.39922161E-06  4.42284795E+00  5.49004473E-01 -7.39922161E-06
  4.42284795E+00  5.49004473E-01 -7.39922161E-06 -4.42284759E+00  5.49004224E-01
 -3.34299788E-06 -4.42284759E+00  5.49004224E-01 -3.34299788E-06 -4.42284759E+00
  5.49004224E-01 -3.34299788E-06 -4.42284759E+00  5.49004224E-01 -3.34299788E-06
  6.48767432E+00 -1.42340862E+00  1.93545322E-05  6.48767432E+00 -1.42340862E+00
  1.93545322E-05  6.48767432E+00 -1.42340862E+00  1.93545322E-05  6.48767432E+00
 -1.42340862E+00  1.93545322E-05 -6.48767444E+00 -1.42340851E+00  1.61637358E-05
 -6.48767444E+00 -1.42340851E+00  1.61637358E-05 -6.48767444E+00 -1.42340851E+00
  1.61637358E-05 -6.48767444E+00 -1.42340851E+00  1.61637358E-05  1.78469012E-07
  6.85131374E-01 -6.42230685E-06  1.78469012E-07  6.85131374E-01 -6.42230685E-06
  1.78469012E-07  6.85131374E-01 -6.42230685E-06  1.78469012E-07  6.85131374E-01
 -6.42230685E-06  4.49746989E+00  1.76099579E+00 -1.67131430E+00  4.49746989E+00
  1.76099579E+00 -1.67131430E+00  4.49744154E+00  1.76101323E+00  1.67128765E+00
  4.49744154E+00  1.76101323E+00  1.67128765E+00 -4.49744338E+00  1.76100840E+00
  1.67129507E+00 -4.49744338E+00  1.76100840E+00  1.67129507E+00 -4.49746884E+00
  1.76100056E+00 -1.67130667E+00 -4.49746884E+00  1.76100056E+00 -1.67130667E+00
  8.33708867E+00 -5.01273445E-01  2.68665221E-05  8.33708867E+00 -5.01273445E-01
  2.68665221E-05  6.34669402E+00 -2.61874577E+00  1.67587001E+00  6.34669402E+00
 -2.61874577E+00  1.67587001E+00  6.34671822E+00 -2.61876662E+00 -1.67581848E+00
  6.34671822E+00 -2.61876662E+00 -1.67581848E+00 -8.33708864E+00 -5.01273012E-01
  2.44751931E-05 -8.33708864E+00 -5.01273012E-01  2.44751931E-05 -6.34671695E+00
 -2.61876191E+00 -1.67582484E+00 -6.34671695E+00 -2.61876191E+00 -1.67582484E+00
 -6.34669592E+00 -2.61875035E+00  1.67586364E+00 -6.34669592E+00 -2.61875035E+00
  1.67586364E+00
Constraint Structure                       R   N=          54
  2.05002254E+00 -8.18001073E-01 -2.15049506E-05 -2.05002268E+00 -8.18000946E-01
 -1.90983720E-05  5.33575410E-17  2.98795395E+00  1.39109286E-05  4.42284795E+00
  5.49004473E-01 -7.39922161E-06 -4.42284759E+00  5.49004224E-01 -3.34299788E-06
  6.48767432E+00 -1.42340862E+00  1.93545322E-05 -6.48767444E+00 -1.42340851E+00
  1.61637358E-05  1.78469012E-07  6.85131374E-01 -6.42230685E-06  4.49746989E+00
  1.76099579E+00 -1.67131430E+00  4.49744154E+00  1.76101323E+00  1.67128765E+00
 -4.49744338E+00  1.76100840E+00  1.67129507E+00 -4.49746884E+00  1.76100056E+00
 -1.67130667E+00  8.33708867E+00 -5.01273445E-01  2.68665221E-05  6.34669402E+00
 -2.61874577E+00  1.67587001E+00  6.34671822E+00 -2.61876662E+00 -1.67581848E+00
 -8.33708864E+00 -5.01273012E-01  2.44751931E-05 -6.34671695E+00 -2.61876191E+00
 -1.67582484E+00 -6.34669592E+00 -2.61875035E+00  1.67586364E+00
Num ILSW                                   I              100
ILSW                                       I   N=         100
           0           1           0           0           2           0
           0           0           0           0           0          -1
           0           0           0           0           0           0
           0           0           0           0           1           0
           1           0           0           0           0           0
           0           0      100000           0          -1           0
           0           0           0           0           0           0
           0           0           0           1           1           0
           0           0           1           0           0           0
           0           0           4          40           0           0
           0           0           0           0           0           0
           0           0           0           0           0           0
           0           0           0           0           0           0
           0           0           0           0           0           0
           0           0           0           0           0           0
           0           0           0           0           0           0
           0           0           0           0
Num RLSW                                   I               40
RLSW                                       R   N=          40
  1.00000000E+00  1.00000000E+00  1.00000000E+00  1.00000000E+00  1.00000000E+00
  0.00000000E+00  0.00000000E+00  1.00000000E+00  0.00000000E+00  0.00000000E+00
  0.00000000E+00  0.00000000E+00  1.00000000E+00  0.00000000E+00  0.00000000E+00
  0.00000000E+00  0.00000000E+00  1.00000000E+00  0.00000000E+00  0.00000000E+00
  0.00000000E+00  0.00000000E+00  1.00000000E+00  0.00000000E+00  0.00000000E+00
  0.00000000E+00  0.00000000E+00  1.00000000E+00  0.00000000E+00  0.00000000E+00
  0.00000000E+00  0.00000000E+00  0.00000000E+00  0.00000000E+00  0.00000000E+00
  0.00000000E+00  0.00000000E+00  0.00000000E+00  1.00000000E+00  1.00000000E+00
MxBond                                     I                4
NBond                                      I   N=          18
           2           2           1           4           4           4
           4           3           1           1           1           1
           1           1           1           1           1           1
IBond                                      I   N=          72
           4           8           0           0           5           8
           0           0           8           0           0           0
           1           6           9          10           2           7
          11          12           4          13          14          15
           5          16          17          18           1           2
           3           0           4           0           0           0
           4           0           0           0           5           0
           0           0           5           0           0           0
           6           0           0           0           6           0
           0           0           6           0           0           0
           7           0           0           0           7           0
           0           0           7           0           0           0
RBond                                      R   N=          72
  1.00000000E+00  1.50000000E+00  0.00000000E+00  0.00000000E+00  1.00000000E+00
  1.50000000E+00  0.00000000E+00  0.00000000E+00  2.00000000E+00  0.00000000E+00
  0.00000000E+00  0.00000000E+00  1.00000000E+00  1.00000000E+00  1.00000000E+00
  1.00000000E+00  1.00000000E+00  1.00000000E+00  1.00000000E+00  1.00000000E+00
  1.00000000E+00  1.00000000E+00  1.00000000E+00  1.00000000E+00  1.00000000E+00
  1.00000000E+00  1.00000000E+00  1.00000000E+00  1.50000000E+00  1.50000000E+00
  2.00000000E+00  0.00000000E+00  1.00000000E+00  0.00000000E+00  0.00000000E+00
  0.00000000E+00  1.00000000E+00  0.00000000E+00  0.00000000E+00  0.00000000E+00
  1.00000000E+00  0.00000000E+00  0.00000000E+00  0.00000000E+00  1.00000000E+00
  0.00000000E+00  0.00000000E+00  0.00000000E+00  1.00000000E+00  0.00000000E+00
  0.00000000E+00  0.00000000E+00  1.00000000E+00  0.00000000E+00  0.00000000E+00
  0.00000000E+00  1.00000000E+00  0.00000000E+00  0.00000000E+00  0.00000000E+00
  1.00000000E+00  0.00000000E+00  0.00000000E+00  0.00000000E+00  1.00000000E+00
  0.00000000E+00  0.00000000E+00  0.00000000E+00  1.00000000E+00  0.00000000E+00
  0.00000000E+00  0.00000000E+00
Virial Ratio                               R      2.002717576547667E+00
SCF Energy                                 R     -4.197746702321272E+02
MP2 Energy                                 R     -4.209498747379776E+02
Total Energy                               R     -4.209498747379776E+02
Post-SCF wavefunction norm                 R      1.646747717139909E+00
RMS Force                                  R      1.411303418548968E-06
RMS Density                                R      9.103312164592905E-10
External E-field                           R   N=          35
  0.00000000E+00  0.00000000E+00  0.00000000E+00  0.00000000E+00  0.00000000E+00
  0.00000000E+00  0.00000000E+00  0.00000000E+00  0.00000000E+00  0.00000000E+00
  0.00000000E+00  0.00000000E+00  0.00000000E+00  0.00000000E+00  0.00000000E+00
  0.00000000E+00  0.00000000E+00  0.00000000E+00  0.00000000E+00  0.00000000E+00
  0.00000000E+00  0.00000000E+00  0.00000000E+00  0.00000000E+00  0.00000000E+00
  0.00000000E+00  0.00000000E+00  0.00000000E+00  0.00000000E+00  0.00000000E+00
  0.00000000E+00  0.00000000E+00  0.00000000E+00  0.00000000E+00  0.00000000E+00
IOpCl                                      I                0
IROHF                                      I                0
Alpha Orbital Energies                     R   N=         140
 -2.06122664E+01 -2.06122402E+01 -2.05518706E+01 -1.14332742E+01 -1.12927237E+01
 -1.12927203E+01 -1.12263538E+01 -1.12263536E+01 -1.49508165E+00 -1.39234308E+00
 -1.35447330E+00 -1.05693453E+00 -1.02666935E+00 -8.92442815E-01 -8.44924418E-01
 -7.89189198E-01 -7.41632917E-01 -7.04219659E-01 -6.86354508E-01 -6.61348285E-01
 -5.96913599E-01 -5.96502343E-01 -5.88032771E-01 -5.55345669E-01 -5.40508257E-01
 -5.36432065E-01 -5.18515069E-01 -5.13918756E-01 -5.06320863E-01 -4.63000567E-01
 -4.62276415E-01 -4.61158336E-01  2.20380003E-01  2.37087252E-01  2.43931173E-01
  2.78060116E-01  2.99007197E-01  2.99426776E-01  3.02666835E-01  3.04335340E-01
  3.12120545E-01  3.24927024E-01  3.42852693E-01  3.50648901E-01  3.64751090E-01
  4.00013371E-01  4.17824736E-01  4.44451627E-01  5.56635751E-01  5.89086630E-01
  7.11854896E-01  7.29586240E-01  7.31791942E-01  7.38594532E-01  7.39995689E-01
  7.45862712E-01  7.67117318E-01  7.82509420E-01  8.13333076E-01  8.95341867E-01
  8.95713739E-01  9.28156144E-01  9.40493108E-01  9.46716442E-01  9.65768314E-01
  9.96791715E-01  1.10643098E+00  1.11071913E+00  1.11338031E+00  1.13324021E+00
  1.15161270E+00  1.15477132E+00  1.17379611E+00  1.17755974E+00  1.18597923E+00
  1.19580262E+00  1.21613252E+00  1.23416500E+00  1.24189632E+00  1.26057843E+00
  1.33695218E+00  1.37311242E+00  1.37514530E+00  1.40000639E+00  1.42584378E+00
  1.56628589E+00  1.61867070E+00  1.62365627E+00  1.63665985E+00  1.66006149E+00
  1.72201466E+00  1.73127681E+00  1.76519244E+00  1.78401134E+00  1.93014126E+00
  1.95351229E+00  1.97433041E+00  2.05707411E+00  2.07214002E+00  2.09447411E+00
  2.11130364E+00  2.18989542E+00  2.19565857E+00  2.19925054E+00  2.19945320E+00
  2.28077547E+00  2.29980344E+00  2.32798787E+00  2.37115814E+00  2.39235923E+00
  2.46079821E+00  2.46341052E+00  2.46729460E+00  2.51377178E+00  2.53765208E+00
  2.62674286E+00  2.64615451E+00  2.64713906E+00  2.67905403E+00  2.68753561E+00
  2.70154571E+00  2.87532910E+00  2.94633885E+00  2.95432493E+00  2.97427941E+00
  3.07293793E+00  3.07366437E+00  3.17025105E+00  3.17081574E+00  3.31793062E+00
  3.56266443E+00  3.60255190E+00  4.40056801E+00  4.54898818E+00  4.58426911E+00
  4.60206278E+00  4.69184993E+00  4.80777148E+00  4.83053178E+00  4.88848756E+00
Alpha MO coefficients                      R   N=       19600
  7.03874277E-01  1.51309346E-02 -1.09074751E-04  9.47360627E-04  9.25780212E-09
  2.13751140E-03 -7.53254005E-05 -7.22241701E-04 -6.73023768E-09 -2.84116229E-03
 -2.83362636E-03 -2.68764755E-03 -3.78939835E-05 -3.06744763E-10 -1.93128941E-09
 -7.02811364E-01 -1.51083649E-02 -1.08986995E-04 -9.46007708E-04 -8.92612411E-09
 -2.13259607E-03 -7.51391803E-05  7.21567272E-04  6.78024236E-09  2.83653940E-03
  2.82920858E-03  2.68338241E-03 -3.78495768E-05 -4.57213004E-10  1.86996763E-09
 -2.64330907E-07  9.58780792E-08 -2.89508734E-05  2.57526524E-08  8.72111447E-12
 -7.15544823E-07 -2.14640758E-04  1.84054733E-07  1.73250842E-10  5.90339352E-08
  1.47713153E-08  4.10142505E-08  1.36447370E-04  1.23388413E-09 -8.59225424E-11
 -1.19740647E-05  1.00210478E-04 -2.52843548E-04 -1.48840972E-04 -1.55857250E-09
  3.39949625E-04  2.21593775E-05 -7.74092042E-06  3.27429359E-09  1.01949399E-04
  3.56891568E-06 -2.35086774E-05  5.50440178E-05  7.40701544E-10  1.54535319E-10
  1.19505250E-05 -1.00055066E-04 -2.52510548E-04  1.48638822E-04  1.72915101E-09
 -3.39650255E-04  2.19876357E-05  7.70805276E-06 -2.68205182E-09 -1.01841324E-04
 -3.55314014E-06  2.34500960E-05  5.49493568E-05  8.12342970E-10 -2.23971502E-10
  8.51506281E-06  7.32975150E-05 -1.40866936E-05 -1.72541299E-05  8.38417398E-11
 -1.84086566E-04  2.54890000E-04  1.92426972E-05  3.38155176E-10 -3.33058595E-05
  4.86326294E-06 -1.03626576E-06  2.02695148E-05 -3.94014849E-10 -2.98060077E-11
 -8.50123755E-06 -7.31838710E-05 -1.40679897E-05  1.72326491E-05 -4.22622763E-11
  1.83766210E-04  2.54518354E-04 -1.92299779E-05 -3.95636209E-10  3.32520212E-05
 -4.84979238E-06  1.03887517E-06  2.02460544E-05 -3.20726849E-10  5.24348342E-12
  5.86083332E-09  4.72264656E-07  4.25584608E-04 -2.09436622E-07 -2.40826249E-10
 -1.03439654E-07  5.11963710E-04  7.80053189E-07 -3.53882804E-10 -9.44737268E-08
 -9.77198207E-09 -4.43138487E-08  1.18777091E-04  1.00381946E-09 -7.36849896E-11
 -3.39207455E-05 -7.73399190E-05 -3.39217499E-05 -7.73419894E-05  3.38987094E-05
  7.72434625E-05  3.38979045E-05  7.72417449E-05 -7.57001784E-06 -1.09314874E-04
  3.85707741E-05 -4.83675810E-06  3.85711304E-05 -4.83914413E-06  7.56498081E-06
  1.09154984E-04 -3.85160395E-05  4.84016892E-06 -3.85157251E-05  4.83811717E-06
  7.02772333E-01  1.49224659E-02 -5.76974165E-05  8.94430631E-04  8.73073931E-09
  3.25097845E-03 -1.23178049E-04 -4.45768959E-04 -4.15152566E-09 -3.05683420E-03
 -2.92109273E-03 -2.82013352E-03 -2.92302374E-05 -2.52649208E-10 -1.42580203E-09
  7.03835305E-01  1.49453165E-02  5.78617484E-05  8.95861283E-04  8.46058973E-09
  3.25420519E-03  1.23291682E-04 -4.46860047E-04 -4.16573584E-09 -3.06112479E-03
 -2.92537200E-03 -2.82419225E-03  2.92872827E-05  5.19084437E-10 -1.36122892E-09
 -3.49974887E-04  1.26942220E-04  2.18731049E-08  3.41276836E-05  2.38149843E-10
 -9.47493625E-04  1.62130522E-07  2.43805193E-04  2.52812587E-09  7.81881001E-05
  1.94776700E-05  5.43353631E-05 -1.03023677E-07 -1.07649273E-11 -4.22682988E-10
 -1.55574072E-05  1.03065423E-04 -2.20217540E-04 -1.33672367E-04 -1.65179943E-09
  1.97871005E-04  1.13767455E-04 -2.16155266E-05  4.80459015E-09  7.12325946E-05
  1.03461362E-05 -3.87753855E-05  6.24650734E-05  8.87295976E-10  3.66833029E-10