094_Ethyl-HCO3 Gaussian SP Calculation on node142.bme.utexas.edu        
Freq      RMP2-FC                                                     6-31G(d)            
Number of atoms                            I               12
Info1-9                                    I   N=           9
          23          22        1002           0           0         100
           6           2           1
Charge                                     I                0
Multiplicity                               I                1
Number of electrons                        I               48
Number of alpha electrons                  I               24
Number of beta electrons                   I               24
Number of basis functions                  I              102
Number of independent functions            I              102
Number of point charges in /Mol/           I                0
Number of translation vectors              I                0
Atomic numbers                             I   N=          12
           8           8           8           6           6           6
           1           1           1           1           1           1
Nuclear charges                            R   N=          12
  8.00000000E+00  8.00000000E+00  8.00000000E+00  6.00000000E+00  6.00000000E+00
  6.00000000E+00  1.00000000E+00  1.00000000E+00  1.00000000E+00  1.00000000E+00
  1.00000000E+00  1.00000000E+00
Current cartesian coordinates              R   N=          36
  3.39159055E-01 -9.25630090E-01  8.93427200E-05 -3.67820233E+00 -1.79624996E+00
  1.73077255E-04 -2.48236578E+00  2.34804976E+00 -2.58898049E-04  2.37428571E+00
  9.10808623E-01 -9.70459463E-05  4.80673413E+00 -5.83551770E-01  1.02900590E-04
 -1.97138838E+00  1.04403104E-01 -2.11628920E-05  2.18812233E+00  2.10872351E+00
 -1.67225492E+00  2.18808262E+00  2.10910829E+00  1.67178028E+00  6.41941108E+00
  7.08436254E-01 -2.89927979E-05  4.92114311E+00 -1.78095460E+00  1.67634906E+00
  4.92118055E+00 -1.78134309E+00 -1.67586313E+00 -5.32445606E+00 -9.63287814E-01
  8.13818373E-05
Force Field                                I                0
Int Atom Types                             I   N=          12
           0           0           0           0           0           0
           0           0           0           0           0           0
MM charges                                 R   N=          12
  0.00000000E+00  0.00000000E+00  0.00000000E+00  0.00000000E+00  0.00000000E+00
  0.00000000E+00  0.00000000E+00  0.00000000E+00  0.00000000E+00  0.00000000E+00
  0.00000000E+00  0.00000000E+00
Integer atomic weights                     I   N=          12
          16          16          16          12          12          12
           1           1           1           1           1           1
Real atomic weights                        R   N=          12
  1.59949146E+01  1.59949146E+01  1.59949146E+01  1.20000000E+01  1.20000000E+01
  1.20000000E+01  1.00782504E+00  1.00782504E+00  1.00782504E+00  1.00782504E+00
  1.00782504E+00  1.00782504E+00
Atom fragment info                         I   N=          12
           0           0           0           0           0           0
           0           0           0           0           0           0
Atom residue num                           I   N=          12
           0           0           0           0           0           0
           0           0           0           0           0           0
Nuclear spins                              I   N=          12
           0           0           0           0           0           0
           1           1           1           1           1           1
Nuclear ZEff                               R   N=          12
 -5.60000000E+00 -5.60000000E+00 -5.60000000E+00 -3.60000000E+00 -3.60000000E+00
 -3.60000000E+00 -1.00000000E+00 -1.00000000E+00 -1.00000000E+00 -1.00000000E+00
 -1.00000000E+00 -1.00000000E+00
Nuclear QMom                               R   N=          12
  0.00000000E+00  0.00000000E+00  0.00000000E+00  0.00000000E+00  0.00000000E+00
  0.00000000E+00  0.00000000E+00  0.00000000E+00  0.00000000E+00  0.00000000E+00
  0.00000000E+00  0.00000000E+00
Nuclear GFac                               R   N=          12
  0.00000000E+00  0.00000000E+00  0.00000000E+00  0.00000000E+00  0.00000000E+00
  0.00000000E+00  2.79284600E+00  2.79284600E+00  2.79284600E+00  2.79284600E+00
  2.79284600E+00  2.79284600E+00
MicOpt                                     I   N=          12
          -1          -1          -1          -1          -1          -1
          -1          -1          -1          -1          -1          -1
Number of contracted shells                I               36
Number of primitive shells                 I               90
Pure/Cartesian d shells                    I                1
Pure/Cartesian f shells                    I                0
Highest angular momentum                   I                2
Largest degree of contraction              I                6
Shell types                                I   N=          36
           0          -1          -1           2           0          -1
          -1           2           0          -1          -1           2
           0          -1          -1           2           0          -1
          -1           2           0          -1          -1           2
           0           0           0           0           0           0
           0           0           0           0           0           0
Number of primitives per shell             I   N=          36
           6           3           1           1           6           3
           1           1           6           3           1           1
           6           3           1           1           6           3
           1           1           6           3           1           1
           3           1           3           1           3           1
           3           1           3           1           3           1
Shell to atom map                          I   N=          36
           1           1           1           1           2           2
           2           2           3           3           3           3
           4           4           4           4           5           5
           5           5           6           6           6           6
           7           7           8           8           9           9
          10          10          11          11          12          12
Primitive exponents                        R   N=          90
  5.48467166E+03  8.25234946E+02  1.88046958E+02  5.29645000E+01  1.68975704E+01
  5.79963534E+00  1.55396162E+01  3.59993359E+00  1.01376175E+00  2.70005823E-01
  8.00000000E-01  5.48467166E+03  8.25234946E+02  1.88046958E+02  5.29645000E+01
  1.68975704E+01  5.79963534E+00  1.55396162E+01  3.59993359E+00  1.01376175E+00
  2.70005823E-01  8.00000000E-01  5.48467166E+03  8.25234946E+02  1.88046958E+02
  5.29645000E+01  1.68975704E+01  5.79963534E+00  1.55396162E+01  3.59993359E+00
  1.01376175E+00  2.70005823E-01  8.00000000E-01  3.04752488E+03  4.57369518E+02
  1.03948685E+02  2.92101553E+01  9.28666296E+00  3.16392696E+00  7.86827235E+00
  1.88128854E+00  5.44249258E-01  1.68714478E-01  8.00000000E-01  3.04752488E+03
  4.57369518E+02  1.03948685E+02  2.92101553E+01  9.28666296E+00  3.16392696E+00
  7.86827235E+00  1.88128854E+00  5.44249258E-01  1.68714478E-01  8.00000000E-01
  3.04752488E+03  4.57369518E+02  1.03948685E+02  2.92101553E+01  9.28666296E+00
  3.16392696E+00  7.86827235E+00  1.88128854E+00  5.44249258E-01  1.68714478E-01
  8.00000000E-01  1.87311370E+01  2.82539436E+00  6.40121692E-01  1.61277759E-01
  1.87311370E+01  2.82539436E+00  6.40121692E-01  1.61277759E-01  1.87311370E+01
  2.82539436E+00  6.40121692E-01  1.61277759E-01  1.87311370E+01  2.82539436E+00
  6.40121692E-01  1.61277759E-01  1.87311370E+01  2.82539436E+00  6.40121692E-01
  1.61277759E-01  1.87311370E+01  2.82539436E+00  6.40121692E-01  1.61277759E-01
Contraction coefficients                   R   N=          90
  1.83107443E-03  1.39501722E-02  6.84450781E-02  2.32714336E-01  4.70192898E-01
  3.58520853E-01 -1.10777550E-01 -1.48026263E-01  1.13076702E+00  1.00000000E+00
  1.00000000E+00  1.83107443E-03  1.39501722E-02  6.84450781E-02  2.32714336E-01
  4.70192898E-01  3.58520853E-01 -1.10777550E-01 -1.48026263E-01  1.13076702E+00
  1.00000000E+00  1.00000000E+00  1.83107443E-03  1.39501722E-02  6.84450781E-02
  2.32714336E-01  4.70192898E-01  3.58520853E-01 -1.10777550E-01 -1.48026263E-01
  1.13076702E+00  1.00000000E+00  1.00000000E+00  1.83473713E-03  1.40373228E-02
  6.88426223E-02  2.32184443E-01  4.67941348E-01  3.62311985E-01 -1.19332420E-01
 -1.60854152E-01  1.14345644E+00  1.00000000E+00  1.00000000E+00  1.83473713E-03
  1.40373228E-02  6.88426223E-02  2.32184443E-01  4.67941348E-01  3.62311985E-01
 -1.19332420E-01 -1.60854152E-01  1.14345644E+00  1.00000000E+00  1.00000000E+00
  1.83473713E-03  1.40373228E-02  6.88426223E-02  2.32184443E-01  4.67941348E-01
  3.62311985E-01 -1.19332420E-01 -1.60854152E-01  1.14345644E+00  1.00000000E+00
  1.00000000E+00  3.34946043E-02  2.34726953E-01  8.13757326E-01  1.00000000E+00
  3.34946043E-02  2.34726953E-01  8.13757326E-01  1.00000000E+00  3.34946043E-02
  2.34726953E-01  8.13757326E-01  1.00000000E+00  3.34946043E-02  2.34726953E-01
  8.13757326E-01  1.00000000E+00  3.34946043E-02  2.34726953E-01  8.13757326E-01
  1.00000000E+00  3.34946043E-02  2.34726953E-01  8.13757326E-01  1.00000000E+00
P(S=P) Contraction coefficients            R   N=          90
  0.00000000E+00  0.00000000E+00  0.00000000E+00  0.00000000E+00  0.00000000E+00
  0.00000000E+00  7.08742682E-02  3.39752839E-01  7.27158577E-01  1.00000000E+00
  0.00000000E+00  0.00000000E+00  0.00000000E+00  0.00000000E+00  0.00000000E+00
  0.00000000E+00  0.00000000E+00  7.08742682E-02  3.39752839E-01  7.27158577E-01
  1.00000000E+00  0.00000000E+00  0.00000000E+00  0.00000000E+00  0.00000000E+00
  0.00000000E+00  0.00000000E+00  0.00000000E+00  7.08742682E-02  3.39752839E-01
  7.27158577E-01  1.00000000E+00  0.00000000E+00  0.00000000E+00  0.00000000E+00
  0.00000000E+00  0.00000000E+00  0.00000000E+00  0.00000000E+00  6.89990666E-02
  3.16423961E-01  7.44308291E-01  1.00000000E+00  0.00000000E+00  0.00000000E+00
  0.00000000E+00  0.00000000E+00  0.00000000E+00  0.00000000E+00  0.00000000E+00
  6.89990666E-02  3.16423961E-01  7.44308291E-01  1.00000000E+00  0.00000000E+00
  0.00000000E+00  0.00000000E+00  0.00000000E+00  0.00000000E+00  0.00000000E+00
  0.00000000E+00  6.89990666E-02  3.16423961E-01  7.44308291E-01  1.00000000E+00
  0.00000000E+00  0.00000000E+00  0.00000000E+00  0.00000000E+00  0.00000000E+00
  0.00000000E+00  0.00000000E+00  0.00000000E+00  0.00000000E+00  0.00000000E+00
  0.00000000E+00  0.00000000E+00  0.00000000E+00  0.00000000E+00  0.00000000E+00
  0.00000000E+00  0.00000000E+00  0.00000000E+00  0.00000000E+00  0.00000000E+00
  0.00000000E+00  0.00000000E+00  0.00000000E+00  0.00000000E+00  0.00000000E+00
Coordinates of each shell                  R   N=         108
  3.39159055E-01 -9.25630090E-01  8.93427200E-05  3.39159055E-01 -9.25630090E-01
  8.93427200E-05  3.39159055E-01 -9.25630090E-01  8.93427200E-05  3.39159055E-01
 -9.25630090E-01  8.93427200E-05 -3.67820233E+00 -1.79624996E+00  1.73077255E-04
 -3.67820233E+00 -1.79624996E+00  1.73077255E-04 -3.67820233E+00 -1.79624996E+00
  1.73077255E-04 -3.67820233E+00 -1.79624996E+00  1.73077255E-04 -2.48236578E+00
  2.34804976E+00 -2.58898049E-04 -2.48236578E+00  2.34804976E+00 -2.58898049E-04
 -2.48236578E+00  2.34804976E+00 -2.58898049E-04 -2.48236578E+00  2.34804976E+00
 -2.58898049E-04  2.37428571E+00  9.10808623E-01 -9.70459463E-05  2.37428571E+00
  9.10808623E-01 -9.70459463E-05  2.37428571E+00  9.10808623E-01 -9.70459463E-05
  2.37428571E+00  9.10808623E-01 -9.70459463E-05  4.80673413E+00 -5.83551770E-01
  1.02900590E-04  4.80673413E+00 -5.83551770E-01  1.02900590E-04  4.80673413E+00
 -5.83551770E-01  1.02900590E-04  4.80673413E+00 -5.83551770E-01  1.02900590E-04
 -1.97138838E+00  1.04403104E-01 -2.11628920E-05 -1.97138838E+00  1.04403104E-01
 -2.11628920E-05 -1.97138838E+00  1.04403104E-01 -2.11628920E-05 -1.97138838E+00
  1.04403104E-01 -2.11628920E-05  2.18812233E+00  2.10872351E+00 -1.67225492E+00
  2.18812233E+00  2.10872351E+00 -1.67225492E+00  2.18808262E+00  2.10910829E+00
  1.67178028E+00  2.18808262E+00  2.10910829E+00  1.67178028E+00  6.41941108E+00
  7.08436254E-01 -2.89927979E-05  6.41941108E+00  7.08436254E-01 -2.89927979E-05
  4.92114311E+00 -1.78095460E+00  1.67634906E+00  4.92114311E+00 -1.78095460E+00
  1.67634906E+00  4.92118055E+00 -1.78134309E+00 -1.67586313E+00  4.92118055E+00
 -1.78134309E+00 -1.67586313E+00 -5.32445606E+00 -9.63287814E-01  8.13818373E-05
 -5.32445606E+00 -9.63287814E-01  8.13818373E-05
Constraint Structure                       R   N=          36
  3.39159055E-01 -9.25630090E-01  8.93427200E-05 -3.67820233E+00 -1.79624996E+00
  1.73077255E-04 -2.48236578E+00  2.34804976E+00 -2.58898049E-04  2.37428571E+00
  9.10808623E-01 -9.70459463E-05  4.80673413E+00 -5.83551770E-01  1.02900590E-04
 -1.97138838E+00  1.04403104E-01 -2.11628920E-05  2.18812233E+00  2.10872351E+00
 -1.67225492E+00  2.18808262E+00  2.10910829E+00  1.67178028E+00  6.41941108E+00
  7.08436254E-01 -2.89927979E-05  4.92114311E+00 -1.78095460E+00  1.67634906E+00
  4.92118055E+00 -1.78134309E+00 -1.67586313E+00 -5.32445606E+00 -9.63287814E-01
  8.13818373E-05
Num ILSW                                   I              100
ILSW                                       I   N=         100
           0           1           0           0           2           0
           0           0           0           0           0          -1
           0           0           0           0           0           0
           0           0           0           0           1           0
           1           0           0           0           0           0
           0           0      100000           0          -1           0
           0           0           0           0           0           0
           0           0           0           1           1           0
           0           0           1           0           0           0
           0           0           4          40           0           0
           0           0           0           0           0           0
           0           0           0           0           0           0
           0           0           0           0           0           0
           0           0           0           0           0           0
           0           0           0           0           0           0
           0           0           0           0           0           0
           0           0           0           0
Num RLSW                                   I               40
RLSW                                       R   N=          40
  1.00000000E+00  1.00000000E+00  1.00000000E+00  1.00000000E+00  1.00000000E+00
  0.00000000E+00  0.00000000E+00  1.00000000E+00  0.00000000E+00  0.00000000E+00
  0.00000000E+00  0.00000000E+00  1.00000000E+00  0.00000000E+00  0.00000000E+00
  0.00000000E+00  0.00000000E+00  1.00000000E+00  0.00000000E+00  0.00000000E+00
  0.00000000E+00  0.00000000E+00  1.00000000E+00  0.00000000E+00  0.00000000E+00
  0.00000000E+00  0.00000000E+00  1.00000000E+00  0.00000000E+00  0.00000000E+00
  0.00000000E+00  0.00000000E+00  0.00000000E+00  0.00000000E+00  0.00000000E+00
  0.00000000E+00  0.00000000E+00  0.00000000E+00  1.00000000E+00  1.00000000E+00
MxBond                                     I                4
NBond                                      I   N=          12
           2           2           1           4           4           3
           1           1           1           1           1           1
IBond                                      I   N=          48
           4           6           0           0           6          12
           0           0           6           0           0           0
           1           5           7           8           4           9
          10          11           1           2           3           0
           4           0           0           0           4           0
           0           0           5           0           0           0
           5           0           0           0           5           0
           0           0           2           0           0           0
RBond                                      R   N=          48
  1.00000000E+00  1.50000000E+00  0.00000000E+00  0.00000000E+00  1.50000000E+00
  1.00000000E+00  0.00000000E+00  0.00000000E+00  2.00000000E+00  0.00000000E+00
  0.00000000E+00  0.00000000E+00  1.00000000E+00  1.00000000E+00  1.00000000E+00
  1.00000000E+00  1.00000000E+00  1.00000000E+00  1.00000000E+00  1.00000000E+00
  1.50000000E+00  1.50000000E+00  2.00000000E+00  0.00000000E+00  1.00000000E+00
  0.00000000E+00  0.00000000E+00  0.00000000E+00  1.00000000E+00  0.00000000E+00
  0.00000000E+00  0.00000000E+00  1.00000000E+00  0.00000000E+00  0.00000000E+00
  0.00000000E+00  1.00000000E+00  0.00000000E+00  0.00000000E+00  0.00000000E+00
  1.00000000E+00  0.00000000E+00  0.00000000E+00  0.00000000E+00  1.00000000E+00
  0.00000000E+00  0.00000000E+00  0.00000000E+00
Virial Ratio                               R      2.003133315822051E+00
SCF Energy                                 R     -3.417086973664110E+02
MP2 Energy                                 R     -3.426247188402679E+02
Total Energy                               R     -3.426247188402679E+02
Post-SCF wavefunction norm                 R      1.593590883700849E+00
RMS Force                                  R      1.648747694566202E-06
RMS Density                                R      2.126807653035121E-09
External E-field                           R   N=          35
  0.00000000E+00  0.00000000E+00  0.00000000E+00  0.00000000E+00  0.00000000E+00
  0.00000000E+00  0.00000000E+00  0.00000000E+00  0.00000000E+00  0.00000000E+00
  0.00000000E+00  0.00000000E+00  0.00000000E+00  0.00000000E+00  0.00000000E+00
  0.00000000E+00  0.00000000E+00  0.00000000E+00  0.00000000E+00  0.00000000E+00
  0.00000000E+00  0.00000000E+00  0.00000000E+00  0.00000000E+00  0.00000000E+00
  0.00000000E+00  0.00000000E+00  0.00000000E+00  0.00000000E+00  0.00000000E+00
  0.00000000E+00  0.00000000E+00  0.00000000E+00  0.00000000E+00  0.00000000E+00
IOpCl                                      I                0
IROHF                                      I                0
Alpha Orbital Energies                     R   N=         102
 -2.06291458E+01 -2.06215455E+01 -2.05601270E+01 -1.14454711E+01 -1.12988715E+01
 -1.12304875E+01 -1.50548910E+00 -1.40053195E+00 -1.36265158E+00 -1.04916912E+00
 -8.95399026E-01 -8.17018259E-01 -7.41554575E-01 -7.11123269E-01 -7.01076489E-01
 -6.29963409E-01 -6.27698180E-01 -5.88419931E-01 -5.52360079E-01 -5.44647416E-01
 -5.22449169E-01 -4.92795010E-01 -4.71792022E-01 -4.69377474E-01  2.16495176E-01
  2.17956864E-01  2.37429343E-01  2.87849018E-01  2.98152808E-01  3.05752661E-01
  3.36466820E-01  3.42453751E-01  4.02586872E-01  4.22695310E-01  5.46483133E-01
  5.64310027E-01  7.19280148E-01  7.26795398E-01  7.28963082E-01  7.39596227E-01
  7.84383084E-01  7.91703650E-01  9.05089045E-01  9.13551991E-01  9.22213010E-01
  9.72522136E-01  1.03341652E+00  1.09924182E+00  1.10202849E+00  1.14819881E+00
  1.15618521E+00  1.16708213E+00  1.18415631E+00  1.20856433E+00  1.21307532E+00
  1.23038266E+00  1.27541475E+00  1.27909952E+00  1.38591665E+00  1.38882174E+00
  1.43477559E+00  1.56467265E+00  1.60536256E+00  1.62008776E+00  1.65935075E+00
  1.75445357E+00  1.81264837E+00  1.81649139E+00  1.91466320E+00  2.00964863E+00
  2.03298829E+00  2.06027852E+00  2.08177591E+00  2.10208931E+00  2.16385342E+00
  2.19208648E+00  2.20057244E+00  2.28142759E+00  2.32239681E+00  2.40450719E+00
  2.44241881E+00  2.45695885E+00  2.50555741E+00  2.64320761E+00  2.65656922E+00
  2.65797381E+00  2.78246653E+00  2.84158471E+00  2.94497943E+00  3.00604683E+00
  3.04207189E+00  3.06148327E+00  3.12667677E+00  3.29299244E+00  3.46122827E+00
  3.53094781E+00  4.26383362E+00  4.44511628E+00  4.57410758E+00  4.63339257E+00
  4.69775956E+00  4.85290785E+00
Alpha MO coefficients                      R   N=       10404
 -1.72969216E-03 -1.83380571E-04  4.32029524E-05 -2.81319908E-05  2.97584442E-09
  8.77912551E-04 -1.17784858E-04  1.90698208E-04 -1.99101424E-08 -1.47796778E-04
 -6.90745869E-05 -1.00388306E-04 -2.36524915E-05  2.30475749E-09 -3.78565126E-09
  9.94636905E-01  2.11873582E-02 -1.86361729E-04  1.34494823E-03 -1.40721840E-07
  4.09177647E-03  2.75325542E-04 -6.44406773E-04  6.78853998E-08 -4.14553081E-03
 -4.08477920E-03 -3.92915162E-03  5.21659249E-06 -1.27867412E-09  1.87010040E-08
 -2.28876883E-04  8.04299266E-05  1.81376172E-05  2.87185903E-05 -2.92208696E-09
 -6.38145779E-04  1.02556074E-04  1.76894460E-04 -1.86609764E-08  8.17693400E-05
 -1.64119706E-05  2.85647198E-05 -7.43750654E-05  8.01725201E-09  5.31023302E-09
 -2.16055848E-06  3.63629233E-06  2.05304064E-05  1.47403857E-05 -1.64316732E-09
 -1.06359934E-04  6.55521871E-05 -3.48287216E-07  1.04241076E-09 -2.32006639E-05
  7.59077043E-06 -1.06652406E-05 -6.41195809E-08  4.30471043E-11 -2.19510526E-09
  2.23902078E-07 -2.57747992E-07  8.93177011E-07  2.75309273E-06 -3.26913644E-10
 -1.59904234E-05 -8.33150337E-06 -1.04157543E-05  1.14012691E-09  3.42422917E-07
  1.34394443E-06  1.67763654E-06 -4.30251636E-06  5.01210932E-10  9.72321401E-13
 -3.09433444E-06  4.32091713E-04 -2.31366221E-04 -2.38651926E-04  2.44085730E-08
 -1.99631826E-04 -5.24505848E-04  6.84084118E-04 -7.26071242E-08 -9.22747773E-05
 -6.52842028E-05 -5.18168547E-05 -9.52117998E-05  9.91160718E-09  1.34334546E-09
  1.35649438E-05  1.18612858E-05  1.35650385E-05  1.18602692E-05  3.04276660E-06
  4.32667515E-06 -2.08268019E-06  3.25226734E-06 -2.08267823E-06  3.25234553E-06
  4.35831515E-04 -2.75733236E-04  9.94648164E-01  2.12667982E-02 -4.18540355E-04
  1.25072649E-03 -1.30172236E-07  3.76450770E-03  6.73400704E-05 -8.38387182E-04
  8.73069683E-08 -4.13968441E-03 -4.08453664E-03 -3.89422609E-03 -6.81025738E-05
  6.78828261E-09  2.23044091E-08  1.67486863E-03 -7.87323831E-05 -3.15950561E-05
 -3.61827607E-05  3.62387907E-09  7.19103423E-04  4.37331365E-06  1.79691454E-04
 -1.83083465E-08 -1.45393939E-04 -6.51805561E-05 -9.15631026E-05 -2.73732132E-05
  2.81566495E-09 -3.19423975E-09 -2.43622303E-04  8.76579680E-05 -2.63549249E-05
  1.71404347E-05 -1.85490931E-09 -6.40839829E-04 -1.88353107E-04  1.24826997E-04
 -1.33962029E-08  1.46581469E-05  5.54038003E-05  3.83502515E-05  1.00372734E-04
 -1.06343237E-08 -1.96133237E-09 -1.90373631E-05  1.40876082E-04 -2.84239283E-04
 -2.63963106E-04  2.66100482E-08  3.68280729E-04  1.04032262E-04  2.49503838E-06
  5.28563594E-09  9.11354441E-05  4.53448963E-05 -4.23174150E-05  1.03525282E-04
 -1.01457664E-08 -1.04713979E-08  1.29114453E-05  1.06519220E-04 -1.47604374E-05
 -2.60563021E-05  2.91516794E-09 -2.85980439E-04  3.45565528E-04  9.57408304E-05
 -8.96596134E-09 -5.44789972E-05  1.68850685E-05  1.50087801E-06  9.28259304E-06
 -1.71230691E-09 -2.12056321E-09  8.02156111E-06  4.59668192E-04  3.27257962E-04
 -1.30293828E-04  1.41099791E-08 -8.40063311E-05  2.36529328E-04  7.53687826E-04
 -7.89386340E-08 -1.27487673E-04  1.29234796E-05 -3.82061711E-05  6.54446373E-05
 -7.05193161E-09 -6.22562970E-09 -3.39479733E-05 -9.99282842E-05 -3.39491282E-05
 -9.99323579E-05 -7.66132311E-06 -1.54294835E-04  5.35387599E-05 -9.97750249E-07
  5.35391888E-05 -1.00054946E-06 -4.56917089E-05 -4.69301587E-05  2.56023805E-04
 -5.65771768E-05  9.23120756E-06 -2.65524806E-05  2.97162048E-09  2.83367774E-04
 -1.85065756E-04  5.97862893E-06 -1.65266506E-09  1.07857954E-04 -1.04549228E-04
 -6.31898573E-05  6.21728804E-05 -6.52900832E-09  4.97251329E-09  2.29883251E-04
 -9.84750798E-05  4.21197839E-06 -3.47254119E-05  3.64666621E-09  5.32508911E-04
  1.68369185E-04  1.22224042E-04 -1.22960689E-08  6.14146103E-05 -1.37226900E-04
 -9.47915599E-05  5.23119388E-05 -4.88988250E-09  5.29913719E-09  9.94705131E-01
  2.10923991E-02  3.52938728E-04 -1.61650204E-03  1.71872895E-07  4.00041814E-03
 -3.95127268E-05  1.31414589E-04 -1.42649009E-08 -3.86348971E-03 -3.54391818E-03
 -4.05325681E-03 -7.92574956E-05  8.67965080E-09 -6.19630151E-08 -1.89357414E-06
  2.45555237E-05 -1.30049501E-05  2.08030664E-05 -2.68010299E-09  1.52628945E-04
  2.21074332E-04 -8.64674874E-05  1.35192293E-08 -2.69789676E-05 -2.99549812E-05
 -1.35128077E-05 -1.88897114E-05  2.27079153E-09  1.72498728E-09  2.96872961E-06
  1.33263401E-05  1.03175611E-05 -1.81321758E-06  1.13059526E-10 -2.19403394E-04
  5.00248430E-05 -7.93858619E-05  1.04234460E-08  4.71121194E-06 -1.86761572E-06
  5.91451294E-06  4.80485643E-06 -4.78772392E-10  1.03238363E-09 -6.00435555E-06
  5.39948917E-04 -7.97063137E-06 -4.54833764E-05  4.99036787E-09 -6.09002069E-04
  1.54030188E-04  1.09982670E-04 -1.06104952E-08 -1.24124850E-04 -8.77879094E-04
 -2.79035773E-05  2.10043950E-04 -2.22966792E-08  1.03800891E-07  2.61455807E-05
 -4.66642659E-05  2.61460585E-05 -4.66693733E-05  1.03123459E-05  2.61820273E-05
  2.55735308E-06  1.06337989E-06  2.55746000E-06  1.06421731E-06 -2.20697762E-05
 -1.69844190E-05 -1.03541383E-04  6.53886742E-04 -1.29224952E-04  1.75258674E-04
 -1.87361706E-08 -2.07381192E-03  1.10480646E-03 -1.20851449E-03  1.27182223E-07
 -5.36989534E-04  7.85556712E-05  4.24912330E-04  1.86109875E-04 -2.05069600E-08
  4.11606462E-08 -5.63323835E-05  7.70509241E-04  2.38492308E-05  1.52514945E-04
 -1.58681124E-08 -2.80907646E-03 -8.59058166E-04 -1.60263001E-03  1.65353288E-07
 -1.75940390E-04 -8.36194195E-05  5.42463338E-04 -5.05760350E-04  5.05735297E-08
  7.41706670E-08 -3.43530968E-04  2.91816779E-04  1.00080494E-04 -3.07023171E-04
  3.21886852E-08 -8.43073488E-04 -1.19309277E-04  1.05522863E-03 -1.10974913E-07
 -2.00568855E-05  4.88049782E-05  1.74588773E-04 -7.12634306E-05  7.04805391E-09
  1.55058213E-08 -8.46286589E-05 -4.03254802E-04  4.10752994E-06 -8.70218113E-05
  8.11856952E-09  1.30921899E-03 -1.58253519E-03 -3.54796001E-05  9.27680494E-09
  2.49259749E-04 -2.46630767E-05 -1.41446911E-05  1.45724586E-04 -1.61956138E-08
  2.93179357E-09  3.09429505E-05  9.39827312E-05 -9.29463525E-05 -5.29304708E-05
  5.89472486E-09  1.80873471E-04  3.51683850E-04  6.49804487E-04 -8.22532213E-08
 -7.76597429E-06  8.96481324E-05  3.08099249E-06  1.00198268E-05 -3.45165846E-10
 -1.16112280E-08  9.95891410E-01  2.51143185E-02  2.85815540E-04 -8.08786486E-04
  8.45464654E-08 -2.35573515E-03 -1.09690392E-03 -6.19661804E-04  6.04589780E-08
 -7.43809404E-04 -4.39790218E-04 -2.35569729E-03 -7.22460536E-05  1.12712474E-08
 -2.31679469E-07 -1.80533143E-04 -3.20689120E-05 -1.80538008E-04 -3.20808802E-05
 -8.25635002E-05 -2.71274559E-04  7.00701030E-05  1.38068230E-04  7.00696565E-05
  1.38057511E-04  2.97194003E-04  2.71640441E-04 -1.36404935E-04  1.96010425E-04
  1.43493495E-04  1.80737616E-04 -1.79346366E-08  1.40682928E-03  1.54992411E-05
 -5.67354413E-04  5.68730479E-08 -4.92344430E-04 -4.62740313E-04  1.26417327E-04
 -4.40052079E-04  4.33578240E-08  7.01833242E-08 -5.16429873E-05 -2.28314158E-04
  2.01518778E-06 -4.06476922E-05  4.27336028E-09  1.57197217E-03  1.96227440E-04
  4.25455235E-04 -4.43638847E-08 -1.63922805E-04 -1.13176876E-04 -1.27868128E-04
 -6.55982312E-06  5.76846527E-10 -1.92085078E-09  9.54961772E-06  2.36575898E-05
 -2.94706135E-05  3.15722122E-05 -2.22527688E-09 -7.40920687E-04 -2.34691667E-04
  3.52856409E-05 -9.42780566E-09  6.32696024E-05  4.03604911E-05 -6.22025228E-05
  3.53447366E-05 -4.58107011E-09 -1.19254793E-08  9.95890921E-01  2.75615978E-02
 -8.92179174E-04 -7.49555330E-04  7.52815602E-08 -1.40374793E-02  2.28179341E-04
  1.69019080E-04 -2.01790388E-08 -1.43735776E-03 -1.43976129E-03 -1.46735773E-03
  2.04698080E-05 -1.46260447E-09 -3.56316912E-09  4.57827195E-03  2.18713810E-04
  2.91637322E-05  4.03419965E-06 -9.67652426E-10  2.96992184E-03 -1.46107376E-03
  6.68480458E-04 -8.84294338E-08 -3.86446128E-04 -2.10765499E-04 -1.00610067E-04
  1.83934352E-04 -2.53781081E-08  1.65300551E-08  1.43151583E-05 -3.16059363E-04
 -1.85766180E-05 -1.97890235E-05  1.82164248E-09  4.98304271E-04  1.50722960E-03
  1.42016533E-03 -1.42473724E-07  1.40287298E-04  3.24974641E-05 -7.75590292E-05
  1.17082389E-05 -1.18690312E-09 -1.27873629E-08  2.22455944E-04  2.52766906E-03
  2.22458799E-04  2.52766253E-03 -7.70503971E-05  1.27809185E-04 -1.43793267E-04
  1.14931913E-04 -1.43791765E-04  1.14935108E-04 -8.48105149E-05  1.31086365E-04
 -8.96605279E-06 -1.17446052E-04 -1.05072938E-04  2.17036348E-05 -3.82940900E-09
  7.93757036E-05  4.54951481E-04 -1.42358695E-04  2.05622908E-08  7.34923027E-05
 -5.19072398E-05 -1.13944542E-04  1.66731730E-05  1.46142910E-09 -8.68668863E-09
 -1.54600273E-05 -7.25265796E-05 -1.71565747E-05 -6.10575908E-06  2.07368811E-10
  3.91354765E-04  1.37652381E-04  8.61707890E-05 -6.60826655E-09 -2.58528799E-05
 -4.50422815E-05 -5.38111535E-05  1.35932432E-05 -1.17430605E-09 -6.72285960E-10
 -6.36013686E-06 -1.72830792E-05 -1.87867257E-05  1.84263536E-06 -2.44601353E-10
 -4.60231579E-05  2.92628466E-05  3.13528551E-05 -1.94974848E-09 -1.39950138E-06
 -2.56188311E-05 -4.05366900E-05  2.95152419E-06 -4.59960713E-10 -2.27097890E-09
 -4.87041534E-03  1.64074994E-05  7.33891158E-06  4.18082617E-05 -4.59313887E-09
  3.67370303E-03  1.78511039E-03 -8.49586532E-04  1.17613831E-07 -4.02331108E-04
 -2.78878485E-04 -7.55150386E-05  1.42714744E-04 -2.06302805E-08  2.85891717E-08
  9.95715141E-01  2.86101126E-02 -1.55917570E-04  1.18333297E-04 -1.56250167E-08
 -1.53033698E-02  8.25901889E-04 -4.03120260E-04  5.67111255E-08 -1.86686301E-03
 -1.86242250E-03 -1.84493966E-03  2.87050809E-05 -3.73592716E-09  2.63854440E-09