
    -----------------------------------------------------------------------
          Psi4: An Open-Source Ab Initio Electronic Structure Package
                               Psi4 1.4a3.dev225 

                         Git: Rev {master} 7105e37 


    D. G. A. Smith, L. A. Burns, A. C. Simmonett, R. M. Parrish,
    M. C. Schieber, R. Galvelis, P. Kraus, H. Kruse, R. Di Remigio,
    A. Alenaizan, A. M. James, S. Lehtola, J. P. Misiewicz, M. Scheurer,
    R. A. Shaw, J. B. Schriber, Y. Xie, Z. L. Glick, D. A. Sirianni,
    J. S. O'Brien, J. M. Waldrop, A. Kumar, E. G. Hohenstein,
    B. P. Pritchard, B. R. Brooks, H. F. Schaefer III, A. Yu. Sokolov,
    K. Patkowski, A. E. DePrince III, U. Bozkaya, R. A. King,
    F. A. Evangelista, J. M. Turney, T. D. Crawford, C. D. Sherrill,
    J. Chem. Phys. 152(18) 184108 (2020). https://doi.org/10.1063/5.0006002

                            Additional Code Authors
    E. T. Seidl, C. L. Janssen, E. F. Valeev, M. L. Leininger,
    J. F. Gonthier, R. M. Richard, H. R. McAlexander, M. Saitow, X. Wang,
    P. Verma, and M. H. Lechner

             Previous Authors, Complete List of Code Contributors,
                       and Citations for Specific Modules
    https://github.com/psi4/psi4/blob/master/codemeta.json
    https://github.com/psi4/psi4/graphs/contributors
    http://psicode.org/psi4manual/master/introduction.html#citing-psifour

    -----------------------------------------------------------------------


    Psi4 started on: Saturday, 27 February 2021 03:07PM

    Process ID: 124083
    Host:       c403-114.stampede2.tacc.utexas.edu
    PSIDATADIR: /home1/07844/xy3866/miniconda3/envs/p4env/share/psi4
    Memory:     500.0 MiB
    Threads:    32
    
  ==> Input File <==

--------------------------------------------------------------------------
#psi4
#
memory 32 gb

molecule  {
0 1
  O       -2.7436610    -0.2479860    -0.0003050
  C        0.8706510    -0.0504500     0.0000920
  C        2.0389000    -0.9960240     0.0002020
  C        1.2510070     1.4052230     0.0001730
  C       -0.3937780    -0.5296350    -0.0000590
  C       -1.6246660     0.2665400    -0.0001750
  H        2.6694560    -0.8265420     0.8807060
  H        2.6696250    -0.8265350    -0.8801800
  H        1.7156570    -2.0395440     0.0001660
  H        1.8655830     1.6274140    -0.8794340
  H        1.9213860     1.6476567     0.9602568
  H        0.3995010     2.0850070     0.0000600
  H       -0.5613960    -1.6053580    -0.0001000
  H       -1.5271570     1.3681380    -0.0001420
units angstrom
no_reorient  #important for SAPT in psi4, default
symmetry c1  #important for SAPT in psi4, default
}

set PROPERTIES_ORIGIN ["COM"]
properties('MP2/aug-cc-pvtz', properties = ['dipole'])
--------------------------------------------------------------------------

  Memory set to  29.802 GiB by Python driver.
    SCF Algorithm Type (re)set to DF.

*** tstart() called on c403-114.stampede2.tacc.utexas.edu
*** at Sat Feb 27 15:07:15 2021

   => Loading Basis Set <=

    Name: AUG-CC-PVTZ
    Role: ORBITAL
    Keyword: BASIS
    atoms 1    entry O          line   331 file /home1/07844/xy3866/miniconda3/envs/p4env/share/psi4/basis/aug-cc-pvtz.gbs 
    atoms 2-6  entry C          line   239 file /home1/07844/xy3866/miniconda3/envs/p4env/share/psi4/basis/aug-cc-pvtz.gbs 
    atoms 7-14 entry H          line    40 file /home1/07844/xy3866/miniconda3/envs/p4env/share/psi4/basis/aug-cc-pvtz.gbs 


         ---------------------------------------------------------
                                   SCF
               by Justin Turney, Rob Parrish, Andy Simmonett
                          and Daniel G. A. Smith
                              RHF Reference
                       32 Threads,  30517 MiB Core
         ---------------------------------------------------------

  ==> Geometry <==

    Molecular point group: c1
    Full point group: C1

    Geometry (in Angstrom), charge = 0, multiplicity = 1:

       Center              X                  Y                   Z               Mass       
    ------------   -----------------  -----------------  -----------------  -----------------
         O           -2.637127031767    -0.231601521461    -0.001255382401    15.994914619570
         C            0.977184968233    -0.034065521461    -0.000858382401    12.000000000000
         C            2.145433968233    -0.979639521461    -0.000748382401    12.000000000000
         C            1.357540968233     1.421607478539    -0.000777382401    12.000000000000
         C           -0.287244031767    -0.513250521461    -0.001009382401    12.000000000000
         C           -1.518132031767     0.282924478539    -0.001125382401    12.000000000000
         H            2.775989968233    -0.810157521461     0.879755617599     1.007825032230
         H            2.776158968233    -0.810150521461    -0.881130382401     1.007825032230
         H            1.822190968233    -2.023159521461    -0.000784382401     1.007825032230
         H            1.972116968233     1.643798478539    -0.880384382401     1.007825032230
         H            2.027919968233     1.664041178539     0.959306417599     1.007825032230
         H            0.506034968233     2.101391478539    -0.000890382401     1.007825032230
         H           -0.454862031767    -1.588973521461    -0.001050382401     1.007825032230
         H           -1.420623031767     1.384522478539    -0.001092382401     1.007825032230

  Running in c1 symmetry.

  Rotational constants: A =      0.26382  B =      0.06448  C =      0.05288 [cm^-1]
  Rotational constants: A =   7909.17501  B =   1933.13156  C =   1585.31907 [MHz]
  Nuclear repulsion =  216.323618878437088

  Charge       = 0
  Multiplicity = 1
  Electrons    = 46
  Nalpha       = 23
  Nbeta        = 23

  ==> Algorithm <==

  SCF Algorithm Type is DF.
  DIIS enabled.
  MOM disabled.
  Fractional occupation disabled.
  Guess Type is SAD.
  Energy threshold   = 1.00e-10
  Density threshold  = 1.00e-10
  Integral threshold = 1.00e-12

  ==> Primary Basis <==

  Basis Set: AUG-CC-PVTZ
    Blend: AUG-CC-PVTZ
    Number of shells: 156
    Number of basis functions: 460
    Number of Cartesian functions: 530
    Spherical Harmonics?: true
    Max angular momentum: 3

   => Loading Basis Set <=

    Name: (AUG-CC-PVTZ AUX)
    Role: JKFIT
    Keyword: DF_BASIS_SCF
    atoms 1    entry O          line   286 file /home1/07844/xy3866/miniconda3/envs/p4env/share/psi4/basis/aug-cc-pvtz-jkfit.gbs 
    atoms 2-6  entry C          line   162 file /home1/07844/xy3866/miniconda3/envs/p4env/share/psi4/basis/aug-cc-pvtz-jkfit.gbs 
    atoms 7-14 entry H          line    70 file /home1/07844/xy3866/miniconda3/envs/p4env/share/psi4/basis/aug-cc-pvtz-jkfit.gbs 

  ==> Integral Setup <==

  DFHelper Memory: AOs need 1.583 GiB; user supplied 22.352 GiB. Using in-core AOs.

  ==> MemDFJK: Density-Fitted J/K Matrices <==

    J tasked:                   Yes
    K tasked:                   Yes
    wK tasked:                   No
    OpenMP threads:              32
    Memory [MiB]:             22888
    Algorithm:                 Core
    Schwarz Cutoff:           1E-12
    Mask sparsity (%):       5.1739
    Fitting Condition:        1E-10

   => Auxiliary Basis Set <=

  Basis Set: (AUG-CC-PVTZ AUX)
    Blend: AUG-CC-PVTZ-JKFIT
    Number of shells: 292
    Number of basis functions: 992
    Number of Cartesian functions: 1226
    Spherical Harmonics?: true
    Max angular momentum: 4

  Minimum eigenvalue in the overlap matrix is 2.8281507423E-06.
  Reciprocal condition number of the overlap matrix is 1.6114407001E-07.
    Using symmetric orthogonalization.

  ==> Pre-Iterations <==

  SCF Guess: Superposition of Atomic Densities via on-the-fly atomic UHF (no occupation information).

   -------------------------
    Irrep   Nso     Nmo    
   -------------------------
     A        460     460 
   -------------------------
    Total     460     460
   -------------------------

  ==> Iterations <==

                           Total Energy        Delta E     RMS |[F,P]|

   @DF-RHF iter SAD:  -267.85890564715965   -2.67859e+02   0.00000e+00 
   @DF-RHF iter   1:  -268.70162280425274   -8.42717e-01   1.35668e-03 DIIS
   @DF-RHF iter   2:  -268.88011516075483   -1.78492e-01   7.58054e-04 DIIS
   @DF-RHF iter   3:  -268.92495427770859   -4.48391e-02   1.78079e-04 DIIS
   @DF-RHF iter   4:  -268.92895602669722   -4.00175e-03   7.37994e-05 DIIS
   @DF-RHF iter   5:  -268.92977856289582   -8.22536e-04   1.27854e-05 DIIS
   @DF-RHF iter   6:  -268.92983809281628   -5.95299e-05   7.27563e-06 DIIS
   @DF-RHF iter   7:  -268.92985049600804   -1.24032e-05   3.00834e-06 DIIS
   @DF-RHF iter   8:  -268.92985436502630   -3.86902e-06   1.31453e-06 DIIS
   @DF-RHF iter   9:  -268.92985489042849   -5.25402e-07   3.41438e-07 DIIS
   @DF-RHF iter  10:  -268.92985492625979   -3.58313e-08   1.04930e-07 DIIS
   @DF-RHF iter  11:  -268.92985492931228   -3.05249e-09   2.63844e-08 DIIS
   @DF-RHF iter  12:  -268.92985492949526   -1.82979e-10   7.15547e-09 DIIS
   @DF-RHF iter  13:  -268.92985492950959   -1.43245e-11   2.40555e-09 DIIS
   @DF-RHF iter  14:  -268.92985492951090   -1.30740e-12   9.81510e-10 DIIS
   @DF-RHF iter  15:  -268.92985492951158   -6.82121e-13   2.82990e-10 DIIS
   @DF-RHF iter  16:  -268.92985492951107    5.11591e-13   1.04574e-10 DIIS
   @DF-RHF iter  17:  -268.92985492951124   -1.70530e-13   3.40868e-11 DIIS
  Energy and wave function converged.


  ==> Post-Iterations <==

    Orbital Energies [Eh]
    ---------------------

    Doubly Occupied:                                                      

       1A    -20.544999     2A    -11.328080     3A    -11.284095  
       4A    -11.258861     5A    -11.243123     6A    -11.236780  
       7A     -1.367753     8A     -1.123814     9A     -0.984694  
      10A     -0.962259    11A     -0.830660    12A     -0.743740  
      13A     -0.669835    14A     -0.640441    15A     -0.612647  
      16A     -0.599345    17A     -0.557857    18A     -0.554375  
      19A     -0.538888    20A     -0.522594    21A     -0.517695  
      22A     -0.419679    23A     -0.367463  

    Virtual:                                                              

      24A      0.022427    25A      0.032107    26A      0.036833  
      27A      0.041629    28A      0.050721    29A      0.057296  
      30A      0.057745    31A      0.076447    32A      0.080742  
      33A      0.085716    34A      0.102401    35A      0.106956  
      36A      0.112837    37A      0.115007    38A      0.120740  
      39A      0.128592    40A      0.133337    41A      0.138436  
      42A      0.139639    43A      0.142951    44A      0.146276  
      45A      0.147196    46A      0.159942    47A      0.166606  
      48A      0.182064    49A      0.183991    50A      0.186777  
      51A      0.219748    52A      0.226264    53A      0.228615  
      54A      0.236721    55A      0.246586    56A      0.251933  
      57A      0.252543    58A      0.260075    59A      0.278824  
      60A      0.289683    61A      0.300519    62A      0.303565  
      63A      0.309472    64A      0.321436    65A      0.322555  
      66A      0.325958    67A      0.333086    68A      0.334841  
      69A      0.348047    70A      0.354706    71A      0.356879  
      72A      0.358012    73A      0.358740    74A      0.367477  
      75A      0.373683    76A      0.385134    77A      0.387729  
      78A      0.389548    79A      0.404122    80A      0.407813  
      81A      0.412352    82A      0.422648    83A      0.431154  
      84A      0.432499    85A      0.438816    86A      0.439144  
      87A      0.453052    88A      0.458100    89A      0.461779  
      90A      0.464109    91A      0.471521    92A      0.475153  
      93A      0.483848    94A      0.494240    95A      0.505862  
      96A      0.507856    97A      0.509767    98A      0.519929  
      99A      0.528442   100A      0.537743   101A      0.552961  
     102A      0.562927   103A      0.571740   104A      0.581450  
     105A      0.586610   106A      0.595750   107A      0.598835  
     108A      0.613029   109A      0.621494   110A      0.630401  
     111A      0.640705   112A      0.652807   113A      0.673218  
     114A      0.678725   115A      0.680977   116A      0.685791  
     117A      0.704219   118A      0.709606   119A      0.717075  
     120A      0.731654   121A      0.763756   122A      0.774050  
     123A      0.794230   124A      0.801889   125A      0.808529  
     126A      0.815539   127A      0.819081   128A      0.830205  
     129A      0.837553   130A      0.848543   131A      0.849909  
     132A      0.859025   133A      0.871015   134A      0.876867  
     135A      0.879157   136A      0.885532   137A      0.896386  
     138A      0.903923   139A      0.912684   140A      0.915018  
     141A      0.918315   142A      0.926054   143A      0.934249  
     144A      0.939922   145A      0.942559   146A      0.954978  
     147A      0.975554   148A      0.978546   149A      0.979055  
     150A      0.994724   151A      0.997996   152A      0.999037  
     153A      1.002293   154A      1.025634   155A      1.032742  
     156A      1.033001   157A      1.040223   158A      1.044436  
     159A      1.058027   160A      1.072353   161A      1.081091  
     162A      1.082943   163A      1.091669   164A      1.099397  
     165A      1.101089   166A      1.107911   167A      1.127676  
     168A      1.145923   169A      1.153552   170A      1.159826  
     171A      1.164819   172A      1.173552   173A      1.183330  
     174A      1.186738   175A      1.195483   176A      1.198885  
     177A      1.207002   178A      1.217108   179A      1.220393  
     180A      1.244467   181A      1.251002   182A      1.280069  
     183A      1.286112   184A      1.292481   185A      1.318324  
     186A      1.330630   187A      1.349363   188A      1.359155  
     189A      1.367806   190A      1.380964   191A      1.386575  
     192A      1.391811   193A      1.413826   194A      1.417628  
     195A      1.431974   196A      1.443762   197A      1.450793  
     198A      1.460252   199A      1.482058   200A      1.507106  
     201A      1.519237   202A      1.523156   203A      1.529014  
     204A      1.550440   205A      1.558584   206A      1.563865  
     207A      1.574582   208A      1.595195   209A      1.599934  
     210A      1.605032   211A      1.622247   212A      1.631749  
     213A      1.638489   214A      1.658050   215A      1.671012  
     216A      1.674825   217A      1.691107   218A      1.696042  
     219A      1.708176   220A      1.728961   221A      1.734004  
     222A      1.756033   223A      1.772683   224A      1.777015  
     225A      1.790093   226A      1.798239   227A      1.808229  
     228A      1.822556   229A      1.829525   230A      1.844142  
     231A      1.853803   232A      1.857610   233A      1.875544  
     234A      1.889605   235A      1.910661   236A      1.915398  
     237A      1.932636   238A      1.955125   239A      1.969364  
     240A      1.980296   241A      1.984181   242A      1.997098  
     243A      2.019795   244A      2.043822   245A      2.061723  
     246A      2.063889   247A      2.075971   248A      2.097387  
     249A      2.117577   250A      2.125163   251A      2.134625  
     252A      2.150257   253A      2.179120   254A      2.195188  
     255A      2.205495   256A      2.212726   257A      2.221272  
     258A      2.236731   259A      2.262462   260A      2.276351  
     261A      2.292685   262A      2.301198   263A      2.313024  
     264A      2.316002   265A      2.363038   266A      2.368621  
     267A      2.383287   268A      2.414466   269A      2.429342  
     270A      2.444456   271A      2.454231   272A      2.459572  
     273A      2.516181   274A      2.524426   275A      2.551049  
     276A      2.572151   277A      2.604403   278A      2.655995  
     279A      2.660849   280A      2.698491   281A      2.752588  
     282A      2.768591   283A      2.806405   284A      2.822408  
     285A      2.853047   286A      2.922512   287A      2.941791  
     288A      3.015839   289A      3.086308   290A      3.102247  
     291A      3.121373   292A      3.167624   293A      3.218783  
     294A      3.228228   295A      3.270695   296A      3.304876  
     297A      3.339118   298A      3.363263   299A      3.369954  
     300A      3.401017   301A      3.404735   302A      3.407145  
     303A      3.430978   304A      3.457993   305A      3.476400  
     306A      3.502432   307A      3.523859   308A      3.531318  
     309A      3.535457   310A      3.553820   311A      3.570204  
     312A      3.585214   313A      3.589578   314A      3.607710  
     315A      3.614095   316A      3.647577   317A      3.659639  
     318A      3.678445   319A      3.693550   320A      3.707833  
     321A      3.717128   322A      3.722529   323A      3.726800  
     324A      3.743443   325A      3.779736   326A      3.789269  
     327A      3.822735   328A      3.836746   329A      3.843589  
     330A      3.869549   331A      3.877431   332A      3.879809  
     333A      3.906141   334A      3.930903   335A      3.935007  
     336A      3.950678   337A      3.969399   338A      3.986562  
     339A      3.992846   340A      3.997669   341A      4.017640  
     342A      4.019963   343A      4.029899   344A      4.035863  
     345A      4.054786   346A      4.080812   347A      4.094107  
     348A      4.121786   349A      4.164922   350A      4.168564  
     351A      4.169421   352A      4.185228   353A      4.200468  
     354A      4.238275   355A      4.245962   356A      4.252026  
     357A      4.264140   358A      4.299427   359A      4.319802  
     360A      4.328548   361A      4.352913   362A      4.383892  
     363A      4.403981   364A      4.415587   365A      4.440223  
     366A      4.463201   367A      4.466759   368A      4.494254  
     369A      4.518584   370A      4.535637   371A      4.572790  
     372A      4.587924   373A      4.600520   374A      4.617108  
     375A      4.665886   376A      4.679190   377A      4.696053  
     378A      4.708635   379A      4.735373   380A      4.753787  
     381A      4.768719   382A      4.791411   383A      4.795076  
     384A      4.832553   385A      4.857713   386A      4.864117  
     387A      4.877403   388A      4.895670   389A      4.913072  
     390A      4.970083   391A      4.988966   392A      5.007898  
     393A      5.018787   394A      5.033208   395A      5.042718  
     396A      5.088705   397A      5.122726   398A      5.127531  
     399A      5.158348   400A      5.188306   401A      5.194042  
     402A      5.236798   403A      5.259256   404A      5.277634  
     405A      5.281766   406A      5.302174   407A      5.321426  
     408A      5.334578   409A      5.356871   410A      5.409485  
     411A      5.439247   412A      5.454369   413A      5.502383  
     414A      5.518533   415A      5.535758   416A      5.547474  
     417A      5.590413   418A      5.636232   419A      5.666892  
     420A      5.723925   421A      5.752014   422A      5.799975  
     423A      5.818772   424A      5.881874   425A      5.892755  
     426A      5.972546   427A      6.029339   428A      6.076554  
     429A      6.093961   430A      6.162074   431A      6.172551  
     432A      6.210752   433A      6.284259   434A      6.363985  
     435A      6.445187   436A      6.543643   437A      6.606261  
     438A      6.654574   439A      6.678473   440A      6.707568  
     441A      6.723489   442A      6.752812   443A      6.796666  
     444A      6.824916   445A      6.962124   446A      7.067973  
     447A      7.146413   448A      7.343608   449A      7.360593  
     450A      7.605474   451A      7.670389   452A      7.700706  
     453A      7.860729   454A      7.922797   455A     15.283975  
     456A     16.987774   457A     17.190130   458A     17.524548  
     459A     19.438671   460A     20.239240  

    Final Occupation by Irrep:
              A 
    DOCC [    23 ]

  @DF-RHF Final Energy:  -268.92985492951124

   => Energetics <=

    Nuclear Repulsion Energy =            216.3236188784370881
    One-Electron Energy =                -792.6875914904347837
    Two-Electron Energy =                 307.4341176824864874
    Total Energy =                       -268.9298549295112366

Computation Completed

*** tstop() called on c403-114.stampede2.tacc.utexas.edu at Sat Feb 27 15:07:32 2021
Module time:
	user time   =     259.16 seconds =       4.32 minutes
	system time =      20.62 seconds =       0.34 minutes
	total time  =         17 seconds =       0.28 minutes
Total time:
	user time   =     259.16 seconds =       4.32 minutes
	system time =      20.62 seconds =       0.34 minutes
	total time  =         17 seconds =       0.28 minutes
   => Loading Basis Set <=

    Name: (AUG-CC-PVTZ AUX)
    Role: RIFIT
    Keyword: DF_BASIS_MP2
    atoms 1    entry O          line   264 file /home1/07844/xy3866/miniconda3/envs/p4env/share/psi4/basis/aug-cc-pvtz-ri.gbs 
    atoms 2-6  entry C          line   148 file /home1/07844/xy3866/miniconda3/envs/p4env/share/psi4/basis/aug-cc-pvtz-ri.gbs 
    atoms 7-14 entry H          line    30 file /home1/07844/xy3866/miniconda3/envs/p4env/share/psi4/basis/aug-cc-pvtz-ri.gbs 


*** tstart() called on c403-114.stampede2.tacc.utexas.edu
*** at Sat Feb 27 15:07:33 2021


  //>>>>>>>>>>>>>>>>>>>>>>>>>>>>>>>>>>>//
  //               DFMP2               //
  //<<<<<<<<<<<<<<<<<<<<<<<<<<<<<<<<<<<//

	 --------------------------------------------------------
	                          DF-MP2                         
	      2nd-Order Density-Fitted Moller-Plesset Theory     
	              RMP2 Wavefunction,  32 Threads             
	                                                         
	        Rob Parrish, Justin Turney, Andy Simmonett,      
	           Ed Hohenstein, and C. David Sherrill          
	 --------------------------------------------------------

   => Auxiliary Basis Set <=

  Basis Set: (AUG-CC-PVTZ AUX)
    Blend: AUG-CC-PVTZ-RI
    Number of shells: 280
    Number of basis functions: 1004
    Number of Cartesian functions: 1256
    Spherical Harmonics?: true
    Max angular momentum: 4

	 --------------------------------------------------------
	                 NBF =   460, NAUX =  1004
	 --------------------------------------------------------
	   CLASS    FOCC     OCC    AOCC    AVIR     VIR    FVIR
	   PAIRS       0      23      23     437     437       0
	 --------------------------------------------------------

  DFHelper Memory: AOs need 1.615 GiB; user supplied 22.352 GiB. Using in-core AOs.


         ------------------------------------------------------------
                                     CPHF                           
                                  Rob Parrish                       
         ------------------------------------------------------------

  ==> Geometry <==

    Molecular point group: c1
    Full point group: C1

    Geometry (in Angstrom), charge = 0, multiplicity = 1:

       Center              X                  Y                   Z               Mass       
    ------------   -----------------  -----------------  -----------------  -----------------
         O           -2.637127031767    -0.231601521461    -0.001255382401    15.994914619570
         C            0.977184968233    -0.034065521461    -0.000858382401    12.000000000000
         C            2.145433968233    -0.979639521461    -0.000748382401    12.000000000000
         C            1.357540968233     1.421607478539    -0.000777382401    12.000000000000
         C           -0.287244031767    -0.513250521461    -0.001009382401    12.000000000000
         C           -1.518132031767     0.282924478539    -0.001125382401    12.000000000000
         H            2.775989968233    -0.810157521461     0.879755617599     1.007825032230
         H            2.776158968233    -0.810150521461    -0.881130382401     1.007825032230
         H            1.822190968233    -2.023159521461    -0.000784382401     1.007825032230
         H            1.972116968233     1.643798478539    -0.880384382401     1.007825032230
         H            2.027919968233     1.664041178539     0.959306417599     1.007825032230
         H            0.506034968233     2.101391478539    -0.000890382401     1.007825032230
         H           -0.454862031767    -1.588973521461    -0.001050382401     1.007825032230
         H           -1.420623031767     1.384522478539    -0.001092382401     1.007825032230

  Nuclear repulsion =  216.323618878437088
  Reference energy  = -268.929854929511237

  ==> Basis Set <==

  Basis Set: AUG-CC-PVTZ
    Blend: AUG-CC-PVTZ
    Number of shells: 156
    Number of basis functions: 460
    Number of Cartesian functions: 530
    Spherical Harmonics?: true
    Max angular momentum: 3

  ==> CGRSolver (by Rob Parrish) <==

   Number of roots    =         1
   Preconditioning    =    JACOBI
   Convergence cutoff =     1E-06
   Maximum iterations =       100

  ==> CPHFRHamiltonian (by Rob Parrish) <== 

  ==> MemDFJK: Density-Fitted J/K Matrices <==

    J tasked:                   Yes
    K tasked:                   Yes
    wK tasked:                   No
    OpenMP threads:              32
    Memory [MiB]:             22888
    Algorithm:                 Core
    Schwarz Cutoff:           1E-12
    Mask sparsity (%):       3.1267
    Fitting Condition:        1E-10

   => Auxiliary Basis Set <=

  Basis Set: (AUG-CC-PVTZ AUX)
    Blend: AUG-CC-PVTZ-JKFIT
    Number of shells: 292
    Number of basis functions: 992
    Number of Cartesian functions: 1226
    Spherical Harmonics?: true
    Max angular momentum: 4

  ==> CPHF Iterations <==

  => Iterations <=

             Iter  Converged  Remaining    Residual
  CGR           1          0          1   1.146E-01
  CGR           2          0          1   3.714E-02
  CGR           3          0          1   1.325E-02
  CGR           4          0          1   5.283E-03
  CGR           5          0          1   2.470E-03
  CGR           6          0          1   8.086E-04
  CGR           7          0          1   1.764E-04
  CGR           8          0          1   6.486E-05
  CGR           9          0          1   1.466E-05
  CGR          10          0          1   3.342E-06
  CGR          11          0          1   1.040E-06
  CGR          12          1          0   4.692E-07

    CGRSolver converged.

	-----------------------------------------------------------
	 ==================> DF-MP2 Energies <==================== 
	-----------------------------------------------------------
	 Reference Energy          =    -268.9298549295112366 [Eh]
	 Singles Energy            =      -0.0000000000000000 [Eh]
	 Same-Spin Energy          =      -0.2712207723349193 [Eh]
	 Opposite-Spin Energy      =      -0.9166244362276955 [Eh]
	 Correlation Energy        =      -1.1878452085626148 [Eh]
	 Total Energy              =    -270.1177001380738716 [Eh]
	-----------------------------------------------------------
	 ================> DF-SCS-MP2 Energies <================== 
	-----------------------------------------------------------
	 SCS Same-Spin Scale       =       0.3333333333333333 [-]
	 SCS Opposite-Spin Scale   =       1.2000000000000000 [-]
	 SCS Same-Spin Energy      =      -0.0904069241116398 [Eh]
	 SCS Opposite-Spin Energy  =      -1.0999493234732345 [Eh]
	 SCS Correlation Energy    =      -1.1903562475848743 [Eh]
	 SCS Total Energy          =    -270.1202111770961096 [Eh]
	-----------------------------------------------------------



Properties will be evaluated at  -0.000000,   0.000000,   0.000000 [a0]

Properties computed using the MP2 density matrix

  Nuclear Dipole Moment: [e a0]
     X:     9.3666      Y:     1.4626      Z:     0.0691

  Electronic Dipole Moment: [e a0]
     X:    -7.7656      Y:    -1.0875      Z:    -0.0810

  Dipole Moment: [e a0]
     X:     1.6010      Y:     0.3751      Z:    -0.0118     Total:     1.6444

  Dipole Moment: [D]
     X:     4.0694      Y:     0.9534      Z:    -0.0301     Total:     4.1797


*** tstop() called on c403-114.stampede2.tacc.utexas.edu at Sat Feb 27 15:08:56 2021
Module time:
	user time   =     604.37 seconds =      10.07 minutes
	system time =      19.59 seconds =       0.33 minutes
	total time  =         83 seconds =       1.38 minutes
Total time:
	user time   =     864.24 seconds =      14.40 minutes
	system time =      40.23 seconds =       0.67 minutes
	total time  =        101 seconds =       1.68 minutes

    Psi4 stopped on: Saturday, 27 February 2021 03:08PM
    Psi4 wall time for execution: 0:01:41.71

*** Psi4 exiting successfully. Buy a developer a beer!
