189_Arginine Gaussian SP Calculation on node58.bme.utexas.edu           
Freq      RMP2-FC                                                     6-31G(d)            
Number of atoms                            I               26
Info1-9                                    I   N=           9
          37          36        1002           0           0         100
           6           2           1
Charge                                     I                0
Multiplicity                               I                1
Number of electrons                        I               94
Number of alpha electrons                  I               47
Number of beta electrons                   I               47
Number of basis functions                  I              208
Number of independent functions            I              208
Number of point charges in /Mol/           I                0
Number of translation vectors              I                0
Atomic numbers                             I   N=          26
           8           8           7           7           7           7
           6           6           6           6           6           6
           1           1           1           1           1           1
           1           1           1           1           1           1
           1           1
Nuclear charges                            R   N=          26
  8.00000000E+00  8.00000000E+00  7.00000000E+00  7.00000000E+00  7.00000000E+00
  7.00000000E+00  6.00000000E+00  6.00000000E+00  6.00000000E+00  6.00000000E+00
  6.00000000E+00  6.00000000E+00  1.00000000E+00  1.00000000E+00  1.00000000E+00
  1.00000000E+00  1.00000000E+00  1.00000000E+00  1.00000000E+00  1.00000000E+00
  1.00000000E+00  1.00000000E+00  1.00000000E+00  1.00000000E+00  1.00000000E+00
  1.00000000E+00
Current cartesian coordinates              R   N=          78
 -4.19401545E+00  3.57013351E+00  5.06876257E-02 -7.09755004E+00  9.27725645E-01
 -1.64757461E+00 -5.28606528E+00 -3.12267644E+00  9.50734149E-01  3.73842050E+00
  6.14320133E-01 -4.58922765E-01  7.36731270E+00  2.49280737E+00  1.17767777E+00
  7.73763730E+00 -1.56874464E+00 -4.24982318E-01 -1.32081878E+00 -7.31470714E-01
  1.37495887E+00 -3.89810250E-01 -1.24972422E+00 -1.29938381E+00 -4.21050568E+00
 -6.56184247E-01  1.56938336E+00  2.45988687E+00 -1.64441924E+00 -1.37997632E+00
 -5.33577622E+00  1.28589347E+00 -2.04067633E-01  6.11056981E+00  4.55572121E-01
  4.02494660E-02 -5.19622167E-01  1.04500099E+00  2.06035667E+00 -6.57459108E-01
 -2.23427903E+00  2.64570729E+00 -1.35859605E+00 -2.91641326E+00 -2.05198428E+00
 -8.51884220E-01  3.60805809E-01 -2.51820265E+00 -4.71038839E+00  1.14808362E-02
  3.48463536E+00  2.92712478E+00 -3.32448156E+00 -2.29335230E-01  3.04293638E+00
 -2.07150607E+00 -3.33154224E+00 -7.11809297E+00 -2.90657806E+00  4.01249720E-01
 -5.26704936E+00 -4.24105806E+00  2.51519253E+00 -5.06865960E+00  4.69237057E+00
 -1.13421336E+00  6.19300386E+00  4.01111004E+00  1.22836310E+00  9.01160191E+00
  2.93186883E+00  2.86340947E-01  9.07468706E+00 -1.79218241E+00  9.31232120E-01
  6.85251087E+00 -3.21695983E+00 -8.31235549E-01
Force Field                                I                0
Int Atom Types                             I   N=          26
           0           0           0           0           0           0
           0           0           0           0           0           0
           0           0           0           0           0           0
           0           0           0           0           0           0
           0           0
MM charges                                 R   N=          26
  0.00000000E+00  0.00000000E+00  0.00000000E+00  0.00000000E+00  0.00000000E+00
  0.00000000E+00  0.00000000E+00  0.00000000E+00  0.00000000E+00  0.00000000E+00
  0.00000000E+00  0.00000000E+00  0.00000000E+00  0.00000000E+00  0.00000000E+00
  0.00000000E+00  0.00000000E+00  0.00000000E+00  0.00000000E+00  0.00000000E+00
  0.00000000E+00  0.00000000E+00  0.00000000E+00  0.00000000E+00  0.00000000E+00
  0.00000000E+00
Integer atomic weights                     I   N=          26
          16          16          14          14          14          14
          12          12          12          12          12          12
           1           1           1           1           1           1
           1           1           1           1           1           1
           1           1
Real atomic weights                        R   N=          26
  1.59949146E+01  1.59949146E+01  1.40030740E+01  1.40030740E+01  1.40030740E+01
  1.40030740E+01  1.20000000E+01  1.20000000E+01  1.20000000E+01  1.20000000E+01
  1.20000000E+01  1.20000000E+01  1.00782504E+00  1.00782504E+00  1.00782504E+00
  1.00782504E+00  1.00782504E+00  1.00782504E+00  1.00782504E+00  1.00782504E+00
  1.00782504E+00  1.00782504E+00  1.00782504E+00  1.00782504E+00  1.00782504E+00
  1.00782504E+00
Atom fragment info                         I   N=          26
           0           0           0           0           0           0
           0           0           0           0           0           0
           0           0           0           0           0           0
           0           0           0           0           0           0
           0           0
Atom residue num                           I   N=          26
           0           0           0           0           0           0
           0           0           0           0           0           0
           0           0           0           0           0           0
           0           0           0           0           0           0
           0           0
Nuclear spins                              I   N=          26
           0           0           2           2           2           2
           0           0           0           0           0           0
           1           1           1           1           1           1
           1           1           1           1           1           1
           1           1
Nuclear ZEff                               R   N=          26
 -5.60000000E+00 -5.60000000E+00 -4.55000000E+00 -4.55000000E+00 -4.55000000E+00
 -4.55000000E+00 -3.60000000E+00 -3.60000000E+00 -3.60000000E+00 -3.60000000E+00
 -3.60000000E+00 -3.60000000E+00 -1.00000000E+00 -1.00000000E+00 -1.00000000E+00
 -1.00000000E+00 -1.00000000E+00 -1.00000000E+00 -1.00000000E+00 -1.00000000E+00
 -1.00000000E+00 -1.00000000E+00 -1.00000000E+00 -1.00000000E+00 -1.00000000E+00
 -1.00000000E+00
Nuclear QMom                               R   N=          26
  0.00000000E+00  0.00000000E+00  2.04400000E+00  2.04400000E+00  2.04400000E+00
  2.04400000E+00  0.00000000E+00  0.00000000E+00  0.00000000E+00  0.00000000E+00
  0.00000000E+00  0.00000000E+00  0.00000000E+00  0.00000000E+00  0.00000000E+00
  0.00000000E+00  0.00000000E+00  0.00000000E+00  0.00000000E+00  0.00000000E+00
  0.00000000E+00  0.00000000E+00  0.00000000E+00  0.00000000E+00  0.00000000E+00
  0.00000000E+00
Nuclear GFac                               R   N=          26
  0.00000000E+00  0.00000000E+00  4.03761000E-01  4.03761000E-01  4.03761000E-01
  4.03761000E-01  0.00000000E+00  0.00000000E+00  0.00000000E+00  0.00000000E+00
  0.00000000E+00  0.00000000E+00  2.79284600E+00  2.79284600E+00  2.79284600E+00
  2.79284600E+00  2.79284600E+00  2.79284600E+00  2.79284600E+00  2.79284600E+00
  2.79284600E+00  2.79284600E+00  2.79284600E+00  2.79284600E+00  2.79284600E+00
  2.79284600E+00
MicOpt                                     I   N=          26
          -1          -1          -1          -1          -1          -1
          -1          -1          -1          -1          -1          -1
          -1          -1          -1          -1          -1          -1
          -1          -1          -1          -1          -1          -1
          -1          -1
Number of contracted shells                I               76
Number of primitive shells                 I              188
Pure/Cartesian d shells                    I                1
Pure/Cartesian f shells                    I                0
Highest angular momentum                   I                2
Largest degree of contraction              I                6
Shell types                                I   N=          76
           0          -1          -1           2           0          -1
          -1           2           0          -1          -1           2
           0          -1          -1           2           0          -1
          -1           2           0          -1          -1           2
           0          -1          -1           2           0          -1
          -1           2           0          -1          -1           2
           0          -1          -1           2           0          -1
          -1           2           0          -1          -1           2
           0           0           0           0           0           0
           0           0           0           0           0           0
           0           0           0           0           0           0
           0           0           0           0           0           0
           0           0           0           0
Number of primitives per shell             I   N=          76
           6           3           1           1           6           3
           1           1           6           3           1           1
           6           3           1           1           6           3
           1           1           6           3           1           1
           6           3           1           1           6           3
           1           1           6           3           1           1
           6           3           1           1           6           3
           1           1           6           3           1           1
           3           1           3           1           3           1
           3           1           3           1           3           1
           3           1           3           1           3           1
           3           1           3           1           3           1
           3           1           3           1
Shell to atom map                          I   N=          76
           1           1           1           1           2           2
           2           2           3           3           3           3
           4           4           4           4           5           5
           5           5           6           6           6           6
           7           7           7           7           8           8
           8           8           9           9           9           9
          10          10          10          10          11          11
          11          11          12          12          12          12
          13          13          14          14          15          15
          16          16          17          17          18          18
          19          19          20          20          21          21
          22          22          23          23          24          24
          25          25          26          26
Primitive exponents                        R   N=         188
  5.48467166E+03  8.25234946E+02  1.88046958E+02  5.29645000E+01  1.68975704E+01
  5.79963534E+00  1.55396162E+01  3.59993359E+00  1.01376175E+00  2.70005823E-01
  8.00000000E-01  5.48467166E+03  8.25234946E+02  1.88046958E+02  5.29645000E+01
  1.68975704E+01  5.79963534E+00  1.55396162E+01  3.59993359E+00  1.01376175E+00
  2.70005823E-01  8.00000000E-01  4.17351146E+03  6.27457911E+02  1.42902093E+02
  4.02343293E+01  1.28202129E+01  4.39043701E+00  1.16263619E+01  2.71627981E+00
  7.72218397E-01  2.12031498E-01  8.00000000E-01  4.17351146E+03  6.27457911E+02
  1.42902093E+02  4.02343293E+01  1.28202129E+01  4.39043701E+00  1.16263619E+01
  2.71627981E+00  7.72218397E-01  2.12031498E-01  8.00000000E-01  4.17351146E+03
  6.27457911E+02  1.42902093E+02  4.02343293E+01  1.28202129E+01  4.39043701E+00
  1.16263619E+01  2.71627981E+00  7.72218397E-01  2.12031498E-01  8.00000000E-01
  4.17351146E+03  6.27457911E+02  1.42902093E+02  4.02343293E+01  1.28202129E+01
  4.39043701E+00  1.16263619E+01  2.71627981E+00  7.72218397E-01  2.12031498E-01
  8.00000000E-01  3.04752488E+03  4.57369518E+02  1.03948685E+02  2.92101553E+01
  9.28666296E+00  3.16392696E+00  7.86827235E+00  1.88128854E+00  5.44249258E-01
  1.68714478E-01  8.00000000E-01  3.04752488E+03  4.57369518E+02  1.03948685E+02
  2.92101553E+01  9.28666296E+00  3.16392696E+00  7.86827235E+00  1.88128854E+00
  5.44249258E-01  1.68714478E-01  8.00000000E-01  3.04752488E+03  4.57369518E+02
  1.03948685E+02  2.92101553E+01  9.28666296E+00  3.16392696E+00  7.86827235E+00
  1.88128854E+00  5.44249258E-01  1.68714478E-01  8.00000000E-01  3.04752488E+03
  4.57369518E+02  1.03948685E+02  2.92101553E+01  9.28666296E+00  3.16392696E+00
  7.86827235E+00  1.88128854E+00  5.44249258E-01  1.68714478E-01  8.00000000E-01
  3.04752488E+03  4.57369518E+02  1.03948685E+02  2.92101553E+01  9.28666296E+00
  3.16392696E+00  7.86827235E+00  1.88128854E+00  5.44249258E-01  1.68714478E-01
  8.00000000E-01  3.04752488E+03  4.57369518E+02  1.03948685E+02  2.92101553E+01
  9.28666296E+00  3.16392696E+00  7.86827235E+00  1.88128854E+00  5.44249258E-01
  1.68714478E-01  8.00000000E-01  1.87311370E+01  2.82539436E+00  6.40121692E-01
  1.61277759E-01  1.87311370E+01  2.82539436E+00  6.40121692E-01  1.61277759E-01
  1.87311370E+01  2.82539436E+00  6.40121692E-01  1.61277759E-01  1.87311370E+01
  2.82539436E+00  6.40121692E-01  1.61277759E-01  1.87311370E+01  2.82539436E+00
  6.40121692E-01  1.61277759E-01  1.87311370E+01  2.82539436E+00  6.40121692E-01
  1.61277759E-01  1.87311370E+01  2.82539436E+00  6.40121692E-01  1.61277759E-01
  1.87311370E+01  2.82539436E+00  6.40121692E-01  1.61277759E-01  1.87311370E+01
  2.82539436E+00  6.40121692E-01  1.61277759E-01  1.87311370E+01  2.82539436E+00
  6.40121692E-01  1.61277759E-01  1.87311370E+01  2.82539436E+00  6.40121692E-01
  1.61277759E-01  1.87311370E+01  2.82539436E+00  6.40121692E-01  1.61277759E-01
  1.87311370E+01  2.82539436E+00  6.40121692E-01  1.61277759E-01  1.87311370E+01
  2.82539436E+00  6.40121692E-01  1.61277759E-01
Contraction coefficients                   R   N=         188
  1.83107443E-03  1.39501722E-02  6.84450781E-02  2.32714336E-01  4.70192898E-01
  3.58520853E-01 -1.10777550E-01 -1.48026263E-01  1.13076702E+00  1.00000000E+00
  1.00000000E+00  1.83107443E-03  1.39501722E-02  6.84450781E-02  2.32714336E-01
  4.70192898E-01  3.58520853E-01 -1.10777550E-01 -1.48026263E-01  1.13076702E+00
  1.00000000E+00  1.00000000E+00  1.83477216E-03  1.39946270E-02  6.85865518E-02
  2.32240873E-01  4.69069948E-01  3.60455199E-01 -1.14961182E-01 -1.69117479E-01
  1.14585195E+00  1.00000000E+00  1.00000000E+00  1.83477216E-03  1.39946270E-02
  6.85865518E-02  2.32240873E-01  4.69069948E-01  3.60455199E-01 -1.14961182E-01
 -1.69117479E-01  1.14585195E+00  1.00000000E+00  1.00000000E+00  1.83477216E-03
  1.39946270E-02  6.85865518E-02  2.32240873E-01  4.69069948E-01  3.60455199E-01
 -1.14961182E-01 -1.69117479E-01  1.14585195E+00  1.00000000E+00  1.00000000E+00
  1.83477216E-03  1.39946270E-02  6.85865518E-02  2.32240873E-01  4.69069948E-01
  3.60455199E-01 -1.14961182E-01 -1.69117479E-01  1.14585195E+00  1.00000000E+00
  1.00000000E+00  1.83473713E-03  1.40373228E-02  6.88426223E-02  2.32184443E-01
  4.67941348E-01  3.62311985E-01 -1.19332420E-01 -1.60854152E-01  1.14345644E+00
  1.00000000E+00  1.00000000E+00  1.83473713E-03  1.40373228E-02  6.88426223E-02
  2.32184443E-01  4.67941348E-01  3.62311985E-01 -1.19332420E-01 -1.60854152E-01
  1.14345644E+00  1.00000000E+00  1.00000000E+00  1.83473713E-03  1.40373228E-02
  6.88426223E-02  2.32184443E-01  4.67941348E-01  3.62311985E-01 -1.19332420E-01
 -1.60854152E-01  1.14345644E+00  1.00000000E+00  1.00000000E+00  1.83473713E-03
  1.40373228E-02  6.88426223E-02  2.32184443E-01  4.67941348E-01  3.62311985E-01
 -1.19332420E-01 -1.60854152E-01  1.14345644E+00  1.00000000E+00  1.00000000E+00
  1.83473713E-03  1.40373228E-02  6.88426223E-02  2.32184443E-01  4.67941348E-01
  3.62311985E-01 -1.19332420E-01 -1.60854152E-01  1.14345644E+00  1.00000000E+00
  1.00000000E+00  1.83473713E-03  1.40373228E-02  6.88426223E-02  2.32184443E-01
  4.67941348E-01  3.62311985E-01 -1.19332420E-01 -1.60854152E-01  1.14345644E+00
  1.00000000E+00  1.00000000E+00  3.34946043E-02  2.34726953E-01  8.13757326E-01
  1.00000000E+00  3.34946043E-02  2.34726953E-01  8.13757326E-01  1.00000000E+00
  3.34946043E-02  2.34726953E-01  8.13757326E-01  1.00000000E+00  3.34946043E-02
  2.34726953E-01  8.13757326E-01  1.00000000E+00  3.34946043E-02  2.34726953E-01
  8.13757326E-01  1.00000000E+00  3.34946043E-02  2.34726953E-01  8.13757326E-01
  1.00000000E+00  3.34946043E-02  2.34726953E-01  8.13757326E-01  1.00000000E+00
  3.34946043E-02  2.34726953E-01  8.13757326E-01  1.00000000E+00  3.34946043E-02
  2.34726953E-01  8.13757326E-01  1.00000000E+00  3.34946043E-02  2.34726953E-01
  8.13757326E-01  1.00000000E+00  3.34946043E-02  2.34726953E-01  8.13757326E-01
  1.00000000E+00  3.34946043E-02  2.34726953E-01  8.13757326E-01  1.00000000E+00
  3.34946043E-02  2.34726953E-01  8.13757326E-01  1.00000000E+00  3.34946043E-02
  2.34726953E-01  8.13757326E-01  1.00000000E+00
P(S=P) Contraction coefficients            R   N=         188
  0.00000000E+00  0.00000000E+00  0.00000000E+00  0.00000000E+00  0.00000000E+00
  0.00000000E+00  7.08742682E-02  3.39752839E-01  7.27158577E-01  1.00000000E+00
  0.00000000E+00  0.00000000E+00  0.00000000E+00  0.00000000E+00  0.00000000E+00
  0.00000000E+00  0.00000000E+00  7.08742682E-02  3.39752839E-01  7.27158577E-01
  1.00000000E+00  0.00000000E+00  0.00000000E+00  0.00000000E+00  0.00000000E+00
  0.00000000E+00  0.00000000E+00  0.00000000E+00  6.75797439E-02  3.23907296E-01
  7.40895140E-01  1.00000000E+00  0.00000000E+00  0.00000000E+00  0.00000000E+00
  0.00000000E+00  0.00000000E+00  0.00000000E+00  0.00000000E+00  6.75797439E-02
  3.23907296E-01  7.40895140E-01  1.00000000E+00  0.00000000E+00  0.00000000E+00
  0.00000000E+00  0.00000000E+00  0.00000000E+00  0.00000000E+00  0.00000000E+00
  6.75797439E-02  3.23907296E-01  7.40895140E-01  1.00000000E+00  0.00000000E+00
  0.00000000E+00  0.00000000E+00  0.00000000E+00  0.00000000E+00  0.00000000E+00
  0.00000000E+00  6.75797439E-02  3.23907296E-01  7.40895140E-01  1.00000000E+00
  0.00000000E+00  0.00000000E+00  0.00000000E+00  0.00000000E+00  0.00000000E+00
  0.00000000E+00  0.00000000E+00  6.89990666E-02  3.16423961E-01  7.44308291E-01
  1.00000000E+00  0.00000000E+00  0.00000000E+00  0.00000000E+00  0.00000000E+00
  0.00000000E+00  0.00000000E+00  0.00000000E+00  6.89990666E-02  3.16423961E-01
  7.44308291E-01  1.00000000E+00  0.00000000E+00  0.00000000E+00  0.00000000E+00
  0.00000000E+00  0.00000000E+00  0.00000000E+00  0.00000000E+00  6.89990666E-02
  3.16423961E-01  7.44308291E-01  1.00000000E+00  0.00000000E+00  0.00000000E+00
  0.00000000E+00  0.00000000E+00  0.00000000E+00  0.00000000E+00  0.00000000E+00
  6.89990666E-02  3.16423961E-01  7.44308291E-01  1.00000000E+00  0.00000000E+00
  0.00000000E+00  0.00000000E+00  0.00000000E+00  0.00000000E+00  0.00000000E+00
  0.00000000E+00  6.89990666E-02  3.16423961E-01  7.44308291E-01  1.00000000E+00
  0.00000000E+00  0.00000000E+00  0.00000000E+00  0.00000000E+00  0.00000000E+00
  0.00000000E+00  0.00000000E+00  6.89990666E-02  3.16423961E-01  7.44308291E-01
  1.00000000E+00  0.00000000E+00  0.00000000E+00  0.00000000E+00  0.00000000E+00
  0.00000000E+00  0.00000000E+00  0.00000000E+00  0.00000000E+00  0.00000000E+00
  0.00000000E+00  0.00000000E+00  0.00000000E+00  0.00000000E+00  0.00000000E+00
  0.00000000E+00  0.00000000E+00  0.00000000E+00  0.00000000E+00  0.00000000E+00
  0.00000000E+00  0.00000000E+00  0.00000000E+00  0.00000000E+00  0.00000000E+00
  0.00000000E+00  0.00000000E+00  0.00000000E+00  0.00000000E+00  0.00000000E+00
  0.00000000E+00  0.00000000E+00  0.00000000E+00  0.00000000E+00  0.00000000E+00
  0.00000000E+00  0.00000000E+00  0.00000000E+00  0.00000000E+00  0.00000000E+00
  0.00000000E+00  0.00000000E+00  0.00000000E+00  0.00000000E+00  0.00000000E+00
  0.00000000E+00  0.00000000E+00  0.00000000E+00  0.00000000E+00  0.00000000E+00
  0.00000000E+00  0.00000000E+00  0.00000000E+00  0.00000000E+00  0.00000000E+00
  0.00000000E+00  0.00000000E+00  0.00000000E+00
Coordinates of each shell                  R   N=         228
 -4.19401545E+00  3.57013351E+00  5.06876257E-02 -4.19401545E+00  3.57013351E+00
  5.06876257E-02 -4.19401545E+00  3.57013351E+00  5.06876257E-02 -4.19401545E+00
  3.57013351E+00  5.06876257E-02 -7.09755004E+00  9.27725645E-01 -1.64757461E+00
 -7.09755004E+00  9.27725645E-01 -1.64757461E+00 -7.09755004E+00  9.27725645E-01
 -1.64757461E+00 -7.09755004E+00  9.27725645E-01 -1.64757461E+00 -5.28606528E+00
 -3.12267644E+00  9.50734149E-01 -5.28606528E+00 -3.12267644E+00  9.50734149E-01
 -5.28606528E+00 -3.12267644E+00  9.50734149E-01 -5.28606528E+00 -3.12267644E+00
  9.50734149E-01  3.73842050E+00  6.14320133E-01 -4.58922765E-01  3.73842050E+00
  6.14320133E-01 -4.58922765E-01  3.73842050E+00  6.14320133E-01 -4.58922765E-01
  3.73842050E+00  6.14320133E-01 -4.58922765E-01  7.36731270E+00  2.49280737E+00
  1.17767777E+00  7.36731270E+00  2.49280737E+00  1.17767777E+00  7.36731270E+00
  2.49280737E+00  1.17767777E+00  7.36731270E+00  2.49280737E+00  1.17767777E+00
  7.73763730E+00 -1.56874464E+00 -4.24982318E-01  7.73763730E+00 -1.56874464E+00
 -4.24982318E-01  7.73763730E+00 -1.56874464E+00 -4.24982318E-01  7.73763730E+00
 -1.56874464E+00 -4.24982318E-01 -1.32081878E+00 -7.31470714E-01  1.37495887E+00
 -1.32081878E+00 -7.31470714E-01  1.37495887E+00 -1.32081878E+00 -7.31470714E-01
  1.37495887E+00 -1.32081878E+00 -7.31470714E-01  1.37495887E+00 -3.89810250E-01
 -1.24972422E+00 -1.29938381E+00 -3.89810250E-01 -1.24972422E+00 -1.29938381E+00
 -3.89810250E-01 -1.24972422E+00 -1.29938381E+00 -3.89810250E-01 -1.24972422E+00
 -1.29938381E+00 -4.21050568E+00 -6.56184247E-01  1.56938336E+00 -4.21050568E+00
 -6.56184247E-01  1.56938336E+00 -4.21050568E+00 -6.56184247E-01  1.56938336E+00
 -4.21050568E+00 -6.56184247E-01  1.56938336E+00  2.45988687E+00 -1.64441924E+00
 -1.37997632E+00  2.45988687E+00 -1.64441924E+00 -1.37997632E+00  2.45988687E+00
 -1.64441924E+00 -1.37997632E+00  2.45988687E+00 -1.64441924E+00 -1.37997632E+00
 -5.33577622E+00  1.28589347E+00 -2.04067633E-01 -5.33577622E+00  1.28589347E+00
 -2.04067633E-01 -5.33577622E+00  1.28589347E+00 -2.04067633E-01 -5.33577622E+00
  1.28589347E+00 -2.04067633E-01  6.11056981E+00  4.55572121E-01  4.02494660E-02
  6.11056981E+00  4.55572121E-01  4.02494660E-02  6.11056981E+00  4.55572121E-01
  4.02494660E-02  6.11056981E+00  4.55572121E-01  4.02494660E-02 -5.19622167E-01
  1.04500099E+00  2.06035667E+00 -5.19622167E-01  1.04500099E+00  2.06035667E+00
 -6.57459108E-01 -2.23427903E+00  2.64570729E+00 -6.57459108E-01 -2.23427903E+00
  2.64570729E+00 -1.35859605E+00 -2.91641326E+00 -2.05198428E+00 -1.35859605E+00
 -2.91641326E+00 -2.05198428E+00 -8.51884220E-01  3.60805809E-01 -2.51820265E+00
 -8.51884220E-01  3.60805809E-01 -2.51820265E+00 -4.71038839E+00  1.14808362E-02
  3.48463536E+00 -4.71038839E+00  1.14808362E-02  3.48463536E+00  2.92712478E+00
 -3.32448156E+00 -2.29335230E-01  2.92712478E+00 -3.32448156E+00 -2.29335230E-01
  3.04293638E+00 -2.07150607E+00 -3.33154224E+00  3.04293638E+00 -2.07150607E+00
 -3.33154224E+00 -7.11809297E+00 -2.90657806E+00  4.01249720E-01 -7.11809297E+00
 -2.90657806E+00  4.01249720E-01 -5.26704936E+00 -4.24105806E+00  2.51519253E+00
 -5.26704936E+00 -4.24105806E+00  2.51519253E+00 -5.06865960E+00  4.69237057E+00
 -1.13421336E+00 -5.06865960E+00  4.69237057E+00 -1.13421336E+00  6.19300386E+00
  4.01111004E+00  1.22836310E+00  6.19300386E+00  4.01111004E+00  1.22836310E+00
  9.01160191E+00  2.93186883E+00  2.86340947E-01  9.01160191E+00  2.93186883E+00
  2.86340947E-01  9.07468706E+00 -1.79218241E+00  9.31232120E-01  9.07468706E+00
 -1.79218241E+00  9.31232120E-01  6.85251087E+00 -3.21695983E+00 -8.31235549E-01
  6.85251087E+00 -3.21695983E+00 -8.31235549E-01
Constraint Structure                       R   N=          78
 -4.19401545E+00  3.57013351E+00  5.06876257E-02 -7.09755004E+00  9.27725645E-01
 -1.64757461E+00 -5.28606528E+00 -3.12267644E+00  9.50734149E-01  3.73842050E+00
  6.14320133E-01 -4.58922765E-01  7.36731270E+00  2.49280737E+00  1.17767777E+00
  7.73763730E+00 -1.56874464E+00 -4.24982318E-01 -1.32081878E+00 -7.31470714E-01
  1.37495887E+00 -3.89810250E-01 -1.24972422E+00 -1.29938381E+00 -4.21050568E+00
 -6.56184247E-01  1.56938336E+00  2.45988687E+00 -1.64441924E+00 -1.37997632E+00
 -5.33577622E+00  1.28589347E+00 -2.04067633E-01  6.11056981E+00  4.55572121E-01
  4.02494660E-02 -5.19622167E-01  1.04500099E+00  2.06035667E+00 -6.57459108E-01
 -2.23427903E+00  2.64570729E+00 -1.35859605E+00 -2.91641326E+00 -2.05198428E+00
 -8.51884220E-01  3.60805809E-01 -2.51820265E+00 -4.71038839E+00  1.14808362E-02
  3.48463536E+00  2.92712478E+00 -3.32448156E+00 -2.29335230E-01  3.04293638E+00
 -2.07150607E+00 -3.33154224E+00 -7.11809297E+00 -2.90657806E+00  4.01249720E-01
 -5.26704936E+00 -4.24105806E+00  2.51519253E+00 -5.06865960E+00  4.69237057E+00
 -1.13421336E+00  6.19300386E+00  4.01111004E+00  1.22836310E+00  9.01160191E+00
  2.93186883E+00  2.86340947E-01  9.07468706E+00 -1.79218241E+00  9.31232120E-01
  6.85251087E+00 -3.21695983E+00 -8.31235549E-01
Num ILSW                                   I              100
ILSW                                       I   N=         100
           0           1           0           1           2           0
           0           0           0           0           0          -1
           0           0           0           0           0           0
           0           0           0           0           1           0
           1           0           0           0           0           0
           0           0      100000           0          -1           0
           0           0           0           0           0           0
           0           0           0           1           1           0
           0           0           1           0           0           0
           0           0           4          40           0           0
           0           0           0           0           0           0
           0           0           0           0           0           0
           0           0           0           0           0           0
           0           0           0           0           0           0
           0           0           0           0           0           0
           0           0           0           0           0           0
           0           0           0           0
Num RLSW                                   I               40
RLSW                                       R   N=          40
  1.00000000E+00  1.00000000E+00  1.00000000E+00  1.00000000E+00  1.00000000E+00
  0.00000000E+00  0.00000000E+00  1.00000000E+00  0.00000000E+00  0.00000000E+00
  0.00000000E+00  0.00000000E+00  1.00000000E+00  0.00000000E+00  0.00000000E+00
  0.00000000E+00  0.00000000E+00  1.00000000E+00  0.00000000E+00  0.00000000E+00
  0.00000000E+00  0.00000000E+00  1.00000000E+00  0.00000000E+00  0.00000000E+00
  0.00000000E+00  0.00000000E+00  1.00000000E+00  0.00000000E+00  0.00000000E+00
  0.00000000E+00  0.00000000E+00  0.00000000E+00  0.00000000E+00  0.00000000E+00
  0.00000000E+00  0.00000000E+00  0.00000000E+00  1.00000000E+00  1.00000000E+00
MxBond                                     I                4
NBond                                      I   N=          26
           2           1           3           2           3           3
           4           4           4           4           3           3
           1           1           1           1           1           1
           1           1           1           1           1           1
           1           1
IBond                                      I   N=         104
          11          22           0           0          11           0
           0           0           9          20          21           0
          10          12           0           0          12          23
          24           0          12          25          26           0
           8           9          13          14           7          10
          15          16           3           7          11          17
           4           8          18          19           1           2
           9           0           4           5           6           0
           7           0           0           0           7           0
           0           0           8           0           0           0
           8           0           0           0           9           0
           0           0          10           0           0           0
          10           0           0           0           3           0
           0           0           3           0           0           0
           1           0           0           0           5           0
           0           0           5           0           0           0
           6           0           0           0           6           0
           0           0
RBond                                      R   N=         104
  1.50000000E+00  1.00000000E+00  0.00000000E+00  0.00000000E+00  2.00000000E+00
  0.00000000E+00  0.00000000E+00  0.00000000E+00  1.00000000E+00  1.00000000E+00
  1.00000000E+00  0.00000000E+00  1.00000000E+00  2.00000000E+00  0.00000000E+00
  0.00000000E+00  1.00000000E+00  1.00000000E+00  1.00000000E+00  0.00000000E+00
  1.00000000E+00  1.00000000E+00  1.00000000E+00  0.00000000E+00  1.00000000E+00