086_PropionicAcid Gaussian SP Calculation on node142.bme.utexas.edu     
Freq      RMP2-FC                                                     6-31G(d)            
Number of atoms                            I               11
Info1-9                                    I   N=           9
          22          21        1002           0           0         100
           6           2           1
Charge                                     I                0
Multiplicity                               I                1
Number of electrons                        I               40
Number of alpha electrons                  I               20
Number of beta electrons                   I               20
Number of basis functions                  I               87
Number of independent functions            I               87
Number of point charges in /Mol/           I                0
Number of translation vectors              I                0
Atomic numbers                             I   N=          11
           8           8           6           6           6           1
           1           1           1           1           1
Nuclear charges                            R   N=          11
  8.00000000E+00  8.00000000E+00  6.00000000E+00  6.00000000E+00  6.00000000E+00
  1.00000000E+00  1.00000000E+00  1.00000000E+00  1.00000000E+00  1.00000000E+00
  1.00000000E+00
Current cartesian coordinates              R   N=          33
 -3.17386006E+00 -1.26402472E+00 -1.24755931E-05 -1.13122637E+00  2.49713814E+00
  7.84174776E-06  1.30046878E+00 -1.40709700E+00  1.79162994E-05  3.70144603E+00
  1.75556419E-01 -1.40906281E-05 -1.05256651E+00  1.95031962E-01  3.71645850E-06
  1.20707923E+00 -2.65348600E+00 -1.65073997E+00  1.20709146E+00 -2.65343453E+00
  1.65081594E+00  5.36592295E+00 -1.04680206E+00 -3.79421584E-06  3.77746780E+00
  1.39036690E+00 -1.66554676E+00  3.77748074E+00  1.39041409E+00  1.66548328E+00
 -4.59044059E+00 -7.29140266E-02 -1.68815171E-05
Force Field                                I                0
Int Atom Types                             I   N=          11
           0           0           0           0           0           0
           0           0           0           0           0
MM charges                                 R   N=          11
  0.00000000E+00  0.00000000E+00  0.00000000E+00  0.00000000E+00  0.00000000E+00
  0.00000000E+00  0.00000000E+00  0.00000000E+00  0.00000000E+00  0.00000000E+00
  0.00000000E+00
Integer atomic weights                     I   N=          11
          16          16          12          12          12           1
           1           1           1           1           1
Real atomic weights                        R   N=          11
  1.59949146E+01  1.59949146E+01  1.20000000E+01  1.20000000E+01  1.20000000E+01
  1.00782504E+00  1.00782504E+00  1.00782504E+00  1.00782504E+00  1.00782504E+00
  1.00782504E+00
Atom fragment info                         I   N=          11
           0           0           0           0           0           0
           0           0           0           0           0
Atom residue num                           I   N=          11
           0           0           0           0           0           0
           0           0           0           0           0
Nuclear spins                              I   N=          11
           0           0           0           0           0           1
           1           1           1           1           1
Nuclear ZEff                               R   N=          11
 -5.60000000E+00 -5.60000000E+00 -3.60000000E+00 -3.60000000E+00 -3.60000000E+00
 -1.00000000E+00 -1.00000000E+00 -1.00000000E+00 -1.00000000E+00 -1.00000000E+00
 -1.00000000E+00
Nuclear QMom                               R   N=          11
  0.00000000E+00  0.00000000E+00  0.00000000E+00  0.00000000E+00  0.00000000E+00
  0.00000000E+00  0.00000000E+00  0.00000000E+00  0.00000000E+00  0.00000000E+00
  0.00000000E+00
Nuclear GFac                               R   N=          11
  0.00000000E+00  0.00000000E+00  0.00000000E+00  0.00000000E+00  0.00000000E+00
  2.79284600E+00  2.79284600E+00  2.79284600E+00  2.79284600E+00  2.79284600E+00
  2.79284600E+00
MicOpt                                     I   N=          11
          -1          -1          -1          -1          -1          -1
          -1          -1          -1          -1          -1
Number of contracted shells                I               32
Number of primitive shells                 I               79
Pure/Cartesian d shells                    I                1
Pure/Cartesian f shells                    I                0
Highest angular momentum                   I                2
Largest degree of contraction              I                6
Shell types                                I   N=          32
           0          -1          -1           2           0          -1
          -1           2           0          -1          -1           2
           0          -1          -1           2           0          -1
          -1           2           0           0           0           0
           0           0           0           0           0           0
           0           0
Number of primitives per shell             I   N=          32
           6           3           1           1           6           3
           1           1           6           3           1           1
           6           3           1           1           6           3
           1           1           3           1           3           1
           3           1           3           1           3           1
           3           1
Shell to atom map                          I   N=          32
           1           1           1           1           2           2
           2           2           3           3           3           3
           4           4           4           4           5           5
           5           5           6           6           7           7
           8           8           9           9          10          10
          11          11
Primitive exponents                        R   N=          79
  5.48467166E+03  8.25234946E+02  1.88046958E+02  5.29645000E+01  1.68975704E+01
  5.79963534E+00  1.55396162E+01  3.59993359E+00  1.01376175E+00  2.70005823E-01
  8.00000000E-01  5.48467166E+03  8.25234946E+02  1.88046958E+02  5.29645000E+01
  1.68975704E+01  5.79963534E+00  1.55396162E+01  3.59993359E+00  1.01376175E+00
  2.70005823E-01  8.00000000E-01  3.04752488E+03  4.57369518E+02  1.03948685E+02
  2.92101553E+01  9.28666296E+00  3.16392696E+00  7.86827235E+00  1.88128854E+00
  5.44249258E-01  1.68714478E-01  8.00000000E-01  3.04752488E+03  4.57369518E+02
  1.03948685E+02  2.92101553E+01  9.28666296E+00  3.16392696E+00  7.86827235E+00
  1.88128854E+00  5.44249258E-01  1.68714478E-01  8.00000000E-01  3.04752488E+03
  4.57369518E+02  1.03948685E+02  2.92101553E+01  9.28666296E+00  3.16392696E+00
  7.86827235E+00  1.88128854E+00  5.44249258E-01  1.68714478E-01  8.00000000E-01
  1.87311370E+01  2.82539436E+00  6.40121692E-01  1.61277759E-01  1.87311370E+01
  2.82539436E+00  6.40121692E-01  1.61277759E-01  1.87311370E+01  2.82539436E+00
  6.40121692E-01  1.61277759E-01  1.87311370E+01  2.82539436E+00  6.40121692E-01
  1.61277759E-01  1.87311370E+01  2.82539436E+00  6.40121692E-01  1.61277759E-01
  1.87311370E+01  2.82539436E+00  6.40121692E-01  1.61277759E-01
Contraction coefficients                   R   N=          79
  1.83107443E-03  1.39501722E-02  6.84450781E-02  2.32714336E-01  4.70192898E-01
  3.58520853E-01 -1.10777550E-01 -1.48026263E-01  1.13076702E+00  1.00000000E+00
  1.00000000E+00  1.83107443E-03  1.39501722E-02  6.84450781E-02  2.32714336E-01
  4.70192898E-01  3.58520853E-01 -1.10777550E-01 -1.48026263E-01  1.13076702E+00
  1.00000000E+00  1.00000000E+00  1.83473713E-03  1.40373228E-02  6.88426223E-02
  2.32184443E-01  4.67941348E-01  3.62311985E-01 -1.19332420E-01 -1.60854152E-01
  1.14345644E+00  1.00000000E+00  1.00000000E+00  1.83473713E-03  1.40373228E-02
  6.88426223E-02  2.32184443E-01  4.67941348E-01  3.62311985E-01 -1.19332420E-01
 -1.60854152E-01  1.14345644E+00  1.00000000E+00  1.00000000E+00  1.83473713E-03
  1.40373228E-02  6.88426223E-02  2.32184443E-01  4.67941348E-01  3.62311985E-01
 -1.19332420E-01 -1.60854152E-01  1.14345644E+00  1.00000000E+00  1.00000000E+00
  3.34946043E-02  2.34726953E-01  8.13757326E-01  1.00000000E+00  3.34946043E-02
  2.34726953E-01  8.13757326E-01  1.00000000E+00  3.34946043E-02  2.34726953E-01
  8.13757326E-01  1.00000000E+00  3.34946043E-02  2.34726953E-01  8.13757326E-01
  1.00000000E+00  3.34946043E-02  2.34726953E-01  8.13757326E-01  1.00000000E+00
  3.34946043E-02  2.34726953E-01  8.13757326E-01  1.00000000E+00
P(S=P) Contraction coefficients            R   N=          79
  0.00000000E+00  0.00000000E+00  0.00000000E+00  0.00000000E+00  0.00000000E+00
  0.00000000E+00  7.08742682E-02  3.39752839E-01  7.27158577E-01  1.00000000E+00
  0.00000000E+00  0.00000000E+00  0.00000000E+00  0.00000000E+00  0.00000000E+00
  0.00000000E+00  0.00000000E+00  7.08742682E-02  3.39752839E-01  7.27158577E-01
  1.00000000E+00  0.00000000E+00  0.00000000E+00  0.00000000E+00  0.00000000E+00
  0.00000000E+00  0.00000000E+00  0.00000000E+00  6.89990666E-02  3.16423961E-01
  7.44308291E-01  1.00000000E+00  0.00000000E+00  0.00000000E+00  0.00000000E+00
  0.00000000E+00  0.00000000E+00  0.00000000E+00  0.00000000E+00  6.89990666E-02
  3.16423961E-01  7.44308291E-01  1.00000000E+00  0.00000000E+00  0.00000000E+00
  0.00000000E+00  0.00000000E+00  0.00000000E+00  0.00000000E+00  0.00000000E+00
  6.89990666E-02  3.16423961E-01  7.44308291E-01  1.00000000E+00  0.00000000E+00
  0.00000000E+00  0.00000000E+00  0.00000000E+00  0.00000000E+00  0.00000000E+00
  0.00000000E+00  0.00000000E+00  0.00000000E+00  0.00000000E+00  0.00000000E+00
  0.00000000E+00  0.00000000E+00  0.00000000E+00  0.00000000E+00  0.00000000E+00
  0.00000000E+00  0.00000000E+00  0.00000000E+00  0.00000000E+00  0.00000000E+00
  0.00000000E+00  0.00000000E+00  0.00000000E+00  0.00000000E+00
Coordinates of each shell                  R   N=          96
 -3.17386006E+00 -1.26402472E+00 -1.24755931E-05 -3.17386006E+00 -1.26402472E+00
 -1.24755931E-05 -3.17386006E+00 -1.26402472E+00 -1.24755931E-05 -3.17386006E+00
 -1.26402472E+00 -1.24755931E-05 -1.13122637E+00  2.49713814E+00  7.84174776E-06
 -1.13122637E+00  2.49713814E+00  7.84174776E-06 -1.13122637E+00  2.49713814E+00
  7.84174776E-06 -1.13122637E+00  2.49713814E+00  7.84174776E-06  1.30046878E+00
 -1.40709700E+00  1.79162994E-05  1.30046878E+00 -1.40709700E+00  1.79162994E-05
  1.30046878E+00 -1.40709700E+00  1.79162994E-05  1.30046878E+00 -1.40709700E+00
  1.79162994E-05  3.70144603E+00  1.75556419E-01 -1.40906281E-05  3.70144603E+00
  1.75556419E-01 -1.40906281E-05  3.70144603E+00  1.75556419E-01 -1.40906281E-05
  3.70144603E+00  1.75556419E-01 -1.40906281E-05 -1.05256651E+00  1.95031962E-01
  3.71645850E-06 -1.05256651E+00  1.95031962E-01  3.71645850E-06 -1.05256651E+00
  1.95031962E-01  3.71645850E-06 -1.05256651E+00  1.95031962E-01  3.71645850E-06
  1.20707923E+00 -2.65348600E+00 -1.65073997E+00  1.20707923E+00 -2.65348600E+00
 -1.65073997E+00  1.20709146E+00 -2.65343453E+00  1.65081594E+00  1.20709146E+00
 -2.65343453E+00  1.65081594E+00  5.36592295E+00 -1.04680206E+00 -3.79421584E-06
  5.36592295E+00 -1.04680206E+00 -3.79421584E-06  3.77746780E+00  1.39036690E+00
 -1.66554676E+00  3.77746780E+00  1.39036690E+00 -1.66554676E+00  3.77748074E+00
  1.39041409E+00  1.66548328E+00  3.77748074E+00  1.39041409E+00  1.66548328E+00
 -4.59044059E+00 -7.29140266E-02 -1.68815171E-05 -4.59044059E+00 -7.29140266E-02
 -1.68815171E-05
Constraint Structure                       R   N=          33
 -3.17386006E+00 -1.26402472E+00 -1.24755931E-05 -1.13122637E+00  2.49713814E+00
  7.84174776E-06  1.30046878E+00 -1.40709700E+00  1.79162994E-05  3.70144603E+00
  1.75556419E-01 -1.40906281E-05 -1.05256651E+00  1.95031962E-01  3.71645850E-06
  1.20707923E+00 -2.65348600E+00 -1.65073997E+00  1.20709146E+00 -2.65343453E+00
  1.65081594E+00  5.36592295E+00 -1.04680206E+00 -3.79421584E-06  3.77746780E+00
  1.39036690E+00 -1.66554676E+00  3.77748074E+00  1.39041409E+00  1.66548328E+00
 -4.59044059E+00 -7.29140266E-02 -1.68815171E-05
Num ILSW                                   I              100
ILSW                                       I   N=         100
           0           1           0           0           2           0
           0           0           0           0           0          -1
           0           0           0           0           0           0
           0           0           0           0           1           0
           1           0           0           0           0           0
           0           0      100000           0          -1           0
           0           0           0           0           0           0
           0           0           0           1           1           0
           0           0           1           0           0           0
           0           0           4          40           0           0
           0           0           0           0           0           0
           0           0           0           0           0           0
           0           0           0           0           0           0
           0           0           0           0           0           0
           0           0           0           0           0           0
           0           0           0           0           0           0
           0           0           0           0
Num RLSW                                   I               40
RLSW                                       R   N=          40
  1.00000000E+00  1.00000000E+00  1.00000000E+00  1.00000000E+00  1.00000000E+00
  0.00000000E+00  0.00000000E+00  1.00000000E+00  0.00000000E+00  0.00000000E+00
  0.00000000E+00  0.00000000E+00  1.00000000E+00  0.00000000E+00  0.00000000E+00
  0.00000000E+00  0.00000000E+00  1.00000000E+00  0.00000000E+00  0.00000000E+00
  0.00000000E+00  0.00000000E+00  1.00000000E+00  0.00000000E+00  0.00000000E+00
  0.00000000E+00  0.00000000E+00  1.00000000E+00  0.00000000E+00  0.00000000E+00
  0.00000000E+00  0.00000000E+00  0.00000000E+00  0.00000000E+00  0.00000000E+00
  0.00000000E+00  0.00000000E+00  0.00000000E+00  1.00000000E+00  1.00000000E+00
MxBond                                     I                4
NBond                                      I   N=          11
           2           1           4           4           3           1
           1           1           1           1           1
IBond                                      I   N=          44
           5          11           0           0           5           0
           0           0           4           5           6           7
           3           8           9          10           1           2
           3           0           3           0           0           0
           3           0           0           0           4           0
           0           0           4           0           0           0
           4           0           0           0           1           0
           0           0
RBond                                      R   N=          44
  1.50000000E+00  1.00000000E+00  0.00000000E+00  0.00000000E+00  2.00000000E+00
  0.00000000E+00  0.00000000E+00  0.00000000E+00  1.00000000E+00  1.00000000E+00
  1.00000000E+00  1.00000000E+00  1.00000000E+00  1.00000000E+00  1.00000000E+00
  1.00000000E+00  1.50000000E+00  2.00000000E+00  1.00000000E+00  0.00000000E+00
  1.00000000E+00  0.00000000E+00  0.00000000E+00  0.00000000E+00  1.00000000E+00
  0.00000000E+00  0.00000000E+00  0.00000000E+00  1.00000000E+00  0.00000000E+00
  0.00000000E+00  0.00000000E+00  1.00000000E+00  0.00000000E+00  0.00000000E+00
  0.00000000E+00  1.00000000E+00  0.00000000E+00  0.00000000E+00  0.00000000E+00
  1.00000000E+00  0.00000000E+00  0.00000000E+00  0.00000000E+00
Virial Ratio                               R      2.002853596581981E+00
SCF Energy                                 R     -2.668425820624760E+02
MP2 Energy                                 R     -2.675853658843948E+02
Total Energy                               R     -2.675853658843948E+02
Post-SCF wavefunction norm                 R      1.566461334420285E+00
RMS Force                                  R      9.700895478744078E-08
RMS Density                                R      2.333610144060438E-09
External E-field                           R   N=          35
  0.00000000E+00  0.00000000E+00  0.00000000E+00  0.00000000E+00  0.00000000E+00
  0.00000000E+00  0.00000000E+00  0.00000000E+00  0.00000000E+00  0.00000000E+00
  0.00000000E+00  0.00000000E+00  0.00000000E+00  0.00000000E+00  0.00000000E+00
  0.00000000E+00  0.00000000E+00  0.00000000E+00  0.00000000E+00  0.00000000E+00
  0.00000000E+00  0.00000000E+00  0.00000000E+00  0.00000000E+00  0.00000000E+00
  0.00000000E+00  0.00000000E+00  0.00000000E+00  0.00000000E+00  0.00000000E+00
  0.00000000E+00  0.00000000E+00  0.00000000E+00  0.00000000E+00  0.00000000E+00
IOpCl                                      I                0
IROHF                                      I                0
Alpha Orbital Energies                     R   N=          87
 -2.06190519E+01 -2.05585627E+01 -1.13916229E+01 -1.12502934E+01 -1.12247310E+01
 -1.45638100E+00 -1.35321213E+00 -1.06637213E+00 -9.12687342E-01 -7.88503180E-01
 -6.99112472E-01 -6.84448383E-01 -6.56811948E-01 -5.92561175E-01 -5.89424561E-01
 -5.33296535E-01 -5.25088508E-01 -5.04139583E-01 -4.76230372E-01 -4.48445958E-01
  1.79784807E-01  2.25836484E-01  2.37380387E-01  2.93699631E-01  3.02749410E-01
  3.15254078E-01  3.48905904E-01  3.98408341E-01  4.22789028E-01  4.84354553E-01
  5.21093634E-01  7.26639537E-01  7.30948460E-01  7.68685396E-01  7.85366589E-01
  8.24754998E-01  9.01987954E-01  9.27086590E-01  9.45211595E-01  9.68342874E-01
  1.04759799E+00  1.06807718E+00  1.11379256E+00  1.11461029E+00  1.16747698E+00
  1.16888887E+00  1.19295782E+00  1.21811333E+00  1.22129939E+00  1.23509053E+00
  1.29850281E+00  1.35108879E+00  1.38248547E+00  1.54436694E+00  1.61888467E+00
  1.66457414E+00  1.76010248E+00  1.79064352E+00  1.82808542E+00  1.99711627E+00
  2.00763012E+00  2.06161076E+00  2.07727823E+00  2.10008449E+00  2.17448538E+00
  2.22150732E+00  2.26124305E+00  2.27458314E+00  2.32605617E+00  2.40218164E+00
  2.55528389E+00  2.61159219E+00  2.65071843E+00  2.70120394E+00  2.76656791E+00
  2.77832834E+00  2.88941323E+00  2.97998007E+00  3.06524476E+00  3.21169695E+00
  3.34259268E+00  3.45902029E+00  4.23469410E+00  4.47610935E+00  4.56939469E+00
  4.73058167E+00  4.92883807E+00
Alpha MO coefficients                      R   N=        7569
  9.94638686E-01  2.11719400E-02  6.58707637E-05  1.26724067E-03  4.69713524E-09
  4.05641391E-03  1.09616998E-04 -6.33535903E-04 -1.70348584E-09 -4.15894784E-03
 -4.08633864E-03 -3.94750886E-03  1.43529250E-05 -1.39724391E-09 -5.55895293E-10
 -2.85804266E-04  3.21051577E-05  2.97273733E-05  3.21681541E-05  4.12189527E-10
 -3.30252329E-04  7.17755500E-05  8.61448206E-05 -1.33959504E-10  1.75812388E-05
 -1.84580438E-05 -4.52689808E-06 -6.54852910E-05 -1.83422864E-11 -3.29239422E-10
 -7.81163173E-06  7.37253231E-06 -1.85498343E-05 -1.18212744E-05  7.82445812E-10
  5.73263818E-04  1.91223475E-04  2.30788633E-04 -6.50109712E-09 -7.23813975E-05
 -1.50279527E-06 -3.38946676E-05  1.47542582E-05 -1.00275597E-09 -6.36522764E-10
  6.97410673E-06  4.04122551E-05  1.23289534E-05  3.00028428E-06  2.35197278E-10
 -3.85238971E-04  1.50310962E-04  9.43151614E-05 -2.80559256E-09 -6.71642051E-06
  1.10445337E-05  8.46041404E-06 -4.69603916E-06  1.13358261E-10 -2.35921763E-10
 -2.55068562E-06  3.82332910E-04 -2.59841314E-04 -1.83433062E-04 -1.89027511E-09
 -1.38995129E-04 -2.27462284E-04  4.47782954E-04  1.42558654E-09 -6.07621339E-05
 -1.81291141E-05 -5.39501311E-05 -4.67163906E-05 -5.43425448E-12 -3.73102877E-10
  2.38430143E-05 -3.81476111E-05  2.38416579E-05 -3.81398136E-05  1.26440746E-05
  1.28423444E-05  1.66334173E-05 -2.22217107E-06  1.66339195E-05 -2.22196938E-06
  4.29467139E-04 -2.49039268E-04  2.82011167E-04 -6.16629495E-05 -1.21410921E-05
 -3.95076495E-05 -1.64747654E-10  2.64858612E-04  8.27065478E-05  7.99304961E-05
  7.14534799E-10  5.12392386E-05 -1.08522524E-04 -8.21077433E-05 -1.18371688E-05
  9.50621405E-10 -1.44102955E-10  9.94693142E-01  2.09912661E-02  9.68304056E-06
 -1.57122741E-03 -2.85864587E-09  4.45829443E-03 -1.47696823E-05  2.94476678E-05
 -4.32113706E-10 -3.90852149E-03 -3.58769368E-03 -4.12989665E-03 -1.11246638E-05
  1.21018667E-09  1.18543175E-09 -1.79871939E-06 -1.61489698E-05 -1.26457897E-05
 -2.15961421E-05 -2.26025904E-11 -5.69872066E-06  1.52288620E-04  2.01534740E-05
 -1.99195172E-09  6.26172178E-05 -5.08683053E-05 -1.62751427E-05  2.38314802E-05
  4.27021405E-10 -5.78520708E-11  6.18724018E-06  3.32361723E-05 -1.56341268E-05
  1.93956737E-05 -3.86931827E-10 -1.26165518E-04  1.47858727E-04 -1.54256317E-05
  9.68623478E-10  2.09954806E-06 -4.20037480E-06  7.60058461E-06 -1.42414723E-05
  3.25755272E-10  2.41188268E-10 -3.83660802E-06  4.91224848E-04 -1.58681660E-06
 -5.79158269E-05 -6.63925320E-11 -4.17776769E-04  2.07646358E-04 -4.35279238E-04
  8.91950432E-10 -6.81111601E-05 -8.17238380E-04 -3.32281108E-05  1.05026540E-05
 -1.59086320E-10 -1.81445098E-09  8.25479796E-06 -2.44324142E-05  8.25500660E-06
 -2.44305429E-05 -5.63301225E-06 -6.29809069E-05  2.92050875E-05 -2.06002633E-05
  2.92056557E-05 -2.06039644E-05 -2.12336605E-05 -1.17892926E-05 -7.64346935E-05
  6.76114895E-04  6.83737814E-05  1.63309378E-04  1.04182461E-09 -1.70036546E-03
 -7.32057706E-04 -1.66669505E-03 -8.67641246E-09 -3.49871221E-04 -1.40137098E-04
  5.44100717E-04 -5.09211567E-04 -7.40479971E-09 -4.79479393E-09 -2.68095548E-04
  6.88753091E-04 -3.65933518E-05 -2.99463190E-04 -1.18262130E-09 -3.51210775E-03
  7.19157862E-04  1.83944524E-03  9.65981287E-09  2.30075226E-04  5.57208742E-05
  4.33072643E-04 -1.86485878E-04 -1.56185128E-09 -2.25455053E-09  2.14726268E-03
  8.55259580E-05  6.86055982E-05 -6.70735204E-05  2.09296111E-09  3.99287441E-03
 -2.40362899E-03  1.05510211E-03 -1.89440589E-08 -4.17386876E-04 -2.70738757E-04
 -1.06761298E-04  1.20097148E-04 -8.99572201E-10  2.15417073E-09 -5.81607994E-05
 -2.22367194E-04  1.04669587E-04 -2.52154964E-05 -3.51181611E-10  5.86776542E-04
 -5.58282437E-04 -1.01488028E-04  9.67252842E-09  2.54134970E-05  1.30123186E-05
 -8.54929640E-05  2.18877710E-05 -1.32528430E-09 -1.94797047E-09  9.95901613E-01
  2.58874062E-02 -9.87940265E-04 -4.36112052E-05 -5.70254869E-09 -6.14787405E-03
 -3.44701905E-03  3.42573372E-03 -1.61227295E-08 -1.14534569E-03 -4.88671724E-04
 -2.27940445E-03  1.77517045E-04  8.96131036E-09  5.03710034E-09 -1.63324528E-04
  2.55233996E-04 -1.63324438E-04  2.55246719E-04 -1.14574432E-05  3.20470326E-04
 -7.23766951E-05  2.48421620E-05 -7.23755709E-05  2.48325714E-05  3.07168648E-04
  3.61009906E-05 -4.26899815E-05 -3.07408020E-04 -1.01524563E-04 -1.26671167E-05
 -1.08972101E-09  1.10342882E-03  4.98552660E-04  2.63259974E-04  6.34665389E-09
 -1.55735702E-05 -8.33006841E-05 -2.42970768E-04  1.60964176E-05  2.69623231E-09
  1.32564923E-10  7.81432289E-06 -2.88560057E-05  3.84430750E-06  2.26566586E-06
 -1.16326027E-09 -3.07599410E-04 -5.33912770E-04 -2.85807522E-05  8.77777332E-10
  3.23555765E-05  1.30856719E-04 -9.03935876E-05  9.09552382E-05  2.00954407E-09
  4.56969265E-10  9.95760708E-01  2.88716172E-02 -3.06147873E-04  1.63621781E-04
  2.16382562E-09 -1.82669932E-02  5.56107185E-04 -1.39350305E-03  5.73344400E-09
 -1.61874507E-03 -1.71367728E-03 -1.60002371E-03  1.65611335E-05  5.76682094E-10
  1.94561099E-09  1.17624321E-02  4.00624974E-04 -1.15042033E-04 -5.03747841E-06
  6.74100906E-10  3.99866970E-03 -1.49194469E-03 -1.13003570E-03  2.32262498E-08
 -3.62770918E-04 -2.67537237E-04 -9.31215652E-05 -1.84147629E-04  3.47085393E-09
  3.53205208E-09 -2.49084946E-03  2.36909881E-05  6.79002225E-05 -1.95661801E-05
  3.94406532E-10  4.47315078E-03  3.06065016E-03 -7.39415081E-04  1.43891499E-08
 -4.98319917E-04 -4.16786083E-04 -1.52388628E-04  2.11053409E-04 -2.01226586E-09
  1.57173143E-09  2.61525743E-04  2.67424961E-03  2.61526647E-04  2.67425848E-03
 -1.40948607E-04 -2.02671014E-04 -1.50333304E-04  9.07948424E-05 -1.50334249E-04
  9.07967891E-05 -3.17010872E-07  3.06735565E-04 -5.29223517E-05 -2.28459197E-04
 -3.82812304E-05 -3.03808835E-06 -1.09601439E-09  1.25821388E-03  4.58311413E-04
  2.06891331E-04  5.62012098E-09 -9.86704792E-05 -1.44730908E-04 -1.66911143E-04
  4.36666624E-05  9.54319302E-10 -1.44482199E-10 -4.48457294E-05 -1.86073503E-04
 -5.83619447E-05  3.20876611E-05  1.58369815E-09  7.69021266E-04  3.76489762E-05
 -3.22602077E-04 -5.43315853E-09 -1.28092846E-04 -6.98113584E-05 -2.06505326E-04
 -9.97985321E-06 -1.21048019E-09  5.29739753E-10 -1.20535449E-02 -2.42390264E-04
 -3.87017035E-06 -6.20672759E-06  1.33157234E-09  3.91759697E-03  1.50946010E-03
  9.68606894E-04 -2.97930737E-08 -3.82661830E-04 -2.29550611E-04 -6.52890294E-05
 -2.03148459E-04  4.47053911E-09  3.32119989E-09  9.95677468E-01  2.84913634E-02
 -2.16237600E-04 -1.24993777E-04  1.17777514E-09 -1.52274015E-02  9.57462235E-04
  2.76101963E-04 -3.63060315E-09 -1.84222009E-03 -1.80932236E-03 -1.81002796E-03
 -4.06249584E-05  4.33569818E-10  2.13382881E-10  2.35904196E-05 -1.78997626E-04
 -4.80968421E-05 -4.13594706E-05  3.56031492E-10 -8.59550858E-04  6.87419328E-04
  2.21115064E-04  5.97045325E-09 -2.24115696E-05 -6.91330186E-05 -6.45544947E-05
 -4.36338515E-05 -1.64842089E-09 -1.63687040E-09 -1.52432173E-04  3.65704967E-05
 -1.52431531E-04  3.65813007E-05  1.09378995E-04  2.36833736E-03  1.87796638E-04
  2.57643908E-03  1.87797320E-04  2.57643451E-03 -1.63133369E-05  1.18004139E-04
 -1.60117384E-01  3.60367069E-01  3.03850462E-02  8.21256564E-02  4.06683672E-07
  3.37553716E-01  1.53320985E-02  4.98458745E-02  2.33829970E-07  1.67809722E-02
  1.47034951E-02 -1.54641287E-03  5.28934405E-04  1.20456715E-07  6.09781334E-08
 -1.05060580E-01  2.31489526E-01 -6.95788696E-03 -8.62345648E-02 -2.07031310E-07
  2.04795867E-01 -9.38104966E-03 -3.43300850E-02 -1.29660404E-07 -1.98787152E-03
  1.21938936E-02 -8.56427697E-04  2.24457227E-03 -5.10269338E-09  4.32405580E-08
 -1.62771827E-02  3.07379574E-02 -2.17866975E-02  1.27603622E-02 -1.32299430E-07
  6.71120146E-03  1.30359030E-03  3.21192460E-04 -7.72524147E-08  5.22998494E-03
  2.00838859E-03 -8.92395173E-05 -4.32264238E-03  3.95915051E-08 -2.66959097E-08
 -2.89626107E-03  7.19243770E-03 -5.05393950E-03 -6.15166183E-04  4.02752328E-08
 -2.55955909E-03  4.09135162E-03 -1.53658507E-03 -2.41805978E-10  1.00112965E-03
  5.85492011E-04  2.87027578E-04  2.73594818E-04 -1.11074364E-08 -8.01484103E-09
 -1.12663348E-01  2.17481752E-01 -7.94116380E-02  3.80537836E-02 -3.97853574E-07
  4.79932087E-02  2.19668354E-02 -9.75458352E-03  1.25161298E-07  2.95839947E-03
  1.61709922E-02 -1.82621649E-02  1.28819703E-02  1.77051399E-07  1.55411859E-07
  6.08863299E-03  1.09088001E-03  6.08858231E-03  1.09095591E-03  5.33635880E-04
 -2.03458175E-03  1.96520966E-03  1.22623762E-03  1.96522836E-03  1.22624337E-03
  8.55214689E-02 -4.08740095E-03  1.29786687E-01 -2.90838174E-01  3.05334282E-03
 -3.68405103E-02 -1.00542408E-07 -3.02192638E-01 -9.24544846E-04 -2.10762092E-02
 -8.22379899E-08 -1.07220741E-02 -5.21546599E-03  1.27660755E-03  7.27307763E-03
 -5.90602550E-08  1.55168609E-08 -1.68104628E-01  3.65885390E-01  1.28966542E-02
 -1.03444856E-01 -1.23918725E-07  3.63395303E-01  6.15870013E-03 -4.62941134E-02
 -5.04577144E-08 -2.92562458E-03  1.28853798E-02 -3.88883985E-03 -2.28179357E-03
  2.53591706E-09  2.46562957E-08 -5.40435815E-03  9.75565813E-03 -6.28624341E-04
  1.34752781E-02  5.11262335E-10  6.27000285E-04  1.58977610E-02  7.44601208E-03
  2.02469083E-07 -5.52092377E-04  2.91633679E-03 -7.36741432E-04 -2.25148770E-03
 -2.56745838E-08 -3.94319598E-08 -4.08584077E-03  7.39233161E-03 -4.33008496E-03
  1.67134329E-04  5.23878500E-08 -5.42442664E-03 -2.65049295E-03  6.11086294E-03
 -2.05590096E-07  1.18979283E-03  2.85911299E-05  1.17835828E-04 -1.76165608E-04
 -2.29279191E-09  5.41949509E-09 -4.97706589E-02  9.73575529E-02  6.55481715E-02
  2.08394975E-01  8.14406435E-07  3.14149090E-02 -3.03139739E-03 -3.14429860E-02
 -7.51306868E-08 -2.59566045E-02  2.60212259E-02 -7.81117817E-03 -1.59201772E-02
 -1.59769794E-07 -1.65752672E-08  4.57038019E-04 -1.53835707E-03  4.57115948E-04
 -1.53844893E-03  1.47865029E-03  3.40397139E-03  2.16923586E-03  1.36308250E-03
  2.16928956E-03  1.36320432E-03 -7.24555235E-02  5.46658240E-03  2.09436612E-02
 -4.65162895E-02  6.33220133E-02 -2.19984738E-02  3.34547716E-07 -6.44330121E-02
  2.73774611E-02 -1.16139061E-02  9.88881162E-08  7.85986890E-04 -3.61903346E-03
  7.24207421E-04  6.04754193E-03  1.31165811E-08  2.04047641E-08  3.57868673E-02
 -7.98349495E-02  3.01615274E-02 -4.06660802E-03  1.49827481E-07 -8.77379733E-02
  1.27234072E-02 -2.22473239E-03  3.73644071E-08 -3.13087286E-04 -8.27697159E-04
  8.42142546E-04 -3.21029873E-03 -1.34203328E-08 -1.86808941E-08 -1.57817269E-01
  2.94075586E-01  5.85538286E-03  3.57685599E-02 -5.32637749E-07  2.68028605E-01
  2.76866638E-03  7.79487055E-03 -1.49402359E-07  8.42198758E-03  6.16541325E-03
  4.73336742E-03  2.83809379E-03 -5.95671284E-08 -4.73624929E-08 -1.14476146E-01
  2.13095853E-01 -5.63918835E-02 -3.37249293E-02  6.88074355E-07  1.71112469E-01
 -1.60898052E-03 -4.66996198E-03  5.15305551E-08  9.94610787E-03  5.26073583E-03
  2.53174673E-03  5.31448521E-03 -1.04919617E-07 -6.90609202E-08 -4.93541880E-02
  1.07043840E-01  1.10166775E-01 -1.04068976E-01  4.67304175E-07  6.10332057E-02
  1.43374241E-02 -2.06077549E-02  9.59273680E-08  9.75622403E-03 -1.75740506E-03