025_CH2F2 Gaussian SP Calculation on g2-node38.bme.utexas.edu           
Freq      RMP2-FC                                                     6-31G(d)            
Number of atoms                            I                5
Info1-9                                    I   N=           9
          16          15        1002           0           0         100
           6           2           1
Charge                                     I                0
Multiplicity                               I                1
Number of electrons                        I               26
Number of alpha electrons                  I               13
Number of beta electrons                   I               13
Number of basis functions                  I               49
Number of independent functions            I               49
Number of point charges in /Mol/           I                0
Number of translation vectors              I                0
Atomic numbers                             I   N=           5
           9           9           6           1           1
Nuclear charges                            R   N=           5
  9.00000000E+00  9.00000000E+00  6.00000000E+00  1.00000000E+00  1.00000000E+00
Current cartesian coordinates              R   N=          15
 -2.09913879E+00 -5.49794288E-01 -5.43483577E-06  2.09913775E+00 -5.49795071E-01
 -5.43401133E-06  1.46251216E-06  9.51864276E-01  2.21037229E-07  3.00109253E-07
  2.09248448E+00  1.71745512E+00  3.09226474E-07  2.09263410E+00 -1.71735863E+00
Force Field                                I                0
Int Atom Types                             I   N=           5
           0           0           0           0           0
MM charges                                 R   N=           5
  0.00000000E+00  0.00000000E+00  0.00000000E+00  0.00000000E+00  0.00000000E+00
Integer atomic weights                     I   N=           5
          19          19          12           1           1
Real atomic weights                        R   N=           5
  1.89984032E+01  1.89984032E+01  1.20000000E+01  1.00782504E+00  1.00782504E+00
Atom fragment info                         I   N=           5
           0           0           0           0           0
Atom residue num                           I   N=           5
           0           0           0           0           0
Nuclear spins                              I   N=           5
           1           1           0           1           1
Nuclear ZEff                               R   N=           5
 -6.75000000E+00 -6.75000000E+00 -3.60000000E+00 -1.00000000E+00 -1.00000000E+00
Nuclear QMom                               R   N=           5
  0.00000000E+00  0.00000000E+00  0.00000000E+00  0.00000000E+00  0.00000000E+00
Nuclear GFac                               R   N=           5
  2.62886700E+00  2.62886700E+00  0.00000000E+00  2.79284600E+00  2.79284600E+00
MicOpt                                     I   N=           5
          -1          -1          -1          -1          -1
Number of contracted shells                I               16
Number of primitive shells                 I               41
Pure/Cartesian d shells                    I                1
Pure/Cartesian f shells                    I                0
Highest angular momentum                   I                2
Largest degree of contraction              I                6
Shell types                                I   N=          16
           0          -1          -1           2           0          -1
          -1           2           0          -1          -1           2
           0           0           0           0
Number of primitives per shell             I   N=          16
           6           3           1           1           6           3
           1           1           6           3           1           1
           3           1           3           1
Shell to atom map                          I   N=          16
           1           1           1           1           2           2
           2           2           3           3           3           3
           4           4           5           5
Primitive exponents                        R   N=          41
  7.00171309E+03  1.05136609E+03  2.39285690E+02  6.73974453E+01  2.15199573E+01
  7.40310130E+00  2.08479528E+01  4.80830834E+00  1.34406986E+00  3.58151393E-01
  8.00000000E-01  7.00171309E+03  1.05136609E+03  2.39285690E+02  6.73974453E+01
  2.15199573E+01  7.40310130E+00  2.08479528E+01  4.80830834E+00  1.34406986E+00
  3.58151393E-01  8.00000000E-01  3.04752488E+03  4.57369518E+02  1.03948685E+02
  2.92101553E+01  9.28666296E+00  3.16392696E+00  7.86827235E+00  1.88128854E+00
  5.44249258E-01  1.68714478E-01  8.00000000E-01  1.87311370E+01  2.82539436E+00
  6.40121692E-01  1.61277759E-01  1.87311370E+01  2.82539436E+00  6.40121692E-01
  1.61277759E-01
Contraction coefficients                   R   N=          41
  1.81961690E-03  1.39160796E-02  6.84053245E-02  2.33185760E-01  4.71267439E-01
  3.56618546E-01 -1.08506975E-01 -1.46451658E-01  1.12868858E+00  1.00000000E+00
  1.00000000E+00  1.81961690E-03  1.39160796E-02  6.84053245E-02  2.33185760E-01
  4.71267439E-01  3.56618546E-01 -1.08506975E-01 -1.46451658E-01  1.12868858E+00
  1.00000000E+00  1.00000000E+00  1.83473713E-03  1.40373228E-02  6.88426223E-02
  2.32184443E-01  4.67941348E-01  3.62311985E-01 -1.19332420E-01 -1.60854152E-01
  1.14345644E+00  1.00000000E+00  1.00000000E+00  3.34946043E-02  2.34726953E-01
  8.13757326E-01  1.00000000E+00  3.34946043E-02  2.34726953E-01  8.13757326E-01
  1.00000000E+00
P(S=P) Contraction coefficients            R   N=          41
  0.00000000E+00  0.00000000E+00  0.00000000E+00  0.00000000E+00  0.00000000E+00
  0.00000000E+00  7.16287242E-02  3.45912103E-01  7.22469956E-01  1.00000000E+00
  0.00000000E+00  0.00000000E+00  0.00000000E+00  0.00000000E+00  0.00000000E+00
  0.00000000E+00  0.00000000E+00  7.16287242E-02  3.45912103E-01  7.22469956E-01
  1.00000000E+00  0.00000000E+00  0.00000000E+00  0.00000000E+00  0.00000000E+00
  0.00000000E+00  0.00000000E+00  0.00000000E+00  6.89990666E-02  3.16423961E-01
  7.44308291E-01  1.00000000E+00  0.00000000E+00  0.00000000E+00  0.00000000E+00
  0.00000000E+00  0.00000000E+00  0.00000000E+00  0.00000000E+00  0.00000000E+00
  0.00000000E+00
Coordinates of each shell                  R   N=          48
 -2.09913879E+00 -5.49794288E-01 -5.43483577E-06 -2.09913879E+00 -5.49794288E-01
 -5.43483577E-06 -2.09913879E+00 -5.49794288E-01 -5.43483577E-06 -2.09913879E+00
 -5.49794288E-01 -5.43483577E-06  2.09913775E+00 -5.49795071E-01 -5.43401133E-06
  2.09913775E+00 -5.49795071E-01 -5.43401133E-06  2.09913775E+00 -5.49795071E-01
 -5.43401133E-06  2.09913775E+00 -5.49795071E-01 -5.43401133E-06  1.46251216E-06
  9.51864276E-01  2.21037229E-07  1.46251216E-06  9.51864276E-01  2.21037229E-07
  1.46251216E-06  9.51864276E-01  2.21037229E-07  1.46251216E-06  9.51864276E-01
  2.21037229E-07  3.00109253E-07  2.09248448E+00  1.71745512E+00  3.00109253E-07
  2.09248448E+00  1.71745512E+00  3.09226474E-07  2.09263410E+00 -1.71735863E+00
  3.09226474E-07  2.09263410E+00 -1.71735863E+00
Constraint Structure                       R   N=          15
 -2.09913879E+00 -5.49794288E-01 -5.43483577E-06  2.09913775E+00 -5.49795071E-01
 -5.43401133E-06  1.46251216E-06  9.51864276E-01  2.21037229E-07  3.00109253E-07
  2.09248448E+00  1.71745512E+00  3.09226474E-07  2.09263410E+00 -1.71735863E+00
Num ILSW                                   I              100
ILSW                                       I   N=         100
           0           1           0           0           2           0
           0           0           0           0           0          -1
           0           0           0           0           0           0
           0           0           0           0           1           0
           1           0           0           0           0           0
           0           0      100000           0          -1           0
           0           0           0           0           0           0
           0           0           0           1           1           0
           0           0           1           0           0           0
           0           0           4          40           0           0
           0           0           0           0           0           0
           0           0           0           0           0           0
           0           0           0           0           0           0
           0           0           0           0           0           0
           0           0           0           0           0           0
           0           0           0           0           0           0
           0           0           0           0
Num RLSW                                   I               40
RLSW                                       R   N=          40
  1.00000000E+00  1.00000000E+00  1.00000000E+00  1.00000000E+00  1.00000000E+00
  0.00000000E+00  0.00000000E+00  1.00000000E+00  0.00000000E+00  0.00000000E+00
  0.00000000E+00  0.00000000E+00  1.00000000E+00  0.00000000E+00  0.00000000E+00
  0.00000000E+00  0.00000000E+00  1.00000000E+00  0.00000000E+00  0.00000000E+00
  0.00000000E+00  0.00000000E+00  1.00000000E+00  0.00000000E+00  0.00000000E+00
  0.00000000E+00  0.00000000E+00  1.00000000E+00  0.00000000E+00  0.00000000E+00
  0.00000000E+00  0.00000000E+00  0.00000000E+00  0.00000000E+00  0.00000000E+00
  0.00000000E+00  0.00000000E+00  0.00000000E+00  1.00000000E+00  1.00000000E+00
MxBond                                     I                4
NBond                                      I   N=           5
           1           1           4           1           1
IBond                                      I   N=          20
           3           0           0           0           3           0
           0           0           1           2           4           5
           3           0           0           0           3           0
           0           0
RBond                                      R   N=          20
  1.00000000E+00  0.00000000E+00  0.00000000E+00  0.00000000E+00  1.00000000E+00
  0.00000000E+00  0.00000000E+00  0.00000000E+00  1.00000000E+00  1.00000000E+00
  1.00000000E+00  1.00000000E+00  1.00000000E+00  0.00000000E+00  0.00000000E+00
  0.00000000E+00  1.00000000E+00  0.00000000E+00  0.00000000E+00  0.00000000E+00
Virial Ratio                               R      2.002323664838809E+00
SCF Energy                                 R     -2.378946702236360E+02
MP2 Energy                                 R     -2.383640482293134E+02
Total Energy                               R     -2.383640482293134E+02
Post-SCF wavefunction norm                 R      1.493105784716190E+00
RMS Force                                  R      3.030422415559518E-06
RMS Density                                R      9.853820697857595E-10
External E-field                           R   N=          35
  0.00000000E+00  0.00000000E+00  0.00000000E+00  0.00000000E+00  0.00000000E+00
  0.00000000E+00  0.00000000E+00  0.00000000E+00  0.00000000E+00  0.00000000E+00
  0.00000000E+00  0.00000000E+00  0.00000000E+00  0.00000000E+00  0.00000000E+00
  0.00000000E+00  0.00000000E+00  0.00000000E+00  0.00000000E+00  0.00000000E+00
  0.00000000E+00  0.00000000E+00  0.00000000E+00  0.00000000E+00  0.00000000E+00
  0.00000000E+00  0.00000000E+00  0.00000000E+00  0.00000000E+00  0.00000000E+00
  0.00000000E+00  0.00000000E+00  0.00000000E+00  0.00000000E+00  0.00000000E+00
IOpCl                                      I                0
IROHF                                      I                0
Alpha Orbital Energies                     R   N=          49
 -2.63069873E+01 -2.63069730E+01 -1.14069881E+01 -1.64565938E+00 -1.58774859E+00
 -9.63443747E-01 -7.66710984E-01 -7.56756893E-01 -7.40379106E-01 -6.53790687E-01
 -6.19021147E-01 -6.11083238E-01 -5.30645367E-01  2.48803519E-01  3.07303330E-01
  3.07938915E-01  3.66071361E-01  7.16493308E-01  7.42919079E-01  8.01419354E-01
  9.59716259E-01  1.05571520E+00  1.11435859E+00  1.34605729E+00  1.41543888E+00
  1.46090679E+00  1.47825988E+00  1.66567960E+00  1.70084486E+00  1.70767267E+00
  1.72168087E+00  1.94417289E+00  2.05002509E+00  2.05883136E+00  2.09718577E+00
  2.15047280E+00  2.27128997E+00  2.33147191E+00  2.35954112E+00  2.49081250E+00
  2.49574386E+00  2.75902557E+00  2.76067346E+00  2.96845248E+00  3.35549462E+00
  3.36379591E+00  4.39961449E+00  4.63364018E+00  4.72560752E+00
Alpha MO coefficients                      R   N=        2401
 -6.90129222E-01 -1.22675911E-02 -5.11141370E-04 -3.67313001E-04  2.96983180E-09
 -5.83590880E-03  2.69370595E-04  2.22515886E-04 -8.22721867E-10  3.36022130E-03
  3.30267590E-03  3.18934851E-03  1.82277842E-04 -4.63911502E-10 -3.96457946E-10
  7.15947273E-01  1.27313259E-02 -5.30104711E-04  3.81478778E-04 -3.04802708E-09
  6.04072600E-03  2.85387826E-04 -2.32734663E-04  7.33874724E-10 -3.48774914E-03
 -3.42388052E-03 -3.30554442E-03  1.89635998E-04 -4.52424703E-10  3.93600147E-10
 -3.74882315E-07  6.02353974E-06  6.06826646E-04 -9.76287201E-06 -1.00671157E-10
  2.06485443E-06 -1.85856139E-04  1.36678390E-06  3.47020661E-10  5.69941470E-06
  2.85772167E-06 -1.53445437E-06 -2.48376513E-04 -2.29084118E-09  6.46303590E-11
 -4.03574998E-07 -2.28983156E-06 -4.03429634E-07 -2.28945581E-06  7.15963321E-01
  1.28575098E-02  5.25934697E-04  3.92583737E-04 -2.19105658E-09  5.68642208E-03
 -4.41248860E-04 -2.82423632E-04 -2.40813707E-09 -3.53559219E-03 -3.36227390E-03
 -3.22375919E-03 -2.03782730E-04 -3.04779140E-10 -6.85692655E-11  6.90145870E-01
  1.23984966E-02 -5.06816689E-04  3.78836417E-04 -2.08022777E-09  5.46835260E-03
  4.31063091E-04 -2.74065461E-04 -2.43688657E-09 -3.40985433E-03 -3.23876639E-03
 -3.10450468E-03  1.96954034E-04  3.21566918E-10 -8.32116492E-11 -2.04199903E-05
  3.27891857E-04 -1.11415439E-05 -5.31660457E-04 -5.49571662E-09  1.12410731E-04
  3.41167049E-06  7.44025332E-05  1.89252310E-08  3.10514661E-04  1.55689607E-04
 -8.35427614E-05  4.56158386E-06  4.22089404E-11  3.53103267E-09 -2.19702293E-05
 -1.24690596E-04 -2.19622842E-05 -1.24670106E-04 -1.25251958E-04  2.23647791E-04
  2.69192909E-04  2.02262874E-04  1.87535306E-09  2.84498862E-04 -1.02453084E-03
 -6.44823164E-04 -1.09202175E-08 -6.50727397E-04 -1.66991893E-04  1.23492677E-04
 -6.24251408E-04 -4.55723516E-09 -1.55068948E-09 -1.25251979E-04  2.23652819E-04
 -2.69192931E-04  2.02263482E-04  1.87485791E-09  2.84477965E-04  1.02453867E-03
 -6.44830797E-04 -1.09172109E-08 -6.50724889E-04 -1.66990433E-04  1.23495930E-04
  6.24253389E-04  4.55621933E-09 -1.54928340E-09  9.95960116E-01  2.56264976E-02
  6.14261503E-09 -1.74958385E-03 -3.55104102E-08 -8.41361466E-03  5.39974953E-09
 -8.32854562E-04 -3.19780845E-08 -7.55478664E-04 -1.08064938E-03 -1.45068114E-03
 -5.05412268E-09 -1.70279264E-12 -1.29391661E-08  1.03056185E-05  2.14734932E-03
  1.02912716E-05  2.14734812E-03 -1.51825324E-01  3.52398270E-01  4.79615120E-02
  2.83214924E-02  1.92970727E-07  2.99425992E-01  3.16134556E-02  1.98305519E-02
  2.47065731E-07  2.45601561E-02  1.86336615E-02  1.39585824E-02  8.47773331E-03
  2.54507430E-08  1.37953918E-08 -1.51827989E-01  3.52404598E-01 -4.79621162E-02
  2.83221139E-02  1.92936463E-07  2.99430963E-01 -3.16137058E-02  1.98308463E-02
  2.47049294E-07  2.45605310E-02  1.86340359E-02  1.39588866E-02 -8.47781682E-03
 -2.54481784E-08  1.37931538E-08 -7.46677740E-02  1.36359428E-01  1.09772223E-06
 -6.87687062E-02  3.12052848E-08  2.82229042E-02  6.52997681E-08  3.10795230E-03
 -1.10491210E-06  1.36808659E-02  2.81347773E-03 -1.02771539E-02 -3.04964568E-07
 -1.78430620E-12  9.55474235E-08  2.03667565E-02  3.09825056E-03  2.03657637E-02
  3.09676739E-03 -1.61334672E-01  3.78309289E-01  2.64771654E-02  2.71045788E-02
  1.87717955E-07  3.18009032E-01  1.60545770E-02  1.60371685E-02  3.59999048E-08
  2.21061802E-02  2.00442956E-02  1.64796562E-02  5.09855105E-03 -1.67565236E-08
 -7.47082169E-09  1.61332096E-01 -3.78303366E-01  2.64764646E-02 -2.71042651E-02
 -1.87683680E-07 -3.18003729E-01  1.60540298E-02 -1.60368765E-02 -3.59743126E-08
 -2.21057742E-02 -2.00440180E-02 -1.64794397E-02  5.09841790E-03 -1.67596843E-08
  7.47358202E-09 -5.08610597E-07  9.45630877E-07 -1.13677093E-01 -3.64378437E-07
  2.65127973E-12  2.42877072E-07 -8.21312986E-03  6.42862806E-09 -2.62069492E-11
  1.01736671E-07 -9.62311320E-10 -4.70082315E-08  2.75339891E-02  1.78408613E-07
  1.57178865E-11  1.69810261E-07  3.75753176E-08  1.69720181E-07  3.75261261E-08
  6.02278333E-02 -1.33624891E-01  1.65277020E-01  1.43858203E-01  2.51350380E-06
 -1.95953475E-01  1.05590135E-01  8.53566505E-02  1.71274605E-06  9.99052109E-03
  3.87856698E-03 -4.80567652E-03  1.44834997E-02  1.30519582E-07  1.05708322E-07
  6.02279848E-02 -1.33625226E-01 -1.65277632E-01  1.43859059E-01  2.51330775E-06
 -1.95954059E-01 -1.05590447E-01  8.53571182E-02  1.71261714E-06  9.99049929E-03
  3.87860629E-03 -4.80569566E-03 -1.44835357E-02 -1.30515780E-07  1.05698100E-07
 -1.70086306E-01  3.63484785E-01  2.07245456E-07  6.92998621E-02  4.08109057E-06
  2.51511466E-01 -2.82382705E-09  5.76971370E-02  3.47508251E-08 -4.70931644E-03
  2.10147865E-03  1.60593771E-02 -7.25087271E-08 -9.09675924E-11 -8.99484636E-07
  1.42384079E-01  3.66419547E-02  1.42384023E-01  3.66404929E-02  1.71337232E-06
 -3.49609228E-06  3.01364684E-05 -1.41567291E-05  3.32306937E-01 -7.04240021E-06
  2.01905375E-05 -9.49768311E-06  2.16132303E-01  1.86880232E-06 -9.29454534E-07
 -8.84469208E-08  1.93767525E-07  1.35640500E-02  9.68246048E-03  1.71287982E-06
 -3.49508583E-06 -3.01342963E-05 -1.41610656E-05  3.32309716E-01 -7.04028568E-06
 -2.01891317E-05 -9.50051964E-06  2.16134185E-01  1.86872070E-06 -9.29636569E-07
 -8.84159670E-08 -1.93567053E-07 -1.35641541E-02  9.68256847E-03  2.63821659E-06
 -4.86587879E-06 -2.16543732E-09 -3.29227705E-05  3.29487477E-01 -1.20476177E-05
 -5.50512864E-10 -1.22072633E-05  1.44474515E-01  3.45461379E-07  2.41313519E-07
 -3.52335249E-07  1.36265727E-10  8.79233777E-08  9.95297147E-03  1.31889003E-01
  6.83043929E-02 -1.31904434E-01 -6.83115132E-02 -1.97987817E-02  4.25117416E-02
 -3.45000948E-01  1.31035384E-01  3.43464138E-05  7.39853226E-02 -2.36460257E-01
  9.01706614E-02  2.26845198E-05 -2.10464803E-02  9.69496976E-03  2.68577472E-03
 -3.65009042E-03  1.42522961E-06  1.01067868E-06 -1.97992727E-02  4.25127106E-02
  3.45005872E-01  1.31031902E-01  3.43465738E-05  7.39875092E-02  2.36463469E-01
  9.01684117E-02  2.26846219E-05 -2.10467176E-02  9.69487274E-03  2.68581383E-03
  3.65034433E-03 -1.42524420E-06  1.01067831E-06 -1.09377315E-02  1.54279563E-02
 -2.03645653E-06  2.93231547E-01  3.06671546E-05  8.89061940E-02 -2.83461251E-07
  1.00381892E-01  1.40815310E-05 -5.57510732E-03 -1.83429587E-02  2.27474471E-02
  3.03300880E-07 -6.40691409E-11 -6.79823300E-07  9.23404162E-02  4.82286248E-02
  9.23246550E-02  4.82203689E-02 -3.45866583E-02  6.72022578E-02 -2.07774748E-01
 -3.43282577E-01 -4.16188242E-06  1.55158788E-01 -1.36070689E-01 -2.27967931E-01
 -2.72953687E-06 -9.82435475E-03 -1.52415183E-02  2.05044671E-03 -1.65630470E-02
 -5.38178342E-08 -6.59723061E-08  3.45863495E-02 -6.72016374E-02 -2.07769617E-01
  3.43286548E-01  4.16704000E-06 -1.55157596E-01 -1.36067071E-01  2.27970669E-01
  2.73296255E-06  9.82396496E-03  1.52417301E-02 -2.05045352E-03 -1.65630423E-02
 -5.40239031E-08  6.61141426E-08  1.38340455E-07 -3.17843626E-07  3.02212697E-01
  9.59362717E-07  2.09880638E-09 -2.81320773E-07  7.42034264E-02  5.31865758E-07
  1.07408624E-09  1.05294675E-07 -1.68521483E-07 -5.14475209E-10 -3.40991464E-02
 -1.34123915E-07 -8.26280996E-12  3.90045809E-08  2.53578939E-08  3.78259929E-08
  2.47523340E-08 -2.10044826E-07  5.22476677E-07  1.47764392E-06 -5.16013185E-06
  4.70801295E-01  9.48254081E-07  9.48040196E-07 -3.72823729E-06  3.42817105E-01
  5.23184922E-08 -2.10451393E-07  5.38880690E-08 -1.88158951E-07  1.35771942E-02
  1.16558600E-02  2.10025222E-07 -5.22471522E-07  1.47770967E-06  5.16007261E-06
 -4.70799804E-01 -9.48069799E-07  9.48079166E-07  3.72823372E-06 -3.42816131E-01
 -5.23487807E-08  2.10422653E-07 -5.38969089E-08 -1.88145560E-07  1.35771362E-02
 -1.16558470E-02  7.66598508E-11 -8.08928794E-11  1.75123683E-06 -1.15955904E-10
  1.10284613E-06 -5.73468701E-10  9.76680880E-07 -1.96484243E-10  5.59404790E-07
  2.35928857E-11  8.16059829E-12  1.29343131E-13  8.03147989E-08 -2.69245685E-02
  1.05567347E-07  5.88904489E-07  4.26359929E-07 -5.88881500E-07 -4.25987514E-07
  1.72328571E-03 -6.48695477E-03  3.99051417E-01 -2.63431100E-01 -3.82427251E-06
  9.07172752E-03  2.92798298E-01 -1.83514842E-01 -2.87495542E-06  1.73938566E-02
 -1.29562647E-02 -1.96177501E-03  3.99550774E-03 -1.28429705E-07 -1.30496355E-07
 -1.72317621E-03  6.48671815E-03  3.99049791E-01  2.63431428E-01  3.82443384E-06
 -9.07217087E-03  2.92797043E-01  1.83515160E-01  2.87507147E-06 -1.73937482E-02
  1.29562928E-02  1.96174450E-03  3.99546533E-03 -1.28439228E-07  1.30498574E-07
  5.79385819E-08 -1.00166681E-07 -7.24658551E-02 -9.19805555E-07  7.71970155E-12
 -2.29545045E-07  5.14248805E-02 -4.67811440E-07  3.77451357E-11  1.46654289E-07
 -4.09026572E-08 -9.23633304E-08  2.70302105E-02  3.24713729E-07  9.14215844E-12
 -4.17219799E-07 -3.02134995E-07 -4.17289669E-07 -3.02083590E-07  2.04039133E-03
 -1.00474195E-02 -7.48540811E-03  4.04321373E-01 -5.19430851E-06  1.49554869E-02
 -2.96432789E-03  3.11577196E-01 -3.49832398E-06 -2.64737077E-03  9.32911240E-03
 -5.45421784E-03  1.32820394E-02 -1.35422630E-07 -5.46986403E-08  2.04025475E-03
 -1.00472167E-02  7.48590287E-03  4.04318468E-01 -5.19437609E-06  1.49563174E-02
  2.96475147E-03  3.11575126E-01 -3.49834857E-06 -2.64744718E-03  9.32899934E-03
 -5.45423465E-03 -1.32819304E-02  1.35415290E-07 -5.46881330E-08  2.99550425E-02
 -5.68817486E-02 -6.04841038E-07 -2.43012385E-01  3.50898373E-06 -1.47355243E-01
 -4.46151436E-07 -4.26402497E-02 -2.77990056E-06  4.50223524E-02 -1.98195522E-02
 -2.96588123E-02  2.26678985E-08  9.24258927E-11  2.06183661E-06 -1.30053917E-01
 -9.45230771E-02 -1.30069362E-01 -9.45391848E-02  3.32883969E-07 -1.17657662E-06
 -6.49365400E-06 -7.52200801E-06 -3.28754258E-01 -1.40321845E-06 -4.66847427E-06
 -6.10344516E-06 -2.57832806E-01 -3.50350359E-07 -4.16408931E-07  8.87797587E-08
 -1.99772444E-07 -5.31431274E-03 -1.20333238E-03  3.32864630E-07 -1.17639599E-06
  6.49313937E-06 -7.52085874E-06 -3.28753672E-01 -1.40337350E-06  4.66814262E-06
 -6.10265591E-06 -2.57832366E-01 -3.50279574E-07 -4.16349772E-07  8.88299659E-08
  1.99755490E-07  5.31429577E-03 -1.20332708E-03 -1.24236938E-06  1.87745474E-06
 -2.09904486E-10  1.02182765E-06  3.63087522E-01  7.89273910E-06  1.60280505E-10
  3.91266394E-06  7.97420934E-02 -1.87422565E-06 -2.34214226E-06  3.93408487E-06
 -1.66037067E-10 -1.51151272E-08  4.82990404E-02  2.21358524E-01  2.21315119E-01
 -2.21345663E-01 -2.21309122E-01 -3.75141333E-03  2.58052164E-02  4.75527786E-03
 -4.63333009E-02  3.19968166E-07 -6.25080599E-04  3.50141416E-02 -1.00169491E-01
 -1.54722841E-06  1.35790357E-02  1.05894080E-02  1.76044187E-03  3.14153360E-03
 -1.10679911E-07  1.62359684E-07 -3.75137609E-03  2.58049733E-02 -4.75529531E-03
 -4.63337104E-02  3.19476620E-07 -6.24865679E-04 -3.50142625E-02 -1.00169926E-01
 -1.54806225E-06  1.35789501E-02  1.05893912E-02  1.76036485E-03 -3.14155042E-03
  1.10711324E-07  1.62354381E-07 -1.10510685E-01  1.33970663E-01  2.30971256E-07
  2.63393823E-01  7.56904965E-06  1.96105480E+00 -2.80305054E-07  9.06222461E-01
  4.52340312E-05 -8.71295267E-03 -2.02417073E-03 -1.45098117E-02  5.40576238E-08
 -1.70634124E-11 -2.97685282E-09 -2.01673834E-02 -1.50214940E+00 -2.01627383E-02
 -1.50214394E+00 -6.62374112E-06  8.34575632E-06  2.30446790E-05  8.68904020E-06
 -8.34827193E-02  6.75659358E-05  4.21744017E-05  1.74828727E-05 -1.78758403E-01
 -8.09372362E-07 -1.42167756E-06 -3.68770852E-06  2.89137696E-07  7.70566325E-03
 -4.91948022E-04 -6.56911254E-06  8.32835652E-06 -2.29822960E-05  8.51498636E-06
 -8.34830944E-02  6.68366505E-05 -4.19913271E-05  1.71603446E-05 -1.78759158E-01
 -7.78179134E-07 -1.38285219E-06 -3.64982894E-06 -2.79274926E-07 -7.70568692E-03
 -4.91928249E-04  1.32636225E-05 -2.24723280E-05  1.62134975E-07  1.21039868E-05
  4.46007350E-01 -1.30521448E-04  6.11111312E-07  4.25658351E-05  1.40487265E+00
  2.76538964E-07  1.33719953E-06 -5.41937310E-06  8.03207409E-09  1.46969204E-08
 -5.61037216E-03 -7.64114742E-03 -1.65933782E+00  7.63581993E-03  1.65938259E+00
 -6.12712304E-02  1.90086610E-02  6.99133762E-02  1.94716116E-01  7.71027075E-07
  8.20132685E-01  2.05518625E-01  3.61728538E-01  9.69469031E-07 -3.51669799E-02
 -4.36862869E-02 -4.26560226E-02  1.10535021E-02 -3.74999129E-08 -6.20841660E-08
  6.12707919E-02 -1.90082872E-02  6.99108911E-02 -1.94715700E-01 -6.96931863E-07
 -8.20128514E-01  2.05514385E-01 -3.61728104E-01 -8.10170062E-07  3.51667940E-02
  4.36860941E-02  4.26557490E-02  1.10535741E-02 -3.06136675E-08  6.25524830E-08
  5.72327707E-07 -1.10448970E-06  3.63923132E-01  1.16924582E-06 -1.98935959E-07
 -4.64965583E-06  1.37885729E+00  2.21944893E-06 -6.27759823E-07  8.36929516E-08
  4.12711120E-08 -1.95736995E-07  1.78729706E-02  6.93811311E-08  2.47656519E-09
 -3.48172249E-07  2.75571051E-06 -3.54081960E-07  1.26787627E-06  7.19308048E-02
 -4.74384771E-02 -2.33047366E-01 -4.95806125E-02 -4.39615983E-06 -8.89109178E-01
 -5.14416811E-01 -1.22775963E-01 -1.24051941E-05  2.28431691E-02  3.54297941E-02
  5.24881542E-02 -2.57660340E-03  1.21273932E-06 -7.09526773E-08  7.19313950E-02
 -4.74383754E-02  2.33047443E-01 -4.95819716E-02 -4.39611350E-06 -8.89118882E-01
  5.14418573E-01 -1.22779398E-01 -1.24052208E-05  2.28435982E-02  3.54302208E-02
  5.24887236E-02  2.57683035E-03 -1.21274093E-06 -7.09693579E-08 -1.24607566E-01
  1.80855938E-01  4.22191964E-07 -2.50532249E-01  4.69666027E-05  1.41279932E+00
  6.56163590E-06 -1.15955170E+00  1.31139348E-04  4.77491558E-03 -7.79628870E-03
  5.06659552E-02 -3.98370121E-08 -5.04371223E-11 -1.38047627E-06  5.17166071E-02
 -1.96319887E-01  5.16989294E-02 -1.95917974E-01 -6.99506491E-03 -1.57917055E-01
 -1.95919017E-01 -1.45307230E-01 -1.77687508E-06  6.60127099E-01  1.56669761E-01
 -6.02960303E-02 -6.98066420E-06  5.40027012E-02 -8.75905191E-02 -1.05443468E-01
  5.55032522E-02 -1.96194992E-06 -1.27469473E-06 -6.99491206E-03 -1.57914069E-01
  1.95914174E-01 -1.45304765E-01 -1.77701742E-06  6.60112966E-01 -1.56669623E-01
 -6.02986894E-02 -6.98074337E-06  5.40031357E-02 -8.75904815E-02 -1.05441575E-01
 -5.55011459E-02  1.96201463E-06 -1.27466201E-06 -5.05464230E-02  5.88338255E-01
 -1.36776859E-05 -9.06261627E-01 -4.53452438E-05 -6.18967699E-01  1.74975872E-05
  1.37257719E+00  6.50262062E-05 -1.04223429E-01  1.08353325E-02  2.99825313E-02
 -1.11925660E-06  6.86481239E-11  2.34992748E-06 -9.94256089E-02 -1.21637788E-01
 -9.94255517E-02 -1.21627499E-01 -1.35604389E-03 -1.29549806E-01 -2.01148707E-01
 -1.16952793E-01 -3.89190979E-07  5.38189254E-01 -1.21488474E-02  8.38758194E-02
  6.12125268E-07 -1.22668361E-02  3.55917243E-03 -7.77128917E-02  9.33658236E-02
  3.75960380E-07  3.61309291E-07  1.35601609E-03  1.29554021E-01 -2.01154346E-01
  1.16957135E-01  3.89734095E-07 -5.38204508E-01 -1.21463317E-02 -8.38738554E-02
 -6.11722775E-07  1.22653446E-02 -3.55738495E-03  7.77154857E-02  9.33675908E-02
  3.76107611E-07 -3.61317801E-07  8.54546441E-07 -8.96340215E-06 -1.03049286E+00
  1.20137162E-05 -8.44612846E-10  8.34860802E-06  1.25626737E+00 -1.65149024E-05
 -1.42349600E-09  1.52475622E-06  6.05787123E-08 -7.31742910E-07 -1.25449874E-01
 -2.12111985E-07  1.95234746E-10  9.17900627E-07  1.63727417E-06  9.15961185E-07
  1.63592529E-06  1.78481081E-06  2.11714282E-06 -3.32371936E-06  1.42199270E-05
 -2.00236296E-01 -4.26403403E-05 -2.01916347E-05  1.62372298E-06 -2.04087747E-01
 -9.73352681E-08  1.72493915E-06  1.94608073E-06 -2.89449766E-06 -8.96356181E-04
 -2.32856396E-02  1.78459227E-06  2.11760943E-06  3.32388895E-06  1.42202327E-05
 -2.00236621E-01 -4.26369428E-05  2.01905469E-05  1.62533293E-06 -2.04088055E-01
 -9.72402198E-08  1.72497402E-06  1.94616235E-06  2.89442197E-06  8.96459532E-04
 -2.32857166E-02  7.50343431E-07  1.55767210E-05 -5.49839718E-10  3.28300666E-05
 -7.36571553E-01 -1.56068596E-05 -5.38252822E-09 -1.52574837E-04  2.12996722E+00
  5.22397367E-06  9.60217487E-06 -1.66390082E-06  1.62746815E-10  2.54063511E-08
 -9.74150907E-02 -3.69555329E-01 -7.18179300E-01  3.69592156E-01  7.18207907E-01
 -4.60652226E-03 -5.06403951E-01  6.21063310E-02 -1.96912516E-02 -3.78789115E-07
  5.95051953E-01 -1.62378848E-01 -1.66678281E-01 -1.47139067E-05 -2.57224886E-01
 -2.12441012E-01 -2.17558896E-01 -5.88517621E-02 -3.85524226E-06 -3.22812794E-06
 -4.60655441E-03 -5.06403049E-01 -6.21061893E-02 -1.96910182E-02 -3.80664700E-07
  5.95051719E-01  1.62378201E-01 -1.66677901E-01 -1.47130149E-05 -2.57224227E-01
 -2.12440617E-01 -2.17558549E-01  5.88516873E-02  3.85498844E-06 -3.22744694E-06
 -9.20672787E-02 -9.43802920E-01  9.35679687E-07 -1.18454628E-01 -4.77612235E-05
  2.62282390E+00 -2.64021129E-06  6.37061566E-01  1.49697090E-04  3.42743281E-02
 -1.44749379E-02 -2.07966134E-01  1.71209009E-08  1.04899617E-09  1.39233378E-05
 -5.85409876E-01 -5.23402001E-01 -5.85443548E-01 -5.23230742E-01  5.80595720E-07
  3.64192056E-05  1.64715942E-06 -5.50923573E-06  8.48784557E-02 -5.60105203E-05
  6.26417438E-06  1.80671655E-05 -1.16531097E-01  1.03324200E-05  2.11570619E-05
  1.60859619E-05  5.05582328E-06 -8.01211797E-02 -5.59824310E-02  5.80669583E-07
  3.64176592E-05 -1.64704339E-06 -5.50973226E-06  8.48785646E-02 -5.60077799E-05
 -6.26318779E-06  1.80666579E-05 -1.16531058E-01  1.03319095E-05  2.11567365E-05
  1.60853025E-05 -5.05606037E-06  8.01214368E-02 -5.59827054E-02  3.06616563E-06
  6.79465472E-05  2.62948406E-09  5.86190164E-05 -8.12635556E-01 -1.74832695E-04