
    -----------------------------------------------------------------------
          Psi4: An Open-Source Ab Initio Electronic Structure Package
                               Psi4 1.3.2 release

                         Git: Rev {HEAD} ecbda83 


    R. M. Parrish, L. A. Burns, D. G. A. Smith, A. C. Simmonett,
    A. E. DePrince III, E. G. Hohenstein, U. Bozkaya, A. Yu. Sokolov,
    R. Di Remigio, R. M. Richard, J. F. Gonthier, A. M. James,
    H. R. McAlexander, A. Kumar, M. Saitow, X. Wang, B. P. Pritchard,
    P. Verma, H. F. Schaefer III, K. Patkowski, R. A. King, E. F. Valeev,
    F. A. Evangelista, J. M. Turney, T. D. Crawford, and C. D. Sherrill,
    J. Chem. Theory Comput. 13(7) pp 3185--3197 (2017).
    (doi: 10.1021/acs.jctc.7b00174)


                         Additional Contributions by
    P. Kraus, H. Kruse, M. H. Lechner, M. C. Schieber, R. A. Shaw,
    A. Alenaizan, R. Galvelis, Z. L. Glick, S. Lehtola, and J. P. Misiewicz

    -----------------------------------------------------------------------


    Psi4 started on: Tuesday, 03 November 2020 12:03AM

    Process ID: 28924
    Host:       node37.bme.utexas.edu
    PSIDATADIR: /home/xy3866/psi4conda/share/psi4
    Memory:     500.0 MiB
    Threads:    8
    
  ==> Input File <==

--------------------------------------------------------------------------
#psi4
#
memory 32 gb

molecule  {
0 1
  O        2.5331200    -0.0725200     0.2027050
  O        0.8230440     1.2494390    -0.4327460
  C       -1.8364167    -0.1829698    -0.5872623
  C       -2.5841030     0.6523970     0.4513900
  C       -0.9018550    -1.1471370     0.0763090
  C        0.4138976    -1.0361963     0.3308695
  C        1.2159030     0.1700770    -0.0266570
  H       -2.5251580    -0.7208810    -1.2155130
  H       -1.2597500     0.5079260    -1.2382380
  H       -3.2919980     1.3271690    -0.0377650
  H       -1.8881090     1.2530680     1.0427000
  H       -3.1450010     0.0036210     1.1307380
  H       -1.3667210    -2.0751620     0.4099140
  H        0.9531490    -1.8065430     0.8308200
  H        2.9905100     0.7616870    -0.0298800
units angstrom
no_reorient  #important for SAPT in psi4, default
symmetry c1  #important for SAPT in psi4, default
}

set PROPERTIES_ORIGIN ["COM"]
properties('MP2/aug-cc-pvtz', properties = ['dipole'])
--------------------------------------------------------------------------

  Memory set to  29.802 GiB by Python driver.
    SCF Algorithm Type (re)set to DF.

*** tstart() called on node37.bme.utexas.edu
*** at Tue Nov  3 00:03:43 2020

   => Loading Basis Set <=

    Name: AUG-CC-PVTZ
    Role: ORBITAL
    Keyword: BASIS
    atoms 1-2  entry O          line   327 file /home/xy3866/psi4conda/share/psi4/basis/aug-cc-pvtz.gbs 
    atoms 3-7  entry C          line   235 file /home/xy3866/psi4conda/share/psi4/basis/aug-cc-pvtz.gbs 
    atoms 8-15 entry H          line    36 file /home/xy3866/psi4conda/share/psi4/basis/aug-cc-pvtz.gbs 


         ---------------------------------------------------------
                                   SCF
               by Justin Turney, Rob Parrish, Andy Simmonett
                          and Daniel G. A. Smith
                              RHF Reference
                        8 Threads,  30517 MiB Core
         ---------------------------------------------------------

  ==> Geometry <==

    Molecular point group: c1
    Full point group: C1

    Geometry (in Angstrom), charge = 0, multiplicity = 1:

       Center              X                  Y                   Z               Mass       
    ------------   -----------------  -----------------  -----------------  -----------------
         O            2.535488830168    -0.067960319319     0.201145155349    15.994914619570
         O            0.825412830168     1.253998680681    -0.434305844651    15.994914619570
         C           -1.834047869832    -0.178410119319    -0.588822144651    12.000000000000
         C           -2.581734169832     0.656956680681     0.449830155349    12.000000000000
         C           -0.899486169832    -1.142577319319     0.074749155349    12.000000000000
         C            0.416266430168    -1.031636619319     0.329309655349    12.000000000000
         C            1.218271830168     0.174636680681    -0.028216844651    12.000000000000
         H           -2.522789169832    -0.716321319319    -1.217072844651     1.007825032230
         H           -1.257381169832     0.512485680681    -1.239797844651     1.007825032230
         H           -3.289629169832     1.331728680681    -0.039324844651     1.007825032230
         H           -1.885740169832     1.257627680681     1.041140155349     1.007825032230
         H           -3.142632169832     0.008180680681     1.129178155349     1.007825032230
         H           -1.364352169832    -2.070602319319     0.408354155349     1.007825032230
         H            0.955517830168    -1.801983319319     0.829260155349     1.007825032230
         H            2.992878830168     0.766246680681    -0.031439844651     1.007825032230

  Running in c1 symmetry.

  Rotational constants: A =      0.18783  B =      0.05201  C =      0.04416 [cm^-1]
  Rotational constants: A =   5631.06377  B =   1559.30832  C =   1323.86601 [MHz]
  Nuclear repulsion =  292.360570473449116

  Charge       = 0
  Multiplicity = 1
  Electrons    = 54
  Nalpha       = 27
  Nbeta        = 27

  ==> Algorithm <==

  SCF Algorithm Type is DF.
  DIIS enabled.
  MOM disabled.
  Fractional occupation disabled.
  Guess Type is SAD.
  Energy threshold   = 1.00e-10
  Density threshold  = 1.00e-10
  Integral threshold = 0.00e+00

  ==> Primary Basis <==

  Basis Set: AUG-CC-PVTZ
    Blend: AUG-CC-PVTZ
    Number of shells: 170
    Number of basis function: 506
    Number of Cartesian functions: 585
    Spherical Harmonics?: true
    Max angular momentum: 3

   => Loading Basis Set <=

    Name: (AUG-CC-PVTZ AUX)
    Role: JKFIT
    Keyword: DF_BASIS_SCF
    atoms 1-2  entry O          line   286 file /home/xy3866/psi4conda/share/psi4/basis/aug-cc-pvtz-jkfit.gbs 
    atoms 3-7  entry C          line   162 file /home/xy3866/psi4conda/share/psi4/basis/aug-cc-pvtz-jkfit.gbs 
    atoms 8-15 entry H          line    70 file /home/xy3866/psi4conda/share/psi4/basis/aug-cc-pvtz-jkfit.gbs 

  ==> Pre-Iterations <==

   -------------------------------------------------------
    Irrep   Nso     Nmo     Nalpha   Nbeta   Ndocc  Nsocc
   -------------------------------------------------------
     A        506     506       0       0       0       0
   -------------------------------------------------------
    Total     506     506      27      27      27       0
   -------------------------------------------------------

  ==> Integral Setup <==

  DFHelper Memory: AOs need 2.081 GiB; user supplied 22.352 GiB. Using in-core AOs.

  ==> MemDFJK: Density-Fitted J/K Matrices <==

    J tasked:                   Yes
    K tasked:                   Yes
    wK tasked:                   No
    OpenMP threads:               8
    Memory [MiB]:             22888
    Algorithm:                 Disk
    Schwarz Cutoff:           1E-12
    Mask sparsity (%):       4.0861
    Fitting Condition:        1E-10

   => Auxiliary Basis Set <=

  Basis Set: (AUG-CC-PVTZ AUX)
    Blend: AUG-CC-PVTZ-JKFIT
    Number of shells: 322
    Number of basis function: 1096
    Number of Cartesian functions: 1357
    Spherical Harmonics?: true
    Max angular momentum: 4

  Minimum eigenvalue in the overlap matrix is 2.7015104131E-06.
  Using Symmetric Orthogonalization.

  SCF Guess: Superposition of Atomic Densities via on-the-fly atomic UHF.

  ==> Iterations <==

                           Total Energy        Delta E     RMS |[F,P]|

   @DF-RHF iter SAD:  -342.73601805148684   -3.42736e+02   0.00000e+00 
   @DF-RHF iter   1:  -343.59792943244128   -8.61911e-01   1.41084e-03 DIIS
   @DF-RHF iter   2:  -343.79119839275893   -1.93269e-01   7.97886e-04 DIIS
   @DF-RHF iter   3:  -343.85104521901803   -5.98468e-02   1.55333e-04 DIIS
   @DF-RHF iter   4:  -343.85466174518206   -3.61653e-03   7.21641e-05 DIIS
   @DF-RHF iter   5:  -343.85541039702764   -7.48652e-04   1.37185e-05 DIIS
   @DF-RHF iter   6:  -343.85545869876881   -4.83017e-05   6.75023e-06 DIIS
   @DF-RHF iter   7:  -343.85546889716238   -1.01984e-05   2.17843e-06 DIIS
   @DF-RHF iter   8:  -343.85547076140477   -1.86424e-06   8.42576e-07 DIIS
   @DF-RHF iter   9:  -343.85547103243351   -2.71029e-07   2.43229e-07 DIIS
   @DF-RHF iter  10:  -343.85547105798514   -2.55516e-08   8.78593e-08 DIIS
   @DF-RHF iter  11:  -343.85547106023665   -2.25151e-09   2.62364e-08 DIIS
   @DF-RHF iter  12:  -343.85547106050916   -2.72507e-10   1.14861e-08 DIIS
   @DF-RHF iter  13:  -343.85547106054833   -3.91651e-11   3.70422e-09 DIIS
   @DF-RHF iter  14:  -343.85547106055384   -5.51381e-12   1.76475e-09 DIIS
   @DF-RHF iter  15:  -343.85547106055736   -3.52429e-12   4.66850e-10 DIIS
   @DF-RHF iter  16:  -343.85547106055725    1.13687e-13   1.37249e-10 DIIS
   @DF-RHF iter  17:  -343.85547106055628    9.66338e-13   4.13955e-11 DIIS
  Energy and wave function converged.


  ==> Post-Iterations <==

    Orbital Energies [Eh]
    ---------------------

    Doubly Occupied:                                                      

       1A    -20.611332     2A    -20.545367     3A    -11.389259  
       4A    -11.269826     5A    -11.243874     6A    -11.231927  
       7A    -11.221058     8A     -1.457915     9A     -1.352679  
      10A     -1.104448    11A     -1.019767    12A     -0.906847  
      13A     -0.840189    14A     -0.750787    15A     -0.708519  
      16A     -0.677614    17A     -0.645758    18A     -0.627457  
      19A     -0.601071    20A     -0.586581    21A     -0.563818  
      22A     -0.529091    23A     -0.503917    24A     -0.496594  
      25A     -0.481028    26A     -0.442010    27A     -0.381450  

    Virtual:                                                              

      28A      0.027582    29A      0.034085    30A      0.037356  
      31A      0.041091    32A      0.049720    33A      0.060097  
      34A      0.062956    35A      0.066086    36A      0.086749  
      37A      0.094392    38A      0.103533    39A      0.110099  
      40A      0.116560    41A      0.117403    42A      0.120614  
      43A      0.125462    44A      0.127998    45A      0.132363  
      46A      0.135093    47A      0.143961    48A      0.152913  
      49A      0.155332    50A      0.158030    51A      0.167134  
      52A      0.172768    53A      0.189727    54A      0.200362  
      55A      0.209584    56A      0.215919    57A      0.218346  
      58A      0.223357    59A      0.231485    60A      0.247465  
      61A      0.261624    62A      0.266188    63A      0.267665  
      64A      0.277245    65A      0.281910    66A      0.287552  
      67A      0.289681    68A      0.296677    69A      0.299722  
      70A      0.306662    71A      0.320850    72A      0.328611  
      73A      0.329677    74A      0.333822    75A      0.342442  
      76A      0.348720    77A      0.362114    78A      0.365167  
      79A      0.370796    80A      0.373843    81A      0.378033  
      82A      0.388127    83A      0.392345    84A      0.395644  
      85A      0.404726    86A      0.411723    87A      0.422567  
      88A      0.424739    89A      0.428352    90A      0.433782  
      91A      0.439267    92A      0.448354    93A      0.455218  
      94A      0.462320    95A      0.465618    96A      0.470177  
      97A      0.475991    98A      0.481331    99A      0.485814  
     100A      0.492370   101A      0.498022   102A      0.505942  
     103A      0.511020   104A      0.515380   105A      0.521091  
     106A      0.526194   107A      0.533609   108A      0.540610  
     109A      0.549592   110A      0.561471   111A      0.564960  
     112A      0.575176   113A      0.583707   114A      0.589124  
     115A      0.594451   116A      0.612289   117A      0.616200  
     118A      0.619744   119A      0.632293   120A      0.634778  
     121A      0.648220   122A      0.665243   123A      0.674983  
     124A      0.683222   125A      0.691812   126A      0.707016  
     127A      0.715749   128A      0.735682   129A      0.752805  
     130A      0.776895   131A      0.783882   132A      0.786636  
     133A      0.797789   134A      0.801294   135A      0.815032  
     136A      0.817610   137A      0.825124   138A      0.829998  
     139A      0.839175   140A      0.843404   141A      0.856965  
     142A      0.862103   143A      0.871421   144A      0.874851  
     145A      0.879754   146A      0.889108   147A      0.900383  
     148A      0.905182   149A      0.915189   150A      0.920252  
     151A      0.926563   152A      0.929384   153A      0.938904  
     154A      0.945815   155A      0.947940   156A      0.955348  
     157A      0.961636   158A      0.964361   159A      0.985277  
     160A      0.989580   161A      0.995309   162A      1.001123  
     163A      1.005488   164A      1.020593   165A      1.027489  
     166A      1.031247   167A      1.047317   168A      1.051691  
     169A      1.054229   170A      1.066662   171A      1.072029  
     172A      1.079079   173A      1.087670   174A      1.101283  
     175A      1.110265   176A      1.117178   177A      1.118837  
     178A      1.121203   179A      1.132278   180A      1.136322  
     181A      1.145808   182A      1.151627   183A      1.158438  
     184A      1.169739   185A      1.175391   186A      1.195416  
     187A      1.204951   188A      1.214622   189A      1.219192  
     190A      1.235960   191A      1.242924   192A      1.251674  
     193A      1.257650   194A      1.268875   195A      1.271025  
     196A      1.290641   197A      1.295568   198A      1.313696  
     199A      1.319219   200A      1.331098   201A      1.334517  
     202A      1.347546   203A      1.355654   204A      1.373085  
     205A      1.378629   206A      1.391050   207A      1.409247  
     208A      1.419170   209A      1.422257   210A      1.441588  
     211A      1.461226   212A      1.465583   213A      1.471901  
     214A      1.484598   215A      1.485687   216A      1.512677  
     217A      1.522053   218A      1.525154   219A      1.544707  
     220A      1.563398   221A      1.572674   222A      1.579667  
     223A      1.588610   224A      1.606945   225A      1.615989  
     226A      1.624557   227A      1.633532   228A      1.648041  
     229A      1.659609   230A      1.672887   231A      1.685187  
     232A      1.688018   233A      1.706543   234A      1.718969  
     235A      1.728743   236A      1.738346   237A      1.754292  
     238A      1.761300   239A      1.765702   240A      1.777975  
     241A      1.791529   242A      1.796891   243A      1.815809  
     244A      1.832672   245A      1.838743   246A      1.849288  
     247A      1.857758   248A      1.869227   249A      1.883324  
     250A      1.885928   251A      1.906703   252A      1.910619  
     253A      1.916446   254A      1.934071   255A      1.945997  
     256A      1.968568   257A      1.980170   258A      1.992704  
     259A      1.997057   260A      2.002114   261A      2.035506  
     262A      2.041094   263A      2.050830   264A      2.068996  
     265A      2.089902   266A      2.100833   267A      2.109455  
     268A      2.138365   269A      2.153487   270A      2.176039  
     271A      2.183939   272A      2.201041   273A      2.205168  
     274A      2.223945   275A      2.235872   276A      2.243718  
     277A      2.269814   278A      2.274932   279A      2.291467  
     280A      2.297970   281A      2.343466   282A      2.348151  
     283A      2.359989   284A      2.384256   285A      2.399648  
     286A      2.415224   287A      2.420404   288A      2.457557  
     289A      2.468816   290A      2.484607   291A      2.491547  
     292A      2.518299   293A      2.544254   294A      2.562469  
     295A      2.572990   296A      2.589201   297A      2.608062  
     298A      2.619165   299A      2.636751   300A      2.638558  
     301A      2.671383   302A      2.723237   303A      2.742294  
     304A      2.772090   305A      2.785045   306A      2.823930  
     307A      2.828976   308A      2.876384   309A      2.899198  
     310A      2.924531   311A      2.955545   312A      2.956515  
     313A      2.996825   314A      3.022180   315A      3.034148  
     316A      3.046866   317A      3.106611   318A      3.116886  
     319A      3.140266   320A      3.197525   321A      3.216261  
     322A      3.266103   323A      3.288478   324A      3.314981  
     325A      3.328404   326A      3.345363   327A      3.365494  
     328A      3.387216   329A      3.412969   330A      3.446749  
     331A      3.456492   332A      3.470007   333A      3.472666  
     334A      3.486303   335A      3.503672   336A      3.530455  
     337A      3.545289   338A      3.579735   339A      3.607224  
     340A      3.623168   341A      3.636598   342A      3.646012  
     343A      3.655278   344A      3.665244   345A      3.684665  
     346A      3.698576   347A      3.719675   348A      3.726983  
     349A      3.735032   350A      3.752065   351A      3.775052  
     352A      3.785261   353A      3.809665   354A      3.844032  
     355A      3.852856   356A      3.855577   357A      3.874299  
     358A      3.893084   359A      3.901445   360A      3.912852  
     361A      3.917631   362A      3.932510   363A      3.944432  
     364A      3.974085   365A      3.978715   366A      3.989987  
     367A      3.993548   368A      4.018010   369A      4.032752  
     370A      4.058585   371A      4.064697   372A      4.067713  
     373A      4.088383   374A      4.113820   375A      4.134320  
     376A      4.137722   377A      4.151275   378A      4.178227  
     379A      4.189139   380A      4.204111   381A      4.217689  
     382A      4.233037   383A      4.251971   384A      4.278053  
     385A      4.286444   386A      4.298543   387A      4.314959  
     388A      4.342474   389A      4.351516   390A      4.373088  
     391A      4.403615   392A      4.410231   393A      4.426037  
     394A      4.441898   395A      4.463351   396A      4.475645  
     397A      4.481652   398A      4.524318   399A      4.534341  
     400A      4.551437   401A      4.560219   402A      4.597309  
     403A      4.633787   404A      4.652340   405A      4.667746  
     406A      4.678517   407A      4.689278   408A      4.749100  
     409A      4.785298   410A      4.798430   411A      4.822069  
     412A      4.841434   413A      4.852681   414A      4.872043  
     415A      4.894064   416A      4.914162   417A      4.930763  
     418A      4.953561   419A      4.984514   420A      4.996689  
     421A      5.007493   422A      5.017654   423A      5.051288  
     424A      5.067694   425A      5.085446   426A      5.123437  
     427A      5.140744   428A      5.168915   429A      5.180400  
     430A      5.198817   431A      5.203426   432A      5.231992  
     433A      5.248945   434A      5.262453   435A      5.276767  
     436A      5.299314   437A      5.346278   438A      5.357849  
     439A      5.378383   440A      5.386391   441A      5.421003  
     442A      5.439851   443A      5.468844   444A      5.482340  
     445A      5.495424   446A      5.518906   447A      5.555871  
     448A      5.578580   449A      5.624233   450A      5.647417  
     451A      5.698934   452A      5.715038   453A      5.762167  
     454A      5.806035   455A      5.858392   456A      5.893733  
     457A      5.945529   458A      5.972853   459A      6.028546  
     460A      6.091019   461A      6.139003   462A      6.190413  
     463A      6.226302   464A      6.238641   465A      6.241711  
     466A      6.287829   467A      6.422542   468A      6.465346  
     469A      6.517869   470A      6.593592   471A      6.684782  
     472A      6.749240   473A      6.786216   474A      6.819003  
     475A      6.843295   476A      6.855713   477A      6.885560  
     478A      6.908269   479A      6.918700   480A      6.989283  
     481A      7.056872   482A      7.070450   483A      7.197142  
     484A      7.226440   485A      7.289658   486A      7.350368  
     487A      7.391157   488A      7.396418   489A      7.416097  
     490A      7.572454   491A      7.613949   492A      7.623259  
     493A      7.697044   494A      7.764036   495A      7.889873  
     496A      7.975752   497A      8.134844   498A      8.276533  
     499A      8.545483   500A     15.409648   501A     15.862099  
     502A     16.699542   503A     17.901834   504A     18.103954  
     505A     18.861067   506A     19.675122  

    Final Occupation by Irrep:
              A 
    DOCC [    27 ]

  @DF-RHF Final Energy:  -343.85547106055628

   => Energetics <=

    Nuclear Repulsion Energy =            292.3605704734491155
    One-Electron Energy =               -1048.0517185557230277
    Two-Electron Energy =                 411.8356770217176290
    Total Energy =                       -343.8554710605562832

Computation Completed

*** tstop() called on node37.bme.utexas.edu at Tue Nov  3 00:04:36 2020
Module time:
	user time   =     192.90 seconds =       3.22 minutes
	system time =      43.18 seconds =       0.72 minutes
	total time  =         53 seconds =       0.88 minutes
Total time:
	user time   =     192.90 seconds =       3.22 minutes
	system time =      43.18 seconds =       0.72 minutes
	total time  =         53 seconds =       0.88 minutes
   => Loading Basis Set <=

    Name: (AUG-CC-PVTZ AUX)
    Role: RIFIT
    Keyword: DF_BASIS_MP2
    atoms 1-2  entry O          line   264 file /home/xy3866/psi4conda/share/psi4/basis/aug-cc-pvtz-ri.gbs 
    atoms 3-7  entry C          line   148 file /home/xy3866/psi4conda/share/psi4/basis/aug-cc-pvtz-ri.gbs 
    atoms 8-15 entry H          line    30 file /home/xy3866/psi4conda/share/psi4/basis/aug-cc-pvtz-ri.gbs 


*** tstart() called on node37.bme.utexas.edu
*** at Tue Nov  3 00:04:36 2020


  //>>>>>>>>>>>>>>>>>>>>>>>>>>>>>>>>>>>//
  //               DFMP2               //
  //<<<<<<<<<<<<<<<<<<<<<<<<<<<<<<<<<<<//

	 --------------------------------------------------------
	                          DF-MP2                         
	      2nd-Order Density-Fitted Moller-Plesset Theory     
	              RMP2 Wavefunction,   8 Threads             
	                                                         
	        Rob Parrish, Justin Turney, Andy Simmonett,      
	           Ed Hohenstein, and C. David Sherrill          
	 --------------------------------------------------------

   => Auxiliary Basis Set <=

  Basis Set: (AUG-CC-PVTZ AUX)
    Blend: AUG-CC-PVTZ-RI
    Number of shells: 308
    Number of basis function: 1110
    Number of Cartesian functions: 1392
    Spherical Harmonics?: true
    Max angular momentum: 4

	 --------------------------------------------------------
	                 NBF =   506, NAUX =  1110
	 --------------------------------------------------------
	   CLASS    FOCC     OCC    AOCC    AVIR     VIR    FVIR
	   PAIRS       0      27      27     479     479       0
	 --------------------------------------------------------

  DFHelper Memory: AOs need 2.081 GiB; user supplied 22.352 GiB. Using in-core AOs.


         ------------------------------------------------------------
                                     CPHF                           
                                  Rob Parrish                       
         ------------------------------------------------------------

  ==> Geometry <==

    Molecular point group: c1
    Full point group: C1

    Geometry (in Angstrom), charge = 0, multiplicity = 1:

       Center              X                  Y                   Z               Mass       
    ------------   -----------------  -----------------  -----------------  -----------------
         O            2.535488830168    -0.067960319319     0.201145155349    15.994914619570
         O            0.825412830168     1.253998680681    -0.434305844651    15.994914619570
         C           -1.834047869832    -0.178410119319    -0.588822144651    12.000000000000
         C           -2.581734169832     0.656956680681     0.449830155349    12.000000000000
         C           -0.899486169832    -1.142577319319     0.074749155349    12.000000000000
         C            0.416266430168    -1.031636619319     0.329309655349    12.000000000000
         C            1.218271830168     0.174636680681    -0.028216844651    12.000000000000
         H           -2.522789169832    -0.716321319319    -1.217072844651     1.007825032230
         H           -1.257381169832     0.512485680681    -1.239797844651     1.007825032230
         H           -3.289629169832     1.331728680681    -0.039324844651     1.007825032230
         H           -1.885740169832     1.257627680681     1.041140155349     1.007825032230
         H           -3.142632169832     0.008180680681     1.129178155349     1.007825032230
         H           -1.364352169832    -2.070602319319     0.408354155349     1.007825032230
         H            0.955517830168    -1.801983319319     0.829260155349     1.007825032230
         H            2.992878830168     0.766246680681    -0.031439844651     1.007825032230

  Nuclear repulsion =  292.360570473449116
  Reference energy  = -343.855471060556283

  ==> Basis Set <==

  Basis Set: AUG-CC-PVTZ
    Blend: AUG-CC-PVTZ
    Number of shells: 170
    Number of basis function: 506
    Number of Cartesian functions: 585
    Spherical Harmonics?: true
    Max angular momentum: 3

  ==> CGRSolver (by Rob Parrish) <==

   Number of roots    =         1
   Preconditioning    =    JACOBI
   Convergence cutoff =     1E-06
   Maximum iterations =       100

  ==> CPHFRHamiltonian (by Rob Parrish) <== 

  ==> MemDFJK: Density-Fitted J/K Matrices <==

    J tasked:                   Yes
    K tasked:                   Yes
    wK tasked:                   No
    OpenMP threads:               8
    Memory [MiB]:             22888
    Algorithm:                 Disk
    Schwarz Cutoff:           1E-12
    Mask sparsity (%):       4.0861
    Fitting Condition:        1E-10

   => Auxiliary Basis Set <=

  Basis Set: (AUG-CC-PVTZ AUX)
    Blend: AUG-CC-PVTZ-JKFIT
    Number of shells: 322
    Number of basis function: 1096
    Number of Cartesian functions: 1357
    Spherical Harmonics?: true
    Max angular momentum: 4

  ==> CPHF Iterations <==

  => Iterations <=

             Iter  Converged  Remaining    Residual
  CGR           1          0          1   1.157E-01
  CGR           2          0          1   3.576E-02
  CGR           3          0          1   1.509E-02
  CGR           4          0          1   5.305E-03
  CGR           5          0          1   2.444E-03
  CGR           6          0          1   8.115E-04
  CGR           7          0          1   2.414E-04
  CGR           8          0          1   8.326E-05
  CGR           9          0          1   3.122E-05
  CGR          10          0          1   1.124E-05
  CGR          11          0          1   3.765E-06
  CGR          12          0          1   1.242E-06
  CGR          13          1          0   3.738E-07

    CGRSolver converged.

	-----------------------------------------------------------
	 ==================> DF-MP2 Energies <==================== 
	-----------------------------------------------------------
	 Reference Energy          =    -343.8554710605562832 [Eh]
	 Singles Energy            =      -0.0000000000000000 [Eh]
	 Same-Spin Energy          =      -0.3408013724547360 [Eh]
	 Opposite-Spin Energy      =      -1.0998409215589275 [Eh]
	 Correlation Energy        =      -1.4406422940136636 [Eh]
	 Total Energy              =    -345.2961133545699681 [Eh]
	-----------------------------------------------------------
	 ================> DF-SCS-MP2 Energies <================== 
	-----------------------------------------------------------
	 SCS Same-Spin Scale       =       0.3333333333333333 [-]
	 SCS Opposite-Spin Scale   =       1.2000000000000000 [-]
	 SCS Same-Spin Energy      =      -0.1136004574849120 [Eh]
	 SCS Opposite-Spin Energy  =      -1.3198091058707131 [Eh]
	 SCS Correlation Energy    =      -1.4334095633556250 [Eh]
	 SCS Total Energy          =    -345.2888806239118935 [Eh]
	-----------------------------------------------------------



Properties will be evaluated at   0.000000,  -0.000000,  -0.000000 [a0]

Properties computed using the MP2 density matrix

  Nuclear Dipole Moment: [e a0]
     X:    -8.9031      Y:    -0.6624      Z:     0.8241

  Electronic Dipole Moment: [e a0]
     X:     8.7435      Y:     0.2272      Z:    -0.6944

  Dipole Moment: [e a0]
     X:    -0.1595      Y:    -0.4352      Z:     0.1297     Total:     0.4813

  Dipole Moment: [D]
     X:    -0.4055      Y:    -1.1062      Z:     0.3297     Total:     1.2235


*** tstop() called on node37.bme.utexas.edu at Tue Nov  3 00:06:08 2020
Module time:
	user time   =     444.27 seconds =       7.40 minutes
	system time =      53.31 seconds =       0.89 minutes
	total time  =         92 seconds =       1.53 minutes
Total time:
	user time   =     637.33 seconds =      10.62 minutes
	system time =      96.49 seconds =       1.61 minutes
	total time  =        145 seconds =       2.42 minutes

    Psi4 stopped on: Tuesday, 03 November 2020 12:06AM
    Psi4 wall time for execution: 0:02:24.77

*** Psi4 exiting successfully. Buy a developer a beer!
