
    -----------------------------------------------------------------------
          Psi4: An Open-Source Ab Initio Electronic Structure Package
                               Psi4 1.3.2 release

                         Git: Rev {HEAD} ecbda83 


    R. M. Parrish, L. A. Burns, D. G. A. Smith, A. C. Simmonett,
    A. E. DePrince III, E. G. Hohenstein, U. Bozkaya, A. Yu. Sokolov,
    R. Di Remigio, R. M. Richard, J. F. Gonthier, A. M. James,
    H. R. McAlexander, A. Kumar, M. Saitow, X. Wang, B. P. Pritchard,
    P. Verma, H. F. Schaefer III, K. Patkowski, R. A. King, E. F. Valeev,
    F. A. Evangelista, J. M. Turney, T. D. Crawford, and C. D. Sherrill,
    J. Chem. Theory Comput. 13(7) pp 3185--3197 (2017).
    (doi: 10.1021/acs.jctc.7b00174)


                         Additional Contributions by
    P. Kraus, H. Kruse, M. H. Lechner, M. C. Schieber, R. A. Shaw,
    A. Alenaizan, R. Galvelis, Z. L. Glick, S. Lehtola, and J. P. Misiewicz

    -----------------------------------------------------------------------


    Psi4 started on: Sunday, 08 November 2020 07:44PM

    Process ID: 105769
    Host:       node59.bme.utexas.edu
    PSIDATADIR: /home/xy3866/psi4conda/share/psi4
    Memory:     500.0 MiB
    Threads:    8
    
  ==> Input File <==

--------------------------------------------------------------------------
#psi4
#
memory 32 gb

molecule  {
0 1
  N        0.0000070     1.4263630    -0.0000270
  C        1.1454080     0.7211130    -0.0000270
  H        2.0620700     1.3085300     0.0002900
  C        1.1977090    -0.6737460    -0.0000200
  H        2.1568670    -1.1842320     0.0001540
  C       -0.0000070    -1.3877840    -0.0000410
  H       -0.0000130    -2.4750110     0.0001390
  C       -1.1977161    -0.6737438    -0.1000180
  H       -2.1568770    -1.1842140     0.0001640
  C       -1.1454010     0.7211250    -0.0000380
  H       -2.0620580     1.3085500     0.0003070
units angstrom
no_reorient  #important for SAPT in psi4, default
symmetry c1  #important for SAPT in psi4, default
}

set PROPERTIES_ORIGIN ["COM"]
properties('MP2/aug-cc-pvtz', properties = ['dipole'])
--------------------------------------------------------------------------

  Memory set to  29.802 GiB by Python driver.
    SCF Algorithm Type (re)set to DF.

*** tstart() called on node59.bme.utexas.edu
*** at Sun Nov  8 19:44:30 2020

   => Loading Basis Set <=

    Name: AUG-CC-PVTZ
    Role: ORBITAL
    Keyword: BASIS
    atoms 1              entry N          line   281 file /home/xy3866/psi4conda/share/psi4/basis/aug-cc-pvtz.gbs 
    atoms 2, 4, 6, 8, 10 entry C          line   235 file /home/xy3866/psi4conda/share/psi4/basis/aug-cc-pvtz.gbs 
    atoms 3, 5, 7, 9, 11 entry H          line    36 file /home/xy3866/psi4conda/share/psi4/basis/aug-cc-pvtz.gbs 


         ---------------------------------------------------------
                                   SCF
               by Justin Turney, Rob Parrish, Andy Simmonett
                          and Daniel G. A. Smith
                              RHF Reference
                        8 Threads,  30517 MiB Core
         ---------------------------------------------------------

  ==> Geometry <==

    Molecular point group: c1
    Full point group: C1

    Geometry (in Angstrom), charge = 0, multiplicity = 1:

       Center              X                  Y                   Z               Mass       
    ------------   -----------------  -----------------  -----------------  -----------------
         N            0.000006978044     1.398362278895     0.015167969878    14.003074004430
         C            1.145407978044     0.693112278895     0.015167969878    12.000000000000
         H            2.062069978044     1.280529278895     0.015484969878     1.007825032230
         C            1.197708978044    -0.701746721105     0.015174969878    12.000000000000
         H            2.156866978044    -1.212232721105     0.015348969878     1.007825032230
         C           -0.000007021956    -1.415784721105     0.015153969878    12.000000000000
         H           -0.000013021956    -2.503011721105     0.015333969878     1.007825032230
         C           -1.197716121956    -0.701744521105    -0.084823030122    12.000000000000
         H           -2.156877021956    -1.212214721105     0.015358969878     1.007825032230
         C           -1.145401021956     0.693124278895     0.015156969878    12.000000000000
         H           -2.062058021956     1.280549278895     0.015501969878     1.007825032230

  Running in c1 symmetry.

  Rotational constants: A =      0.20079  B =      0.19279  C =      0.09843 [cm^-1]
  Rotational constants: A =   6019.52852  B =   5779.56949  C =   2950.93096 [MHz]
  Nuclear repulsion =  205.477888801886110

  Charge       = 0
  Multiplicity = 1
  Electrons    = 42
  Nalpha       = 21
  Nbeta        = 21

  ==> Algorithm <==

  SCF Algorithm Type is DF.
  DIIS enabled.
  MOM disabled.
  Fractional occupation disabled.
  Guess Type is SAD.
  Energy threshold   = 1.00e-10
  Density threshold  = 1.00e-10
  Integral threshold = 0.00e+00

  ==> Primary Basis <==

  Basis Set: AUG-CC-PVTZ
    Blend: AUG-CC-PVTZ
    Number of shells: 129
    Number of basis function: 391
    Number of Cartesian functions: 455
    Spherical Harmonics?: true
    Max angular momentum: 3

   => Loading Basis Set <=

    Name: (AUG-CC-PVTZ AUX)
    Role: JKFIT
    Keyword: DF_BASIS_SCF
    atoms 1              entry N          line   224 file /home/xy3866/psi4conda/share/psi4/basis/aug-cc-pvtz-jkfit.gbs 
    atoms 2, 4, 6, 8, 10 entry C          line   162 file /home/xy3866/psi4conda/share/psi4/basis/aug-cc-pvtz-jkfit.gbs 
    atoms 3, 5, 7, 9, 11 entry H          line    70 file /home/xy3866/psi4conda/share/psi4/basis/aug-cc-pvtz-jkfit.gbs 

  ==> Pre-Iterations <==

   -------------------------------------------------------
    Irrep   Nso     Nmo     Nalpha   Nbeta   Ndocc  Nsocc
   -------------------------------------------------------
     A        391     391       0       0       0       0
   -------------------------------------------------------
    Total     391     391      21      21      21       0
   -------------------------------------------------------

  ==> Integral Setup <==

  DFHelper Memory: AOs need 1.009 GiB; user supplied 22.352 GiB. Using in-core AOs.

  ==> MemDFJK: Density-Fitted J/K Matrices <==

    J tasked:                   Yes
    K tasked:                   Yes
    wK tasked:                   No
    OpenMP threads:               8
    Memory [MiB]:             22888
    Algorithm:                 Core
    Schwarz Cutoff:           1E-12
    Mask sparsity (%):       0.9118
    Fitting Condition:        1E-10

   => Auxiliary Basis Set <=

  Basis Set: (AUG-CC-PVTZ AUX)
    Blend: AUG-CC-PVTZ-JKFIT
    Number of shells: 250
    Number of basis function: 854
    Number of Cartesian functions: 1061
    Spherical Harmonics?: true
    Max angular momentum: 4

  Minimum eigenvalue in the overlap matrix is 2.9624550294E-06.
  Using Symmetric Orthogonalization.

  SCF Guess: Superposition of Atomic Densities via on-the-fly atomic UHF.

  ==> Iterations <==

                           Total Energy        Delta E     RMS |[F,P]|

   @DF-RHF iter SAD:  -246.09362303174223   -2.46094e+02   0.00000e+00 
   @DF-RHF iter   1:  -246.63035993740240   -5.36737e-01   1.25009e-03 DIIS
   @DF-RHF iter   2:  -246.74908162540879   -1.18722e-01   5.75367e-04 DIIS
   @DF-RHF iter   3:  -246.77288836506457   -2.38067e-02   1.12497e-04 DIIS
   @DF-RHF iter   4:  -246.77428700465609   -1.39864e-03   3.39153e-05 DIIS
   @DF-RHF iter   5:  -246.77437378025888   -8.67756e-05   1.09093e-05 DIIS
   @DF-RHF iter   6:  -246.77438507514205   -1.12949e-05   2.53388e-06 DIIS
   @DF-RHF iter   7:  -246.77438598720434   -9.12062e-07   9.15788e-07 DIIS
   @DF-RHF iter   8:  -246.77438610741117   -1.20207e-07   3.67436e-07 DIIS
   @DF-RHF iter   9:  -246.77438613877626   -3.13651e-08   8.24650e-08 DIIS
   @DF-RHF iter  10:  -246.77438614085972   -2.08345e-09   2.91304e-08 DIIS
   @DF-RHF iter  11:  -246.77438614110179   -2.42068e-10   1.39482e-08 DIIS
   @DF-RHF iter  12:  -246.77438614116247   -6.06803e-11   5.75612e-09 DIIS
   @DF-RHF iter  13:  -246.77438614117392   -1.14539e-11   2.71877e-09 DIIS
   @DF-RHF iter  14:  -246.77438614117540   -1.47793e-12   8.01753e-10 DIIS
   @DF-RHF iter  15:  -246.77438614117531    8.52651e-14   2.78508e-10 DIIS
   @DF-RHF iter  16:  -246.77438614117568   -3.69482e-13   1.38636e-10 DIIS
   @DF-RHF iter  17:  -246.77438614117608   -3.97904e-13   5.66063e-11 DIIS
  Energy and wave function converged.


  ==> Post-Iterations <==

    Orbital Energies [Eh]
    ---------------------

    Doubly Occupied:                                                      

       1A    -15.568797     2A    -11.278562     3A    -11.278157  
       4A    -11.263625     5A    -11.245533     6A    -11.244590  
       7A     -1.254026     8A     -1.088189     9A     -1.032154  
      10A     -0.857896    11A     -0.854390    12A     -0.719484  
      13A     -0.658516    14A     -0.652673    15A     -0.596856  
      16A     -0.576156    17A     -0.539492    18A     -0.518681  
      19A     -0.420415    20A     -0.383232    21A     -0.347685  

    Virtual:                                                              

      22A      0.026173    23A      0.033432    24A      0.037770  
      25A      0.049067    26A      0.054131    27A      0.074147  
      28A      0.087181    29A      0.096739    30A      0.103786  
      31A      0.104240    32A      0.107087    33A      0.109000  
      34A      0.111007    35A      0.117375    36A      0.119149  
      37A      0.129949    38A      0.133115    39A      0.142029  
      40A      0.149310    41A      0.149555    42A      0.153380  
      43A      0.157434    44A      0.158757    45A      0.197188  
      46A      0.222348    47A      0.228968    48A      0.241555  
      49A      0.242397    50A      0.248064    51A      0.261680  
      52A      0.269174    53A      0.270731    54A      0.280280  
      55A      0.290446    56A      0.291355    57A      0.302361  
      58A      0.306090    59A      0.320339    60A      0.325030  
      61A      0.334994    62A      0.337736    63A      0.341137  
      64A      0.347989    65A      0.353686    66A      0.371529  
      67A      0.380237    68A      0.385378    69A      0.404646  
      70A      0.411465    71A      0.425925    72A      0.429536  
      73A      0.431044    74A      0.440504    75A      0.441418  
      76A      0.450646    77A      0.458334    78A      0.459977  
      79A      0.468094    80A      0.475032    81A      0.483397  
      82A      0.490528    83A      0.493803    84A      0.496677  
      85A      0.509244    86A      0.512973    87A      0.531644  
      88A      0.539413    89A      0.540070    90A      0.555217  
      91A      0.556460    92A      0.582733    93A      0.599844  
      94A      0.603939    95A      0.621085    96A      0.625552  
      97A      0.633447    98A      0.643989    99A      0.648593  
     100A      0.658858   101A      0.660127   102A      0.690875  
     103A      0.709735   104A      0.719868   105A      0.728865  
     106A      0.739374   107A      0.753677   108A      0.771626  
     109A      0.773278   110A      0.780062   111A      0.787681  
     112A      0.807633   113A      0.821750   114A      0.828444  
     115A      0.834003   116A      0.843275   117A      0.846636  
     118A      0.858270   119A      0.868487   120A      0.871938  
     121A      0.886888   122A      0.896569   123A      0.900139  
     124A      0.917711   125A      0.926254   126A      0.932817  
     127A      0.948629   128A      0.952339   129A      0.962438  
     130A      0.974195   131A      0.984000   132A      0.994140  
     133A      1.004990   134A      1.013921   135A      1.015413  
     136A      1.023304   137A      1.040133   138A      1.049064  
     139A      1.063979   140A      1.071266   141A      1.079033  
     142A      1.081182   143A      1.091922   144A      1.094724  
     145A      1.106617   146A      1.123061   147A      1.130831  
     148A      1.149882   149A      1.157671   150A      1.164527  
     151A      1.176459   152A      1.177464   153A      1.180705  
     154A      1.189167   155A      1.193159   156A      1.198473  
     157A      1.208223   158A      1.220652   159A      1.229886  
     160A      1.238950   161A      1.258442   162A      1.260687  
     163A      1.272707   164A      1.275485   165A      1.291723  
     166A      1.303066   167A      1.329628   168A      1.362134  
     169A      1.385788   170A      1.422970   171A      1.439477  
     172A      1.441512   173A      1.465831   174A      1.495934  
     175A      1.498564   176A      1.507611   177A      1.515728  
     178A      1.519818   179A      1.548401   180A      1.585409  
     181A      1.589615   182A      1.624716   183A      1.643920  
     184A      1.661439   185A      1.672509   186A      1.690749  
     187A      1.706325   188A      1.710477   189A      1.728148  
     190A      1.737798   191A      1.748665   192A      1.772887  
     193A      1.788751   194A      1.804713   195A      1.824735  
     196A      1.825764   197A      1.847486   198A      1.852978  
     199A      1.860965   200A      1.880765   201A      1.884586  
     202A      1.905412   203A      1.925611   204A      1.950955  
     205A      1.968832   206A      1.976784   207A      2.006249  
     208A      2.015028   209A      2.017473   210A      2.031190  
     211A      2.032674   212A      2.043879   213A      2.066531  
     214A      2.073178   215A      2.091060   216A      2.120867  
     217A      2.123499   218A      2.140625   219A      2.158131  
     220A      2.162690   221A      2.203409   222A      2.220133  
     223A      2.236337   224A      2.260220   225A      2.296085  
     226A      2.303460   227A      2.355669   228A      2.366615  
     229A      2.386139   230A      2.390430   231A      2.410121  
     232A      2.435621   233A      2.448834   234A      2.487998  
     235A      2.524366   236A      2.543378   237A      2.567785  
     238A      2.635773   239A      2.650672   240A      2.664086  
     241A      2.675933   242A      2.766293   243A      2.800710  
     244A      2.823285   245A      2.885689   246A      2.927378  
     247A      2.968635   248A      2.979778   249A      3.029664  
     250A      3.042547   251A      3.135475   252A      3.153759  
     253A      3.159303   254A      3.234937   255A      3.254782  
     256A      3.286295   257A      3.295205   258A      3.319075  
     259A      3.340519   260A      3.366398   261A      3.387720  
     262A      3.397041   263A      3.414687   264A      3.429558  
     265A      3.437088   266A      3.467220   267A      3.469995  
     268A      3.478395   269A      3.525385   270A      3.541994  
     271A      3.552270   272A      3.552984   273A      3.578337  
     274A      3.588050   275A      3.626804   276A      3.653633  
     277A      3.678472   278A      3.692154   279A      3.702455  
     280A      3.737293   281A      3.755626   282A      3.767602  
     283A      3.787453   284A      3.808006   285A      3.827807  
     286A      3.856706   287A      3.867236   288A      3.877268  
     289A      3.889853   290A      3.903070   291A      3.922059  
     292A      3.945114   293A      3.962945   294A      3.983571  
     295A      3.996231   296A      4.035662   297A      4.040041  
     298A      4.057846   299A      4.072026   300A      4.080750  
     301A      4.106582   302A      4.117347   303A      4.126739  
     304A      4.147601   305A      4.167562   306A      4.195790  
     307A      4.205026   308A      4.221199   309A      4.231475  
     310A      4.245727   311A      4.270967   312A      4.328468  
     313A      4.350814   314A      4.355147   315A      4.386463  
     316A      4.400068   317A      4.414183   318A      4.450540  
     319A      4.453775   320A      4.496433   321A      4.512980  
     322A      4.520132   323A      4.552277   324A      4.636318  
     325A      4.642814   326A      4.683684   327A      4.725326  
     328A      4.751759   329A      4.791105   330A      4.812136  
     331A      4.856093   332A      4.872867   333A      4.876024  
     334A      4.920443   335A      4.947199   336A      4.971961  
     337A      4.983842   338A      5.006332   339A      5.027441  
     340A      5.055720   341A      5.068188   342A      5.094867  
     343A      5.115533   344A      5.124122   345A      5.136121  
     346A      5.172563   347A      5.200392   348A      5.216646  
     349A      5.228444   350A      5.318494   351A      5.368094  
     352A      5.379351   353A      5.387272   354A      5.395167  
     355A      5.421682   356A      5.444952   357A      5.501247  
     358A      5.525032   359A      5.565565   360A      5.608639  
     361A      5.634800   362A      5.743277   363A      5.778248  
     364A      5.791974   365A      5.831721   366A      5.840030  
     367A      5.881218   368A      5.899363   369A      5.951173  
     370A      6.067133   371A      6.121580   372A      6.157261  
     373A      6.196108   374A      6.266566   375A      6.372637  
     376A      6.474778   377A      6.640626   378A      6.655733  
     379A      6.660113   380A      6.701804   381A      6.788373  
     382A      6.837006   383A      7.029699   384A      7.052817  
     385A      7.385165   386A     15.399530   387A     16.122664  
     388A     18.016999   389A     18.304865   390A     18.842246  
     391A     19.026530  

    Final Occupation by Irrep:
              A 
    DOCC [    21 ]

  @DF-RHF Final Energy:  -246.77438614117608

   => Energetics <=

    Nuclear Repulsion Energy =            205.4778888018861096
    One-Electron Energy =                -739.7463306869271946
    Two-Electron Energy =                 287.4940557438649762
    Total Energy =                       -246.7743861411760804

Computation Completed

*** tstop() called on node59.bme.utexas.edu at Sun Nov  8 19:44:38 2020
Module time:
	user time   =      51.09 seconds =       0.85 minutes
	system time =       2.04 seconds =       0.03 minutes
	total time  =          8 seconds =       0.13 minutes
Total time:
	user time   =      51.09 seconds =       0.85 minutes
	system time =       2.04 seconds =       0.03 minutes
	total time  =          8 seconds =       0.13 minutes
   => Loading Basis Set <=

    Name: (AUG-CC-PVTZ AUX)
    Role: RIFIT
    Keyword: DF_BASIS_MP2
    atoms 1              entry N          line   206 file /home/xy3866/psi4conda/share/psi4/basis/aug-cc-pvtz-ri.gbs 
    atoms 2, 4, 6, 8, 10 entry C          line   148 file /home/xy3866/psi4conda/share/psi4/basis/aug-cc-pvtz-ri.gbs 
    atoms 3, 5, 7, 9, 11 entry H          line    30 file /home/xy3866/psi4conda/share/psi4/basis/aug-cc-pvtz-ri.gbs 


*** tstart() called on node59.bme.utexas.edu
*** at Sun Nov  8 19:44:39 2020


  //>>>>>>>>>>>>>>>>>>>>>>>>>>>>>>>>>>>//
  //               DFMP2               //
  //<<<<<<<<<<<<<<<<<<<<<<<<<<<<<<<<<<<//

	 --------------------------------------------------------
	                          DF-MP2                         
	      2nd-Order Density-Fitted Moller-Plesset Theory     
	              RMP2 Wavefunction,   8 Threads             
	                                                         
	        Rob Parrish, Justin Turney, Andy Simmonett,      
	           Ed Hohenstein, and C. David Sherrill          
	 --------------------------------------------------------

   => Auxiliary Basis Set <=

  Basis Set: (AUG-CC-PVTZ AUX)
    Blend: AUG-CC-PVTZ-RI
    Number of shells: 238
    Number of basis function: 866
    Number of Cartesian functions: 1091
    Spherical Harmonics?: true
    Max angular momentum: 4

	 --------------------------------------------------------
	                 NBF =   391, NAUX =   866
	 --------------------------------------------------------
	   CLASS    FOCC     OCC    AOCC    AVIR     VIR    FVIR
	   PAIRS       0      21      21     370     370       0
	 --------------------------------------------------------

  DFHelper Memory: AOs need 1.009 GiB; user supplied 22.352 GiB. Using in-core AOs.


         ------------------------------------------------------------
                                     CPHF                           
                                  Rob Parrish                       
         ------------------------------------------------------------

  ==> Geometry <==

    Molecular point group: c1
    Full point group: C1

    Geometry (in Angstrom), charge = 0, multiplicity = 1:

       Center              X                  Y                   Z               Mass       
    ------------   -----------------  -----------------  -----------------  -----------------
         N            0.000006978044     1.398362278895     0.015167969878    14.003074004430
         C            1.145407978044     0.693112278895     0.015167969878    12.000000000000
         H            2.062069978044     1.280529278895     0.015484969878     1.007825032230
         C            1.197708978044    -0.701746721105     0.015174969878    12.000000000000
         H            2.156866978044    -1.212232721105     0.015348969878     1.007825032230
         C           -0.000007021956    -1.415784721105     0.015153969878    12.000000000000
         H           -0.000013021956    -2.503011721105     0.015333969878     1.007825032230
         C           -1.197716121956    -0.701744521105    -0.084823030122    12.000000000000
         H           -2.156877021956    -1.212214721105     0.015358969878     1.007825032230
         C           -1.145401021956     0.693124278895     0.015156969878    12.000000000000
         H           -2.062058021956     1.280549278895     0.015501969878     1.007825032230

  Nuclear repulsion =  205.477888801886110
  Reference energy  = -246.774386141176080

  ==> Basis Set <==

  Basis Set: AUG-CC-PVTZ
    Blend: AUG-CC-PVTZ
    Number of shells: 129
    Number of basis function: 391
    Number of Cartesian functions: 455
    Spherical Harmonics?: true
    Max angular momentum: 3

  ==> CGRSolver (by Rob Parrish) <==

   Number of roots    =         1
   Preconditioning    =    JACOBI
   Convergence cutoff =     1E-06
   Maximum iterations =       100

  ==> CPHFRHamiltonian (by Rob Parrish) <== 

  ==> MemDFJK: Density-Fitted J/K Matrices <==

    J tasked:                   Yes
    K tasked:                   Yes
    wK tasked:                   No
    OpenMP threads:               8
    Memory [MiB]:             22888
    Algorithm:                 Core
    Schwarz Cutoff:           1E-12
    Mask sparsity (%):       0.9118
    Fitting Condition:        1E-10

   => Auxiliary Basis Set <=

  Basis Set: (AUG-CC-PVTZ AUX)
    Blend: AUG-CC-PVTZ-JKFIT
    Number of shells: 250
    Number of basis function: 854
    Number of Cartesian functions: 1061
    Spherical Harmonics?: true
    Max angular momentum: 4

  ==> CPHF Iterations <==

  => Iterations <=

             Iter  Converged  Remaining    Residual
  CGR           1          0          1   8.964E-02
  CGR           2          0          1   3.303E-02
  CGR           3          0          1   2.084E-02
  CGR           4          0          1   8.735E-03
  CGR           5          0          1   2.618E-03
  CGR           6          0          1   6.957E-04
  CGR           7          0          1   2.227E-04
  CGR           8          0          1   7.597E-05
  CGR           9          0          1   1.583E-05
  CGR          10          0          1   5.621E-06
  CGR          11          0          1   1.224E-06
  CGR          12          1          0   5.361E-07

    CGRSolver converged.

	-----------------------------------------------------------
	 ==================> DF-MP2 Energies <==================== 
	-----------------------------------------------------------
	 Reference Energy          =    -246.7743861411760804 [Eh]
	 Singles Energy            =      -0.0000000000000000 [Eh]
	 Same-Spin Energy          =      -0.2690249323174763 [Eh]
	 Opposite-Spin Energy      =      -0.8397292413036930 [Eh]
	 Correlation Energy        =      -1.1087541736211692 [Eh]
	 Total Energy              =    -247.8831403147972594 [Eh]
	-----------------------------------------------------------
	 ================> DF-SCS-MP2 Energies <================== 
	-----------------------------------------------------------
	 SCS Same-Spin Scale       =       0.3333333333333333 [-]
	 SCS Opposite-Spin Scale   =       1.2000000000000000 [-]
	 SCS Same-Spin Energy      =      -0.0896749774391588 [Eh]
	 SCS Opposite-Spin Energy  =      -1.0076750895644315 [Eh]
	 SCS Correlation Energy    =      -1.0973500670035903 [Eh]
	 SCS Total Energy          =    -247.8717362081796693 [Eh]
	-----------------------------------------------------------



Properties will be evaluated at   0.000000,  -0.000000,   0.000000 [a0]

Properties computed using the MP2 density matrix

  Nuclear Dipole Moment: [e a0]
     X:    -0.0000      Y:    -2.2225      Z:     0.0722

  Electronic Dipole Moment: [e a0]
     X:     0.0066      Y:     1.3054      Z:    -0.0569

  Dipole Moment: [e a0]
     X:     0.0066      Y:    -0.9170      Z:     0.0152     Total:     0.9172

  Dipole Moment: [D]
     X:     0.0167      Y:    -2.3309      Z:     0.0387     Total:     2.3313


*** tstop() called on node59.bme.utexas.edu at Sun Nov  8 19:45:00 2020
Module time:
	user time   =     143.79 seconds =       2.40 minutes
	system time =       3.90 seconds =       0.07 minutes
	total time  =         21 seconds =       0.35 minutes
Total time:
	user time   =     195.77 seconds =       3.26 minutes
	system time =       6.00 seconds =       0.10 minutes
	total time  =         30 seconds =       0.50 minutes

    Psi4 stopped on: Sunday, 08 November 2020 07:45PM
    Psi4 wall time for execution: 0:00:29.55

*** Psi4 exiting successfully. Buy a developer a beer!
