151_BenzenesulfonicAcid Gaussian SP Calculation on g2-node38.bme.utexas.
Freq      RMP2-FC                                                     6-31G(d)            
Number of atoms                            I               16
Info1-9                                    I   N=           9
          27          26        1002           0           0         100
           6           2           1
Charge                                     I                0
Multiplicity                               I                1
Number of electrons                        I               82
Number of alpha electrons                  I               41
Number of beta electrons                   I               41
Number of basis functions                  I              166
Number of independent functions            I              166
Number of point charges in /Mol/           I                0
Number of translation vectors              I                0
Atomic numbers                             I   N=          16
          16           8           8           8           6           6
           6           6           6           6           1           1
           1           1           1           1
Nuclear charges                            R   N=          16
  1.60000000E+01  8.00000000E+00  8.00000000E+00  8.00000000E+00  6.00000000E+00
  6.00000000E+00  6.00000000E+00  6.00000000E+00  6.00000000E+00  6.00000000E+00
  1.00000000E+00  1.00000000E+00  1.00000000E+00  1.00000000E+00  1.00000000E+00
  1.00000000E+00
Current cartesian coordinates              R   N=          48
 -2.77024161E+00 -2.72910932E-02 -2.59882449E-01 -3.47512344E+00 -2.56536363E-01
  2.75780173E+00 -3.67323169E+00  2.45223255E+00 -1.08168927E+00 -3.58382061E+00
 -2.36376439E+00 -1.45416659E+00  5.70008469E-01 -4.17304418E-03 -1.47066612E-01
  1.85732767E+00 -2.30460615E+00 -3.14368314E-02  1.83556251E+00  2.31016845E+00
 -1.44948672E-01  4.48943538E+00 -2.26978862E+00  9.90848960E-02  4.46940372E+00
  2.30700909E+00 -2.25630072E-02  5.79297966E+00  2.68757951E-02  1.10942967E-01
  8.14859026E-01 -4.07205024E+00 -7.82473552E-02  7.75045993E-01  4.06195632E+00
 -2.83601377E-01  5.52460244E+00 -4.04154209E+00  1.84954603E-01  5.48853192E+00
  4.09015409E+00 -3.58296655E-02  7.84491036E+00  3.85689597E-02  2.06247177E-01
 -4.35498255E+00  1.31120297E+00  3.20495244E+00
Force Field                                I                0
Int Atom Types                             I   N=          16
           0           0           0           0           0           0
           0           0           0           0           0           0
           0           0           0           0
MM charges                                 R   N=          16
  0.00000000E+00  0.00000000E+00  0.00000000E+00  0.00000000E+00  0.00000000E+00
  0.00000000E+00  0.00000000E+00  0.00000000E+00  0.00000000E+00  0.00000000E+00
  0.00000000E+00  0.00000000E+00  0.00000000E+00  0.00000000E+00  0.00000000E+00
  0.00000000E+00
Integer atomic weights                     I   N=          16
          32          16          16          16          12          12
          12          12          12          12           1           1
           1           1           1           1
Real atomic weights                        R   N=          16
  3.19720718E+01  1.59949146E+01  1.59949146E+01  1.59949146E+01  1.20000000E+01
  1.20000000E+01  1.20000000E+01  1.20000000E+01  1.20000000E+01  1.20000000E+01
  1.00782504E+00  1.00782504E+00  1.00782504E+00  1.00782504E+00  1.00782504E+00
  1.00782504E+00
Atom fragment info                         I   N=          16
           0           0           0           0           0           0
           0           0           0           0           0           0
           0           0           0           0
Atom residue num                           I   N=          16
           0           0           0           0           0           0
           0           0           0           0           0           0
           0           0           0           0
Nuclear spins                              I   N=          16
           0           0           0           0           0           0
           0           0           0           0           1           1
           1           1           1           1
Nuclear ZEff                               R   N=          16
 -1.36000000E+01 -5.60000000E+00 -5.60000000E+00 -5.60000000E+00 -3.60000000E+00
 -3.60000000E+00 -3.60000000E+00 -3.60000000E+00 -3.60000000E+00 -3.60000000E+00
 -1.00000000E+00 -1.00000000E+00 -1.00000000E+00 -1.00000000E+00 -1.00000000E+00
 -1.00000000E+00
Nuclear QMom                               R   N=          16
  0.00000000E+00  0.00000000E+00  0.00000000E+00  0.00000000E+00  0.00000000E+00
  0.00000000E+00  0.00000000E+00  0.00000000E+00  0.00000000E+00  0.00000000E+00
  0.00000000E+00  0.00000000E+00  0.00000000E+00  0.00000000E+00  0.00000000E+00
  0.00000000E+00
Nuclear GFac                               R   N=          16
  0.00000000E+00  0.00000000E+00  0.00000000E+00  0.00000000E+00  0.00000000E+00
  0.00000000E+00  0.00000000E+00  0.00000000E+00  0.00000000E+00  0.00000000E+00
  2.79284600E+00  2.79284600E+00  2.79284600E+00  2.79284600E+00  2.79284600E+00
  2.79284600E+00
MicOpt                                     I   N=          16
          -1          -1          -1          -1          -1          -1
          -1          -1          -1          -1          -1          -1
          -1          -1          -1          -1
Number of contracted shells                I               53
Number of primitive shells                 I              140
Pure/Cartesian d shells                    I                1
Pure/Cartesian f shells                    I                0
Highest angular momentum                   I                2
Largest degree of contraction              I                6
Shell types                                I   N=          53
           0          -1          -1          -1           2           0
          -1          -1           2           0          -1          -1
           2           0          -1          -1           2           0
          -1          -1           2           0          -1          -1
           2           0          -1          -1           2           0
          -1          -1           2           0          -1          -1
           2           0          -1          -1           2           0
           0           0           0           0           0           0
           0           0           0           0           0
Number of primitives per shell             I   N=          53
           6           6           3           1           1           6
           3           1           1           6           3           1
           1           6           3           1           1           6
           3           1           1           6           3           1
           1           6           3           1           1           6
           3           1           1           6           3           1
           1           6           3           1           1           3
           1           3           1           3           1           3
           1           3           1           3           1
Shell to atom map                          I   N=          53
           1           1           1           1           1           2
           2           2           2           3           3           3
           3           4           4           4           4           5
           5           5           5           6           6           6
           6           7           7           7           7           8
           8           8           8           9           9           9
           9          10          10          10          10          11
          11          12          12          13          13          14
          14          15          15          16          16
Primitive exponents                        R   N=         140
  2.19171000E+04  3.30149000E+03  7.54146000E+02  2.12711000E+02  6.79896000E+01
  2.30515000E+01  4.23735000E+02  1.00710000E+02  3.21599000E+01  1.18079000E+01
  4.63110000E+00  1.87025000E+00  2.61584000E+00  9.22167000E-01  3.41287000E-01
  1.17167000E-01  6.50000000E-01  5.48467166E+03  8.25234946E+02  1.88046958E+02
  5.29645000E+01  1.68975704E+01  5.79963534E+00  1.55396162E+01  3.59993359E+00
  1.01376175E+00  2.70005823E-01  8.00000000E-01  5.48467166E+03  8.25234946E+02
  1.88046958E+02  5.29645000E+01  1.68975704E+01  5.79963534E+00  1.55396162E+01
  3.59993359E+00  1.01376175E+00  2.70005823E-01  8.00000000E-01  5.48467166E+03
  8.25234946E+02  1.88046958E+02  5.29645000E+01  1.68975704E+01  5.79963534E+00
  1.55396162E+01  3.59993359E+00  1.01376175E+00  2.70005823E-01  8.00000000E-01
  3.04752488E+03  4.57369518E+02  1.03948685E+02  2.92101553E+01  9.28666296E+00
  3.16392696E+00  7.86827235E+00  1.88128854E+00  5.44249258E-01  1.68714478E-01
  8.00000000E-01  3.04752488E+03  4.57369518E+02  1.03948685E+02  2.92101553E+01
  9.28666296E+00  3.16392696E+00  7.86827235E+00  1.88128854E+00  5.44249258E-01
  1.68714478E-01  8.00000000E-01  3.04752488E+03  4.57369518E+02  1.03948685E+02
  2.92101553E+01  9.28666296E+00  3.16392696E+00  7.86827235E+00  1.88128854E+00
  5.44249258E-01  1.68714478E-01  8.00000000E-01  3.04752488E+03  4.57369518E+02
  1.03948685E+02  2.92101553E+01  9.28666296E+00  3.16392696E+00  7.86827235E+00
  1.88128854E+00  5.44249258E-01  1.68714478E-01  8.00000000E-01  3.04752488E+03
  4.57369518E+02  1.03948685E+02  2.92101553E+01  9.28666296E+00  3.16392696E+00
  7.86827235E+00  1.88128854E+00  5.44249258E-01  1.68714478E-01  8.00000000E-01
  3.04752488E+03  4.57369518E+02  1.03948685E+02  2.92101553E+01  9.28666296E+00
  3.16392696E+00  7.86827235E+00  1.88128854E+00  5.44249258E-01  1.68714478E-01
  8.00000000E-01  1.87311370E+01  2.82539436E+00  6.40121692E-01  1.61277759E-01
  1.87311370E+01  2.82539436E+00  6.40121692E-01  1.61277759E-01  1.87311370E+01
  2.82539436E+00  6.40121692E-01  1.61277759E-01  1.87311370E+01  2.82539436E+00
  6.40121692E-01  1.61277759E-01  1.87311370E+01  2.82539436E+00  6.40121692E-01
  1.61277759E-01  1.87311370E+01  2.82539436E+00  6.40121692E-01  1.61277759E-01
Contraction coefficients                   R   N=         140
  1.86924085E-03  1.42303065E-02  6.96962317E-02  2.38487108E-01  4.83307220E-01
  3.38074154E-01 -2.37677050E-03 -3.16930067E-02 -1.13317024E-01  5.60900118E-02
  5.92255124E-01  4.55006095E-01 -2.50373114E-01  6.69567631E-02  1.05450627E+00
  1.00000000E+00  1.00000000E+00  1.83107443E-03  1.39501722E-02  6.84450781E-02
  2.32714336E-01  4.70192898E-01  3.58520853E-01 -1.10777550E-01 -1.48026263E-01
  1.13076702E+00  1.00000000E+00  1.00000000E+00  1.83107443E-03  1.39501722E-02
  6.84450781E-02  2.32714336E-01  4.70192898E-01  3.58520853E-01 -1.10777550E-01
 -1.48026263E-01  1.13076702E+00  1.00000000E+00  1.00000000E+00  1.83107443E-03
  1.39501722E-02  6.84450781E-02  2.32714336E-01  4.70192898E-01  3.58520853E-01
 -1.10777550E-01 -1.48026263E-01  1.13076702E+00  1.00000000E+00  1.00000000E+00
  1.83473713E-03  1.40373228E-02  6.88426223E-02  2.32184443E-01  4.67941348E-01
  3.62311985E-01 -1.19332420E-01 -1.60854152E-01  1.14345644E+00  1.00000000E+00
  1.00000000E+00  1.83473713E-03  1.40373228E-02  6.88426223E-02  2.32184443E-01
  4.67941348E-01  3.62311985E-01 -1.19332420E-01 -1.60854152E-01  1.14345644E+00
  1.00000000E+00  1.00000000E+00  1.83473713E-03  1.40373228E-02  6.88426223E-02
  2.32184443E-01  4.67941348E-01  3.62311985E-01 -1.19332420E-01 -1.60854152E-01
  1.14345644E+00  1.00000000E+00  1.00000000E+00  1.83473713E-03  1.40373228E-02
  6.88426223E-02  2.32184443E-01  4.67941348E-01  3.62311985E-01 -1.19332420E-01
 -1.60854152E-01  1.14345644E+00  1.00000000E+00  1.00000000E+00  1.83473713E-03
  1.40373228E-02  6.88426223E-02  2.32184443E-01  4.67941348E-01  3.62311985E-01
 -1.19332420E-01 -1.60854152E-01  1.14345644E+00  1.00000000E+00  1.00000000E+00
  1.83473713E-03  1.40373228E-02  6.88426223E-02  2.32184443E-01  4.67941348E-01
  3.62311985E-01 -1.19332420E-01 -1.60854152E-01  1.14345644E+00  1.00000000E+00
  1.00000000E+00  3.34946043E-02  2.34726953E-01  8.13757326E-01  1.00000000E+00
  3.34946043E-02  2.34726953E-01  8.13757326E-01  1.00000000E+00  3.34946043E-02
  2.34726953E-01  8.13757326E-01  1.00000000E+00  3.34946043E-02  2.34726953E-01
  8.13757326E-01  1.00000000E+00  3.34946043E-02  2.34726953E-01  8.13757326E-01
  1.00000000E+00  3.34946043E-02  2.34726953E-01  8.13757326E-01  1.00000000E+00
P(S=P) Contraction coefficients            R   N=         140
  0.00000000E+00  0.00000000E+00  0.00000000E+00  0.00000000E+00  0.00000000E+00
  0.00000000E+00  4.06100998E-03  3.06812999E-02  1.30451999E-01  3.27204999E-01
  4.52850998E-01  2.56041999E-01 -1.45104895E-02  3.10262776E-01  7.54482456E-01
  1.00000000E+00  0.00000000E+00  0.00000000E+00  0.00000000E+00  0.00000000E+00
  0.00000000E+00  0.00000000E+00  0.00000000E+00  7.08742682E-02  3.39752839E-01
  7.27158577E-01  1.00000000E+00  0.00000000E+00  0.00000000E+00  0.00000000E+00
  0.00000000E+00  0.00000000E+00  0.00000000E+00  0.00000000E+00  7.08742682E-02
  3.39752839E-01  7.27158577E-01  1.00000000E+00  0.00000000E+00  0.00000000E+00
  0.00000000E+00  0.00000000E+00  0.00000000E+00  0.00000000E+00  0.00000000E+00
  7.08742682E-02  3.39752839E-01  7.27158577E-01  1.00000000E+00  0.00000000E+00
  0.00000000E+00  0.00000000E+00  0.00000000E+00  0.00000000E+00  0.00000000E+00
  0.00000000E+00  6.89990666E-02  3.16423961E-01  7.44308291E-01  1.00000000E+00
  0.00000000E+00  0.00000000E+00  0.00000000E+00  0.00000000E+00  0.00000000E+00
  0.00000000E+00  0.00000000E+00  6.89990666E-02  3.16423961E-01  7.44308291E-01
  1.00000000E+00  0.00000000E+00  0.00000000E+00  0.00000000E+00  0.00000000E+00
  0.00000000E+00  0.00000000E+00  0.00000000E+00  6.89990666E-02  3.16423961E-01
  7.44308291E-01  1.00000000E+00  0.00000000E+00  0.00000000E+00  0.00000000E+00
  0.00000000E+00  0.00000000E+00  0.00000000E+00  0.00000000E+00  6.89990666E-02
  3.16423961E-01  7.44308291E-01  1.00000000E+00  0.00000000E+00  0.00000000E+00
  0.00000000E+00  0.00000000E+00  0.00000000E+00  0.00000000E+00  0.00000000E+00
  6.89990666E-02  3.16423961E-01  7.44308291E-01  1.00000000E+00  0.00000000E+00
  0.00000000E+00  0.00000000E+00  0.00000000E+00  0.00000000E+00  0.00000000E+00
  0.00000000E+00  6.89990666E-02  3.16423961E-01  7.44308291E-01  1.00000000E+00
  0.00000000E+00  0.00000000E+00  0.00000000E+00  0.00000000E+00  0.00000000E+00
  0.00000000E+00  0.00000000E+00  0.00000000E+00  0.00000000E+00  0.00000000E+00
  0.00000000E+00  0.00000000E+00  0.00000000E+00  0.00000000E+00  0.00000000E+00
  0.00000000E+00  0.00000000E+00  0.00000000E+00  0.00000000E+00  0.00000000E+00
  0.00000000E+00  0.00000000E+00  0.00000000E+00  0.00000000E+00  0.00000000E+00
Coordinates of each shell                  R   N=         159
 -2.77024161E+00 -2.72910932E-02 -2.59882449E-01 -2.77024161E+00 -2.72910932E-02
 -2.59882449E-01 -2.77024161E+00 -2.72910932E-02 -2.59882449E-01 -2.77024161E+00
 -2.72910932E-02 -2.59882449E-01 -2.77024161E+00 -2.72910932E-02 -2.59882449E-01
 -3.47512344E+00 -2.56536363E-01  2.75780173E+00 -3.47512344E+00 -2.56536363E-01
  2.75780173E+00 -3.47512344E+00 -2.56536363E-01  2.75780173E+00 -3.47512344E+00
 -2.56536363E-01  2.75780173E+00 -3.67323169E+00  2.45223255E+00 -1.08168927E+00
 -3.67323169E+00  2.45223255E+00 -1.08168927E+00 -3.67323169E+00  2.45223255E+00
 -1.08168927E+00 -3.67323169E+00  2.45223255E+00 -1.08168927E+00 -3.58382061E+00
 -2.36376439E+00 -1.45416659E+00 -3.58382061E+00 -2.36376439E+00 -1.45416659E+00
 -3.58382061E+00 -2.36376439E+00 -1.45416659E+00 -3.58382061E+00 -2.36376439E+00
 -1.45416659E+00  5.70008469E-01 -4.17304418E-03 -1.47066612E-01  5.70008469E-01
 -4.17304418E-03 -1.47066612E-01  5.70008469E-01 -4.17304418E-03 -1.47066612E-01
  5.70008469E-01 -4.17304418E-03 -1.47066612E-01  1.85732767E+00 -2.30460615E+00
 -3.14368314E-02  1.85732767E+00 -2.30460615E+00 -3.14368314E-02  1.85732767E+00
 -2.30460615E+00 -3.14368314E-02  1.85732767E+00 -2.30460615E+00 -3.14368314E-02
  1.83556251E+00  2.31016845E+00 -1.44948672E-01  1.83556251E+00  2.31016845E+00
 -1.44948672E-01  1.83556251E+00  2.31016845E+00 -1.44948672E-01  1.83556251E+00
  2.31016845E+00 -1.44948672E-01  4.48943538E+00 -2.26978862E+00  9.90848960E-02
  4.48943538E+00 -2.26978862E+00  9.90848960E-02  4.48943538E+00 -2.26978862E+00
  9.90848960E-02  4.48943538E+00 -2.26978862E+00  9.90848960E-02  4.46940372E+00
  2.30700909E+00 -2.25630072E-02  4.46940372E+00  2.30700909E+00 -2.25630072E-02
  4.46940372E+00  2.30700909E+00 -2.25630072E-02  4.46940372E+00  2.30700909E+00
 -2.25630072E-02  5.79297966E+00  2.68757951E-02  1.10942967E-01  5.79297966E+00
  2.68757951E-02  1.10942967E-01  5.79297966E+00  2.68757951E-02  1.10942967E-01
  5.79297966E+00  2.68757951E-02  1.10942967E-01  8.14859026E-01 -4.07205024E+00
 -7.82473552E-02  8.14859026E-01 -4.07205024E+00 -7.82473552E-02  7.75045993E-01
  4.06195632E+00 -2.83601377E-01  7.75045993E-01  4.06195632E+00 -2.83601377E-01
  5.52460244E+00 -4.04154209E+00  1.84954603E-01  5.52460244E+00 -4.04154209E+00
  1.84954603E-01  5.48853192E+00  4.09015409E+00 -3.58296655E-02  5.48853192E+00
  4.09015409E+00 -3.58296655E-02  7.84491036E+00  3.85689597E-02  2.06247177E-01
  7.84491036E+00  3.85689597E-02  2.06247177E-01 -4.35498255E+00  1.31120297E+00
  3.20495244E+00 -4.35498255E+00  1.31120297E+00  3.20495244E+00
Constraint Structure                       R   N=          48
 -2.77024161E+00 -2.72910932E-02 -2.59882449E-01 -3.47512344E+00 -2.56536363E-01
  2.75780173E+00 -3.67323169E+00  2.45223255E+00 -1.08168927E+00 -3.58382061E+00
 -2.36376439E+00 -1.45416659E+00  5.70008469E-01 -4.17304418E-03 -1.47066612E-01
  1.85732767E+00 -2.30460615E+00 -3.14368314E-02  1.83556251E+00  2.31016845E+00
 -1.44948672E-01  4.48943538E+00 -2.26978862E+00  9.90848960E-02  4.46940372E+00
  2.30700909E+00 -2.25630072E-02  5.79297966E+00  2.68757951E-02  1.10942967E-01
  8.14859026E-01 -4.07205024E+00 -7.82473552E-02  7.75045993E-01  4.06195632E+00
 -2.83601377E-01  5.52460244E+00 -4.04154209E+00  1.84954603E-01  5.48853192E+00
  4.09015409E+00 -3.58296655E-02  7.84491036E+00  3.85689597E-02  2.06247177E-01
 -4.35498255E+00  1.31120297E+00  3.20495244E+00
Num ILSW                                   I              100
ILSW                                       I   N=         100
           0           1           0           0           2           0
           0           0           0           0           0          -1
           0           0           0           0           0           0
           0           0           0           0           1           0
           1           0           0           0           0           0
           0           0      100000           0          -1           0
           0           0           0           0           0           0
           0           0           0           1           1           0
           0           0           1           0           0           0
           0           0           4          40           0           0
           0           0           0           0           0           0
           0           0           0           0           0           0
           0           0           0           0           0           0
           0           0           0           0           0           0
           0           0           0           0           0           0
           0           0           0           0           0           0
           0           0           0           0
Num RLSW                                   I               40
RLSW                                       R   N=          40
  1.00000000E+00  1.00000000E+00  1.00000000E+00  1.00000000E+00  1.00000000E+00
  0.00000000E+00  0.00000000E+00  1.00000000E+00  0.00000000E+00  0.00000000E+00
  0.00000000E+00  0.00000000E+00  1.00000000E+00  0.00000000E+00  0.00000000E+00
  0.00000000E+00  0.00000000E+00  1.00000000E+00  0.00000000E+00  0.00000000E+00
  0.00000000E+00  0.00000000E+00  1.00000000E+00  0.00000000E+00  0.00000000E+00
  0.00000000E+00  0.00000000E+00  1.00000000E+00  0.00000000E+00  0.00000000E+00
  0.00000000E+00  0.00000000E+00  0.00000000E+00  0.00000000E+00  0.00000000E+00
  0.00000000E+00  0.00000000E+00  0.00000000E+00  1.00000000E+00  1.00000000E+00
MxBond                                     I                4
NBond                                      I   N=          16
           4           2           1           1           3           3
           3           3           3           3           1           1
           1           1           1           1
IBond                                      I   N=          64
           2           3           4           5           1          16
           0           0           1           0           0           0
           1           0           0           0           1           6
           7           0           5           8          11           0
           5           9          12           0           6          10
          13           0           7          10          14           0
           8           9          15           0           6           0
           0           0           7           0           0           0
           8           0           0           0           9           0
           0           0          10           0           0           0
           2           0           0           0
RBond                                      R   N=          64
  1.00000000E+00  2.00000000E+00  2.00000000E+00  1.00000000E+00  1.00000000E+00
  1.00000000E+00  0.00000000E+00  0.00000000E+00  2.00000000E+00  0.00000000E+00
  0.00000000E+00  0.00000000E+00  2.00000000E+00  0.00000000E+00  0.00000000E+00
  0.00000000E+00  1.00000000E+00  1.50000000E+00  1.50000000E+00  0.00000000E+00
  1.50000000E+00  1.50000000E+00  1.00000000E+00  0.00000000E+00  1.50000000E+00
  1.50000000E+00  1.00000000E+00  0.00000000E+00  1.50000000E+00  1.50000000E+00
  1.00000000E+00  0.00000000E+00  1.50000000E+00  1.50000000E+00  1.00000000E+00
  0.00000000E+00  1.50000000E+00  1.50000000E+00  1.00000000E+00  0.00000000E+00
  1.00000000E+00  0.00000000E+00  0.00000000E+00  0.00000000E+00  1.00000000E+00
  0.00000000E+00  0.00000000E+00  0.00000000E+00  1.00000000E+00  0.00000000E+00
  0.00000000E+00  0.00000000E+00  1.00000000E+00  0.00000000E+00  0.00000000E+00
  0.00000000E+00  1.00000000E+00  0.00000000E+00  0.00000000E+00  0.00000000E+00
  1.00000000E+00  0.00000000E+00  0.00000000E+00  0.00000000E+00
Virial Ratio                               R      2.002264380552793E+00
SCF Energy                                 R     -8.527186176181496E+02
MP2 Energy                                 R     -8.541632373326196E+02
Total Energy                               R     -8.541632373326196E+02
Post-SCF wavefunction norm                 R      1.725592877837979E+00
RMS Force                                  R      2.980905239480117E-08
RMS Density                                R      3.395449883532671E-09
External E-field                           R   N=          35
  0.00000000E+00  0.00000000E+00  0.00000000E+00  0.00000000E+00  0.00000000E+00
  0.00000000E+00  0.00000000E+00  0.00000000E+00  0.00000000E+00  0.00000000E+00
  0.00000000E+00  0.00000000E+00  0.00000000E+00  0.00000000E+00  0.00000000E+00
  0.00000000E+00  0.00000000E+00  0.00000000E+00  0.00000000E+00  0.00000000E+00
  0.00000000E+00  0.00000000E+00  0.00000000E+00  0.00000000E+00  0.00000000E+00
  0.00000000E+00  0.00000000E+00  0.00000000E+00  0.00000000E+00  0.00000000E+00
  0.00000000E+00  0.00000000E+00  0.00000000E+00  0.00000000E+00  0.00000000E+00
IOpCl                                      I                0
IROHF                                      I                0
Alpha Orbital Energies                     R   N=         166
 -9.22424178E+01 -2.06405733E+01 -2.05785743E+01 -2.05734081E+01 -1.12916715E+01
 -1.12770948E+01 -1.12763228E+01 -1.12717927E+01 -1.12649405E+01 -1.12645079E+01
 -9.21072227E+00 -6.89715684E+00 -6.89645017E+00 -6.89544853E+00 -1.50064760E+00
 -1.38378986E+00 -1.35724947E+00 -1.18589093E+00 -1.06558735E+00 -1.04583401E+00
 -9.28959980E-01 -8.58523680E-01 -8.31175848E-01 -7.58703170E-01 -7.34418131E-01
 -6.96049314E-01 -6.82669216E-01 -6.57267641E-01 -6.44423446E-01 -6.26428880E-01
 -6.18412569E-01 -5.77094547E-01 -5.49774209E-01 -5.33287839E-01 -5.25877974E-01
 -5.16303653E-01 -5.03869402E-01 -4.82877867E-01 -4.76255609E-01 -3.71926305E-01
 -3.62149535E-01  8.70891373E-02  1.14495831E-01  1.95065664E-01  2.18350825E-01
  2.60778103E-01  2.69159810E-01  2.74609999E-01  2.85301814E-01  2.92395626E-01
  3.15745389E-01  3.24594004E-01  3.40102872E-01  3.47301397E-01  4.24387041E-01
  4.46004283E-01  4.57714309E-01  4.70278023E-01  5.13720013E-01  5.38489813E-01
  5.54724454E-01  6.19229941E-01  6.89384183E-01  7.04397559E-01  7.34275377E-01
  7.59770706E-01  7.83092014E-01  7.86809270E-01  7.98625108E-01  8.10737236E-01
  8.14478067E-01  8.19522810E-01  8.34133041E-01  8.54082534E-01  8.78434250E-01
  9.32724307E-01  9.69970353E-01  9.94218504E-01  1.01574582E+00  1.02571144E+00
  1.04521985E+00  1.05670176E+00  1.08153454E+00  1.08657785E+00  1.08872369E+00
  1.12722316E+00  1.13466701E+00  1.16099881E+00  1.18330539E+00  1.20410681E+00
  1.20963403E+00  1.21803026E+00  1.23536053E+00  1.28217989E+00  1.29087634E+00
  1.31848930E+00  1.34404325E+00  1.38996739E+00  1.39342669E+00  1.41020040E+00
  1.42728235E+00  1.46338927E+00  1.47671510E+00  1.49697604E+00  1.51751732E+00
  1.55688994E+00  1.62420931E+00  1.66140537E+00  1.67042428E+00  1.70641247E+00
  1.72275379E+00  1.73519971E+00  1.75724620E+00  1.80382967E+00  1.82268211E+00
  1.89016781E+00  2.00630130E+00  2.04032822E+00  2.04537751E+00  2.07351902E+00
  2.08061673E+00  2.09298676E+00  2.10815747E+00  2.14269809E+00  2.15027149E+00
  2.18033990E+00  2.20177433E+00  2.26029942E+00  2.27413316E+00  2.27787122E+00
  2.37269092E+00  2.38967429E+00  2.40864850E+00  2.42907020E+00  2.43523196E+00
  2.44367888E+00  2.44861359E+00  2.52976926E+00  2.58012700E+00  2.59558552E+00
  2.60277773E+00  2.62638398E+00  2.70169645E+00  2.81209985E+00  2.87190617E+00
  2.89151480E+00  2.95893433E+00  3.00202694E+00  3.04381789E+00  3.07097433E+00
  3.07369567E+00  3.07885018E+00  3.12873360E+00  3.18563988E+00  3.37479708E+00
  3.72959646E+00  4.10606326E+00  4.28325950E+00  4.36188522E+00  4.41948987E+00
  4.48702200E+00  4.51064817E+00  4.55376421E+00  4.72213483E+00  4.74713354E+00
  5.06576790E+00
Alpha MO coefficients                      R   N=       27556
  9.96270779E-01  1.42016632E-02  1.86271316E-06  2.12987261E-06  2.60314817E-05
 -1.99369156E-02 -9.22706009E-05 -1.46255098E-05 -1.52151795E-05  1.34983294E-03
 -5.68498612E-06  2.79268324E-05  8.47456454E-05  6.85259471E-03  6.89920265E-03
  6.89544990E-03  2.43518553E-06  4.15502030E-06 -8.95495857E-06 -3.75406463E-06
 -2.74505608E-06  2.06769119E-05 -1.49236619E-05 -8.20497645E-06  3.80997272E-04
 -5.35596979E-05  1.15158331E-04 -1.96608692E-04 -2.69316127E-05  1.52233978E-05
 -1.07457892E-04 -2.96515105E-05  2.64822888E-05  2.07872667E-05  2.83457040E-06
 -3.53123279E-05 -3.17170666E-05  9.17280884E-05 -2.70923478E-05  4.78799691E-04
  9.00916793E-05 -3.06760232E-04  8.46699321E-05 -2.03705840E-05 -1.23182708E-04
 -1.27963564E-05  6.11464338E-05 -2.07375631E-05  5.13753837E-05  2.76014494E-06
 -4.01672772E-05 -2.90892255E-05 -9.19155953E-05 -4.46788279E-05  5.03463562E-04
  7.81510028E-05  2.94112724E-04  1.33911493E-04 -1.75061160E-05 -1.09479656E-04
 -2.77185705E-05 -5.43783897E-05 -2.67682886E-05 -7.22144925E-05  6.07710061E-06
  7.76803328E-05  3.76185721E-06  2.50327266E-06  3.79960606E-06 -6.98752422E-05
 -9.30691533E-04 -3.01804807E-05 -6.27953185E-05 -4.64517937E-05  3.66607663E-05
 -1.48988154E-05 -2.86513645E-06 -7.09738884E-07 -2.12352864E-06 -3.45706017E-06
 -8.86521892E-06  1.16134158E-07 -1.57351393E-06 -2.23144977E-06  4.04700758E-04
  4.02380375E-04  2.48578431E-04  2.41145810E-05 -2.60675911E-05  1.12927240E-05
 -1.68405078E-05  3.05350675E-05 -1.43682402E-06  1.28262182E-06 -4.11043525E-06
 -1.36171144E-05 -4.27708605E-06  1.08161452E-06  8.27612786E-08  4.75064807E-04
  4.36894132E-04 -2.67239045E-04  3.15696860E-05 -2.25556116E-05  1.05091494E-05
 -1.78008966E-05 -3.04571679E-05 -2.04652725E-07 -2.71268280E-06 -1.86255822E-06
 -1.80118980E-06  1.71866963E-05 -1.16412693E-05  1.84214674E-06 -3.81594217E-04
  1.17372635E-04 -1.82286494E-05  1.75375776E-06 -2.41361026E-06 -4.18402200E-06
 -1.03977471E-05  3.67112620E-06  8.01530266E-07 -7.93202006E-08 -1.12225878E-06
  2.25757344E-06  1.87492651E-05  1.06913944E-05  7.06469529E-07 -4.24502332E-04
  1.47069884E-04  3.25930238E-05  4.31962790E-06 -4.05263964E-06 -3.39102773E-06
 -8.69222381E-06 -4.08288825E-06  3.13765772E-07 -2.69805518E-07 -3.42052980E-06
 -1.27766454E-05  1.11717583E-05  1.20867340E-06  2.02309860E-07  1.16851951E-04
 -1.24133486E-04 -4.48915740E-06 -3.74738403E-06 -5.92215480E-06 -7.03633725E-07
 -9.61371465E-06 -2.05547284E-07  6.22690402E-08 -4.20359648E-07  2.64478458E-05
  8.94571415E-05  2.91206006E-05  9.37723947E-05  7.57710877E-06  1.70001271E-05
  6.99441221E-06  9.87692357E-06  7.46101400E-06  3.83746580E-05 -7.35352044E-05
 -1.50364977E-04  8.12782175E-06 -2.97849506E-05  1.85975586E-05  6.61674906E-06
 -7.81861734E-05  8.23433115E-05 -7.86263090E-05 -2.33812159E-05  3.72965769E-04
 -6.24883962E-04 -2.57060090E-04  8.04000625E-04 -1.98247509E-04  4.47080051E-06
 -2.85344871E-05  2.95910607E-04 -1.54293409E-05 -9.76911425E-05 -2.17271888E-05