33637                                                                   
Freq      RMP2-FC                                                     6-31G(d)            
Number of atoms                            I               19
Info1-9                                    I   N=           9
          31          29        1002           0           0         100
           6           2           1
Charge                                     I                0
Multiplicity                               I                1
Number of electrons                        I               66
Number of alpha electrons                  I               33
Number of beta electrons                   I               33
Number of basis functions                  I              155
Number of independent functions            I              155
Number of point charges in /Mol/           I                0
Number of translation vectors              I                0
Atomic numbers                             I   N=          19
           8           6           6           6           6           6
           6           6           6           1           1           1
           1           1           1           1           1           1
           1
Nuclear charges                            R   N=          19
  8.00000000E+00  6.00000000E+00  6.00000000E+00  6.00000000E+00  6.00000000E+00
  6.00000000E+00  6.00000000E+00  6.00000000E+00  6.00000000E+00  1.00000000E+00
  1.00000000E+00  1.00000000E+00  1.00000000E+00  1.00000000E+00  1.00000000E+00
  1.00000000E+00  1.00000000E+00  1.00000000E+00  1.00000000E+00
Current cartesian coordinates              R   N=          57
  3.32079918E+00  5.78211112E-01  3.42714509E-05 -9.16682636E-01  1.84041214E+00
 -2.18914991E-05  8.32551681E-01 -1.66136079E-01  8.36588264E-06 -3.48533605E+00
  1.25000974E+00 -3.35524395E-05  2.34797789E-02 -2.68023078E+00  1.22528120E-05
  2.86158291E-02  4.51862114E+00 -1.52191965E-05 -4.32753751E+00 -1.25519549E+00
 -2.66894378E-05 -2.56727041E+00 -3.20968401E+00 -4.44288584E-06  5.17397110E+00
 -1.37313191E+00  3.43845487E-05 -4.85240528E+00  2.78782691E+00 -5.62636986E-05
  1.36589611E+00 -4.22952004E+00  3.06264581E-05 -1.55600865E+00  5.84414362E+00
 -1.94859886E-04  1.20257030E+00  4.89013353E+00  1.66099696E+00  1.20287184E+00
  4.89003225E+00 -1.66083436E+00 -6.33944990E+00 -1.66852831E+00 -4.00565965E-05
 -3.19131563E+00 -5.16773421E+00  4.41479641E-07  5.02017391E+00 -2.55850120E+00
 -1.69023015E+00  5.02016631E+00 -2.55850862E+00  1.69029303E+00  6.99035681E+00
 -4.03021350E-01  4.12070026E-05
Force Field                                I                0
Int Atom Types                             I   N=          19
           0           0           0           0           0           0
           0           0           0           0           0           0
           0           0           0           0           0           0
           0
MM charges                                 R   N=          19
  0.00000000E+00  0.00000000E+00  0.00000000E+00  0.00000000E+00  0.00000000E+00
  0.00000000E+00  0.00000000E+00  0.00000000E+00  0.00000000E+00  0.00000000E+00
  0.00000000E+00  0.00000000E+00  0.00000000E+00  0.00000000E+00  0.00000000E+00
  0.00000000E+00  0.00000000E+00  0.00000000E+00  0.00000000E+00
Integer atomic weights                     I   N=          19
          16          12          12          12          12          12
          12          12          12           1           1           1
           1           1           1           1           1           1
           1
Real atomic weights                        R   N=          19
  1.59949146E+01  1.20000000E+01  1.20000000E+01  1.20000000E+01  1.20000000E+01
  1.20000000E+01  1.20000000E+01  1.20000000E+01  1.20000000E+01  1.00782504E+00
  1.00782504E+00  1.00782504E+00  1.00782504E+00  1.00782504E+00  1.00782504E+00
  1.00782504E+00  1.00782504E+00  1.00782504E+00  1.00782504E+00
Atom fragment info                         I   N=          19
           0           0           0           0           0           0
           0           0           0           0           0           0
           0           0           0           0           0           0
           0
Atom residue num                           I   N=          19
           0           0           0           0           0           0
           0           0           0           0           0           0
           0           0           0           0           0           0
           0
Nuclear spins                              I   N=          19
           0           0           0           0           0           0
           0           0           0           1           1           1
           1           1           1           1           1           1
           1
Nuclear ZEff                               R   N=          19
 -5.60000000E+00 -3.60000000E+00 -3.60000000E+00 -3.60000000E+00 -3.60000000E+00
 -3.60000000E+00 -3.60000000E+00 -3.60000000E+00 -3.60000000E+00 -1.00000000E+00
 -1.00000000E+00 -1.00000000E+00 -1.00000000E+00 -1.00000000E+00 -1.00000000E+00
 -1.00000000E+00 -1.00000000E+00 -1.00000000E+00 -1.00000000E+00
Nuclear QMom                               R   N=          19
  0.00000000E+00  0.00000000E+00  0.00000000E+00  0.00000000E+00  0.00000000E+00
  0.00000000E+00  0.00000000E+00  0.00000000E+00  0.00000000E+00  0.00000000E+00
  0.00000000E+00  0.00000000E+00  0.00000000E+00  0.00000000E+00  0.00000000E+00
  0.00000000E+00  0.00000000E+00  0.00000000E+00  0.00000000E+00
Nuclear GFac                               R   N=          19
  0.00000000E+00  0.00000000E+00  0.00000000E+00  0.00000000E+00  0.00000000E+00
  0.00000000E+00  0.00000000E+00  0.00000000E+00  0.00000000E+00  2.79284600E+00
  2.79284600E+00  2.79284600E+00  2.79284600E+00  2.79284600E+00  2.79284600E+00
  2.79284600E+00  2.79284600E+00  2.79284600E+00  2.79284600E+00
MicOpt                                     I   N=          19
          -1          -1          -1          -1          -1          -1
          -1          -1          -1          -1          -1          -1
          -1          -1          -1          -1          -1          -1
          -1
Number of contracted shells                I               56
Number of primitive shells                 I              139
Pure/Cartesian d shells                    I                1
Pure/Cartesian f shells                    I                0
Highest angular momentum                   I                2
Largest degree of contraction              I                6
Shell types                                I   N=          56
           0          -1          -1           2           0          -1
          -1           2           0          -1          -1           2
           0          -1          -1           2           0          -1
          -1           2           0          -1          -1           2
           0          -1          -1           2           0          -1
          -1           2           0          -1          -1           2
           0           0           0           0           0           0
           0           0           0           0           0           0
           0           0           0           0           0           0
           0           0
Number of primitives per shell             I   N=          56
           6           3           1           1           6           3
           1           1           6           3           1           1
           6           3           1           1           6           3
           1           1           6           3           1           1
           6           3           1           1           6           3
           1           1           6           3           1           1
           3           1           3           1           3           1
           3           1           3           1           3           1
           3           1           3           1           3           1
           3           1
Shell to atom map                          I   N=          56
           1           1           1           1           2           2
           2           2           3           3           3           3
           4           4           4           4           5           5
           5           5           6           6           6           6
           7           7           7           7           8           8
           8           8           9           9           9           9
          10          10          11          11          12          12
          13          13          14          14          15          15
          16          16          17          17          18          18
          19          19
Primitive exponents                        R   N=         139
  5.48467166E+03  8.25234946E+02  1.88046958E+02  5.29645000E+01  1.68975704E+01
  5.79963534E+00  1.55396162E+01  3.59993359E+00  1.01376175E+00  2.70005823E-01
  8.00000000E-01  3.04752488E+03  4.57369518E+02  1.03948685E+02  2.92101553E+01
  9.28666296E+00  3.16392696E+00  7.86827235E+00  1.88128854E+00  5.44249258E-01
  1.68714478E-01  8.00000000E-01  3.04752488E+03  4.57369518E+02  1.03948685E+02
  2.92101553E+01  9.28666296E+00  3.16392696E+00  7.86827235E+00  1.88128854E+00
  5.44249258E-01  1.68714478E-01  8.00000000E-01  3.04752488E+03  4.57369518E+02
  1.03948685E+02  2.92101553E+01  9.28666296E+00  3.16392696E+00  7.86827235E+00
  1.88128854E+00  5.44249258E-01  1.68714478E-01  8.00000000E-01  3.04752488E+03
  4.57369518E+02  1.03948685E+02  2.92101553E+01  9.28666296E+00  3.16392696E+00
  7.86827235E+00  1.88128854E+00  5.44249258E-01  1.68714478E-01  8.00000000E-01
  3.04752488E+03  4.57369518E+02  1.03948685E+02  2.92101553E+01  9.28666296E+00
  3.16392696E+00  7.86827235E+00  1.88128854E+00  5.44249258E-01  1.68714478E-01
  8.00000000E-01  3.04752488E+03  4.57369518E+02  1.03948685E+02  2.92101553E+01
  9.28666296E+00  3.16392696E+00  7.86827235E+00  1.88128854E+00  5.44249258E-01
  1.68714478E-01  8.00000000E-01  3.04752488E+03  4.57369518E+02  1.03948685E+02
  2.92101553E+01  9.28666296E+00  3.16392696E+00  7.86827235E+00  1.88128854E+00
  5.44249258E-01  1.68714478E-01  8.00000000E-01  3.04752488E+03  4.57369518E+02
  1.03948685E+02  2.92101553E+01  9.28666296E+00  3.16392696E+00  7.86827235E+00
  1.88128854E+00  5.44249258E-01  1.68714478E-01  8.00000000E-01  1.87311370E+01
  2.82539436E+00  6.40121692E-01  1.61277759E-01  1.87311370E+01  2.82539436E+00
  6.40121692E-01  1.61277759E-01  1.87311370E+01  2.82539436E+00  6.40121692E-01
  1.61277759E-01  1.87311370E+01  2.82539436E+00  6.40121692E-01  1.61277759E-01
  1.87311370E+01  2.82539436E+00  6.40121692E-01  1.61277759E-01  1.87311370E+01
  2.82539436E+00  6.40121692E-01  1.61277759E-01  1.87311370E+01  2.82539436E+00
  6.40121692E-01  1.61277759E-01  1.87311370E+01  2.82539436E+00  6.40121692E-01
  1.61277759E-01  1.87311370E+01  2.82539436E+00  6.40121692E-01  1.61277759E-01
  1.87311370E+01  2.82539436E+00  6.40121692E-01  1.61277759E-01
Contraction coefficients                   R   N=         139
  1.83107443E-03  1.39501722E-02  6.84450781E-02  2.32714336E-01  4.70192898E-01
  3.58520853E-01 -1.10777550E-01 -1.48026263E-01  1.13076702E+00  1.00000000E+00
  1.00000000E+00  1.83473713E-03  1.40373228E-02  6.88426223E-02  2.32184443E-01
  4.67941348E-01  3.62311985E-01 -1.19332420E-01 -1.60854152E-01  1.14345644E+00
  1.00000000E+00  1.00000000E+00  1.83473713E-03  1.40373228E-02  6.88426223E-02
  2.32184443E-01  4.67941348E-01  3.62311985E-01 -1.19332420E-01 -1.60854152E-01
  1.14345644E+00  1.00000000E+00  1.00000000E+00  1.83473713E-03  1.40373228E-02
  6.88426223E-02  2.32184443E-01  4.67941348E-01  3.62311985E-01 -1.19332420E-01
 -1.60854152E-01  1.14345644E+00  1.00000000E+00  1.00000000E+00  1.83473713E-03
  1.40373228E-02  6.88426223E-02  2.32184443E-01  4.67941348E-01  3.62311985E-01
 -1.19332420E-01 -1.60854152E-01  1.14345644E+00  1.00000000E+00  1.00000000E+00
  1.83473713E-03  1.40373228E-02  6.88426223E-02  2.32184443E-01  4.67941348E-01
  3.62311985E-01 -1.19332420E-01 -1.60854152E-01  1.14345644E+00  1.00000000E+00
  1.00000000E+00  1.83473713E-03  1.40373228E-02  6.88426223E-02  2.32184443E-01
  4.67941348E-01  3.62311985E-01 -1.19332420E-01 -1.60854152E-01  1.14345644E+00
  1.00000000E+00  1.00000000E+00  1.83473713E-03  1.40373228E-02  6.88426223E-02
  2.32184443E-01  4.67941348E-01  3.62311985E-01 -1.19332420E-01 -1.60854152E-01
  1.14345644E+00  1.00000000E+00  1.00000000E+00  1.83473713E-03  1.40373228E-02
  6.88426223E-02  2.32184443E-01  4.67941348E-01  3.62311985E-01 -1.19332420E-01
 -1.60854152E-01  1.14345644E+00  1.00000000E+00  1.00000000E+00  3.34946043E-02
  2.34726953E-01  8.13757326E-01  1.00000000E+00  3.34946043E-02  2.34726953E-01
  8.13757326E-01  1.00000000E+00  3.34946043E-02  2.34726953E-01  8.13757326E-01
  1.00000000E+00  3.34946043E-02  2.34726953E-01  8.13757326E-01  1.00000000E+00
  3.34946043E-02  2.34726953E-01  8.13757326E-01  1.00000000E+00  3.34946043E-02
  2.34726953E-01  8.13757326E-01  1.00000000E+00  3.34946043E-02  2.34726953E-01
  8.13757326E-01  1.00000000E+00  3.34946043E-02  2.34726953E-01  8.13757326E-01
  1.00000000E+00  3.34946043E-02  2.34726953E-01  8.13757326E-01  1.00000000E+00
  3.34946043E-02  2.34726953E-01  8.13757326E-01  1.00000000E+00
P(S=P) Contraction coefficients            R   N=         139
  0.00000000E+00  0.00000000E+00  0.00000000E+00  0.00000000E+00  0.00000000E+00
  0.00000000E+00  7.08742682E-02  3.39752839E-01  7.27158577E-01  1.00000000E+00
  0.00000000E+00  0.00000000E+00  0.00000000E+00  0.00000000E+00  0.00000000E+00
  0.00000000E+00  0.00000000E+00  6.89990666E-02  3.16423961E-01  7.44308291E-01
  1.00000000E+00  0.00000000E+00  0.00000000E+00  0.00000000E+00  0.00000000E+00
  0.00000000E+00  0.00000000E+00  0.00000000E+00  6.89990666E-02  3.16423961E-01
  7.44308291E-01  1.00000000E+00  0.00000000E+00  0.00000000E+00  0.00000000E+00
  0.00000000E+00  0.00000000E+00  0.00000000E+00  0.00000000E+00  6.89990666E-02
  3.16423961E-01  7.44308291E-01  1.00000000E+00  0.00000000E+00  0.00000000E+00
  0.00000000E+00  0.00000000E+00  0.00000000E+00  0.00000000E+00  0.00000000E+00
  6.89990666E-02  3.16423961E-01  7.44308291E-01  1.00000000E+00  0.00000000E+00
  0.00000000E+00  0.00000000E+00  0.00000000E+00  0.00000000E+00  0.00000000E+00
  0.00000000E+00  6.89990666E-02  3.16423961E-01  7.44308291E-01  1.00000000E+00
  0.00000000E+00  0.00000000E+00  0.00000000E+00  0.00000000E+00  0.00000000E+00
  0.00000000E+00  0.00000000E+00  6.89990666E-02  3.16423961E-01  7.44308291E-01
  1.00000000E+00  0.00000000E+00  0.00000000E+00  0.00000000E+00  0.00000000E+00
  0.00000000E+00  0.00000000E+00  0.00000000E+00  6.89990666E-02  3.16423961E-01
  7.44308291E-01  1.00000000E+00  0.00000000E+00  0.00000000E+00  0.00000000E+00
  0.00000000E+00  0.00000000E+00  0.00000000E+00  0.00000000E+00  6.89990666E-02
  3.16423961E-01  7.44308291E-01  1.00000000E+00  0.00000000E+00  0.00000000E+00
  0.00000000E+00  0.00000000E+00  0.00000000E+00  0.00000000E+00  0.00000000E+00
  0.00000000E+00  0.00000000E+00  0.00000000E+00  0.00000000E+00  0.00000000E+00
  0.00000000E+00  0.00000000E+00  0.00000000E+00  0.00000000E+00  0.00000000E+00
  0.00000000E+00  0.00000000E+00  0.00000000E+00  0.00000000E+00  0.00000000E+00
  0.00000000E+00  0.00000000E+00  0.00000000E+00  0.00000000E+00  0.00000000E+00
  0.00000000E+00  0.00000000E+00  0.00000000E+00  0.00000000E+00  0.00000000E+00
  0.00000000E+00  0.00000000E+00  0.00000000E+00  0.00000000E+00  0.00000000E+00
  0.00000000E+00  0.00000000E+00  0.00000000E+00  0.00000000E+00
Coordinates of each shell                  R   N=         168
  3.32079918E+00  5.78211112E-01  3.42714509E-05  3.32079918E+00  5.78211112E-01
  3.42714509E-05  3.32079918E+00  5.78211112E-01  3.42714509E-05  3.32079918E+00
  5.78211112E-01  3.42714509E-05 -9.16682636E-01  1.84041214E+00 -2.18914991E-05
 -9.16682636E-01  1.84041214E+00 -2.18914991E-05 -9.16682636E-01  1.84041214E+00
 -2.18914991E-05 -9.16682636E-01  1.84041214E+00 -2.18914991E-05  8.32551681E-01
 -1.66136079E-01  8.36588264E-06  8.32551681E-01 -1.66136079E-01  8.36588264E-06
  8.32551681E-01 -1.66136079E-01  8.36588264E-06  8.32551681E-01 -1.66136079E-01
  8.36588264E-06 -3.48533605E+00  1.25000974E+00 -3.35524395E-05 -3.48533605E+00
  1.25000974E+00 -3.35524395E-05 -3.48533605E+00  1.25000974E+00 -3.35524395E-05
 -3.48533605E+00  1.25000974E+00 -3.35524395E-05  2.34797789E-02 -2.68023078E+00
  1.22528120E-05  2.34797789E-02 -2.68023078E+00  1.22528120E-05  2.34797789E-02
 -2.68023078E+00  1.22528120E-05  2.34797789E-02 -2.68023078E+00  1.22528120E-05
  2.86158291E-02  4.51862114E+00 -1.52191965E-05  2.86158291E-02  4.51862114E+00
 -1.52191965E-05  2.86158291E-02  4.51862114E+00 -1.52191965E-05  2.86158291E-02
  4.51862114E+00 -1.52191965E-05 -4.32753751E+00 -1.25519549E+00 -2.66894378E-05
 -4.32753751E+00 -1.25519549E+00 -2.66894378E-05 -4.32753751E+00 -1.25519549E+00
 -2.66894378E-05 -4.32753751E+00 -1.25519549E+00 -2.66894378E-05 -2.56727041E+00
 -3.20968401E+00 -4.44288584E-06 -2.56727041E+00 -3.20968401E+00 -4.44288584E-06
 -2.56727041E+00 -3.20968401E+00 -4.44288584E-06 -2.56727041E+00 -3.20968401E+00
 -4.44288584E-06  5.17397110E+00 -1.37313191E+00  3.43845487E-05  5.17397110E+00
 -1.37313191E+00  3.43845487E-05  5.17397110E+00 -1.37313191E+00  3.43845487E-05
  5.17397110E+00 -1.37313191E+00  3.43845487E-05 -4.85240528E+00  2.78782691E+00
 -5.62636986E-05 -4.85240528E+00  2.78782691E+00 -5.62636986E-05  1.36589611E+00
 -4.22952004E+00  3.06264581E-05  1.36589611E+00 -4.22952004E+00  3.06264581E-05
 -1.55600865E+00  5.84414362E+00 -1.94859886E-04 -1.55600865E+00  5.84414362E+00
 -1.94859886E-04  1.20257030E+00  4.89013353E+00  1.66099696E+00  1.20257030E+00
  4.89013353E+00  1.66099696E+00  1.20287184E+00  4.89003225E+00 -1.66083436E+00
  1.20287184E+00  4.89003225E+00 -1.66083436E+00 -6.33944990E+00 -1.66852831E+00
 -4.00565965E-05 -6.33944990E+00 -1.66852831E+00 -4.00565965E-05 -3.19131563E+00
 -5.16773421E+00  4.41479641E-07 -3.19131563E+00 -5.16773421E+00  4.41479641E-07
  5.02017391E+00 -2.55850120E+00 -1.69023015E+00  5.02017391E+00 -2.55850120E+00
 -1.69023015E+00  5.02016631E+00 -2.55850862E+00  1.69029303E+00  5.02016631E+00
 -2.55850862E+00  1.69029303E+00  6.99035681E+00 -4.03021350E-01  4.12070026E-05
  6.99035681E+00 -4.03021350E-01  4.12070026E-05
Constraint Structure                       R   N=          57
  3.32079918E+00  5.78211112E-01  3.42714509E-05 -9.16682636E-01  1.84041214E+00
 -2.18914991E-05  8.32551681E-01 -1.66136079E-01  8.36588264E-06 -3.48533605E+00
  1.25000974E+00 -3.35524395E-05  2.34797789E-02 -2.68023078E+00  1.22528120E-05
  2.86158291E-02  4.51862114E+00 -1.52191965E-05 -4.32753751E+00 -1.25519549E+00
 -2.66894378E-05 -2.56727041E+00 -3.20968401E+00 -4.44288584E-06  5.17397110E+00
 -1.37313191E+00  3.43845487E-05 -4.85240528E+00  2.78782691E+00 -5.62636986E-05
  1.36589611E+00 -4.22952004E+00  3.06264581E-05 -1.55600865E+00  5.84414362E+00
 -1.94859886E-04  1.20257030E+00  4.89013353E+00  1.66099696E+00  1.20287184E+00
  4.89003225E+00 -1.66083436E+00 -6.33944990E+00 -1.66852831E+00 -4.00565965E-05
 -3.19131563E+00 -5.16773421E+00  4.41479641E-07  5.02017391E+00 -2.55850120E+00
 -1.69023015E+00  5.02016631E+00 -2.55850862E+00  1.69029303E+00  6.99035681E+00
 -4.03021350E-01  4.12070026E-05
Num ILSW                                   I              100
ILSW                                       I   N=         100
           0           1           0           1           2           0
           0           0           0           0           0          -1
           0           0           0           0           0           0
           0           0           0           0           1           0
           1           0           0           0           0           0
           0           0      100000           0          -1           0
           0           0           0           0           0           0
           0           0           0           1           1           0
           0           0           1           0           0           0
           0           0           4          40           0           0
           0           0           0           0           0           0
           0           0           0           0           0           0
           0           0           0           0           0           0
           0           0           0           0           0           0
           0           0           0           0           0           0
           0           0           0           0           0           0
           0           0           0           0
Num RLSW                                   I               40
RLSW                                       R   N=          40
  1.00000000E+00  1.00000000E+00  1.00000000E+00  1.00000000E+00  1.00000000E+00
  0.00000000E+00  0.00000000E+00  1.00000000E+00  0.00000000E+00  0.00000000E+00
  0.00000000E+00  0.00000000E+00  1.00000000E+00  0.00000000E+00  0.00000000E+00
  0.00000000E+00  0.00000000E+00  1.00000000E+00  0.00000000E+00  0.00000000E+00
  0.00000000E+00  0.00000000E+00  1.00000000E+00  0.00000000E+00  0.00000000E+00
  0.00000000E+00  0.00000000E+00  1.00000000E+00  0.00000000E+00  0.00000000E+00
  0.00000000E+00  0.00000000E+00  0.00000000E+00  0.00000000E+00  0.00000000E+00
  0.00000000E+00  0.00000000E+00  0.00000000E+00  1.00000000E+00  1.00000000E+00
MxBond                                     I                4
NBond                                      I   N=          19
           2           3           3           3           3           4
           3           3           4           1           1           1
           1           1           1           1           1           1
           1
IBond                                      I   N=          76
           3           9           0           0           3           4
           6           0           1           2           5           0
           2           7          10           0           3           8
          11           0           2          12          13          14
           4           8          15           0           5           7
          16           0           1          17          18          19
           4           0           0           0           5           0
           0           0           6           0           0           0
           6           0           0           0           6           0
           0           0           7           0           0           0
           8           0           0           0           9           0
           0           0           9           0           0           0
           9           0           0           0
RBond                                      R   N=          76
  1.50000000E+00  1.00000000E+00  0.00000000E+00  0.00000000E+00  1.50000000E+00
  1.50000000E+00  1.00000000E+00  0.00000000E+00  1.50000000E+00  1.50000000E+00
  1.50000000E+00  0.00000000E+00  1.50000000E+00  1.50000000E+00  1.00000000E+00
  0.00000000E+00  1.50000000E+00  1.50000000E+00  1.00000000E+00  0.00000000E+00
  1.00000000E+00  1.00000000E+00  1.00000000E+00  1.00000000E+00  1.50000000E+00
  1.50000000E+00  1.00000000E+00  0.00000000E+00  1.50000000E+00  1.50000000E+00
  1.00000000E+00  0.00000000E+00  1.00000000E+00  1.00000000E+00  1.00000000E+00
  1.00000000E+00  1.00000000E+00  0.00000000E+00  0.00000000E+00  0.00000000E+00
  1.00000000E+00  0.00000000E+00  0.00000000E+00  0.00000000E+00  1.00000000E+00
  0.00000000E+00  0.00000000E+00  0.00000000E+00  1.00000000E+00  0.00000000E+00
  0.00000000E+00  0.00000000E+00  1.00000000E+00  0.00000000E+00  0.00000000E+00
  0.00000000E+00  1.00000000E+00  0.00000000E+00  0.00000000E+00  0.00000000E+00
  1.00000000E+00  0.00000000E+00  0.00000000E+00  0.00000000E+00  1.00000000E+00
  0.00000000E+00  0.00000000E+00  0.00000000E+00  1.00000000E+00  0.00000000E+00
  0.00000000E+00  0.00000000E+00  1.00000000E+00  0.00000000E+00  0.00000000E+00
  0.00000000E+00
Virial Ratio                               R      2.002108691614308E+00
SCF Energy                                 R     -3.836176755103498E+02
MP2 Energy                                 R     -3.848180509789331E+02
Total Energy                               R     -3.848180509789331E+02
Post-SCF wavefunction norm                 R      1.682536153566942E+00
RMS Force                                  R      3.675449855775449E-07
RMS Density                                R      2.646774897050898E-09
External E-field                           R   N=          35
  0.00000000E+00  0.00000000E+00  0.00000000E+00  0.00000000E+00  0.00000000E+00
  0.00000000E+00  0.00000000E+00  0.00000000E+00  0.00000000E+00  0.00000000E+00
  0.00000000E+00  0.00000000E+00  0.00000000E+00  0.00000000E+00  0.00000000E+00
  0.00000000E+00  0.00000000E+00  0.00000000E+00  0.00000000E+00  0.00000000E+00
  0.00000000E+00  0.00000000E+00  0.00000000E+00  0.00000000E+00  0.00000000E+00
  0.00000000E+00  0.00000000E+00  0.00000000E+00  0.00000000E+00  0.00000000E+00
  0.00000000E+00  0.00000000E+00  0.00000000E+00  0.00000000E+00  0.00000000E+00
IOpCl                                      I                0
IROHF                                      I                0
Alpha Orbital Energies                     R   N=         155
 -2.05867275E+01 -1.12925808E+01 -1.12843584E+01 -1.12334387E+01 -1.12313353E+01
 -1.12300315E+01 -1.12287688E+01 -1.12230651E+01 -1.12137042E+01 -1.39930863E+00
 -1.14072600E+00 -1.04056852E+00 -1.00530633E+00 -9.46010732E-01 -9.17386049E-01
 -8.08696268E-01 -7.92649959E-01 -7.04997439E-01 -6.62065945E-01 -6.49233491E-01
 -6.42556353E-01 -6.10616624E-01 -5.77186604E-01 -5.64778575E-01 -5.59583337E-01
 -5.35384261E-01 -5.17892319E-01 -5.04880241E-01 -4.92531907E-01 -4.70655476E-01
 -4.58417881E-01 -3.25620058E-01 -2.99179600E-01  1.48259811E-01  1.61594099E-01
  2.38657250E-01  2.54678349E-01  2.64369976E-01  2.97127047E-01  3.10194432E-01
  3.11918661E-01  3.22874383E-01  3.27050801E-01  3.30311946E-01  3.51155255E-01
  3.62472716E-01  3.97420666E-01  4.20481079E-01  4.50266241E-01  4.93312641E-01
  5.18944227E-01  5.43626182E-01  5.64032969E-01  6.94779569E-01  7.20400400E-01
  7.34006674E-01  7.37001509E-01  7.41442173E-01  7.59849528E-01  7.84421321E-01
  7.85806780E-01  8.30970571E-01  8.37224506E-01  8.46314296E-01  8.52100024E-01
  8.53785550E-01  8.68556927E-01  8.87089417E-01  9.25016717E-01  9.39487217E-01
  9.65589727E-01  9.78045798E-01  1.03196336E+00  1.04963547E+00  1.10352897E+00
  1.11006004E+00  1.12063510E+00  1.13160648E+00  1.13479117E+00  1.15820887E+00
  1.17009792E+00  1.18241277E+00  1.19025726E+00  1.20703332E+00  1.22571000E+00
  1.24814683E+00  1.27650262E+00  1.27910780E+00  1.30923962E+00  1.34042669E+00
  1.35666170E+00  1.37995289E+00  1.42712688E+00  1.47453554E+00  1.51322196E+00
  1.55026401E+00  1.57521461E+00  1.62728125E+00  1.65192848E+00  1.68257940E+00
  1.72492170E+00  1.73100507E+00  1.75402996E+00  1.78726826E+00  1.80793108E+00
  1.87435489E+00  1.96917958E+00  2.07321287E+00  2.10175098E+00  2.13280351E+00
  2.16454131E+00  2.16958620E+00  2.17834389E+00  2.24915244E+00  2.28022662E+00
  2.29354772E+00  2.30988440E+00  2.34737803E+00  2.40313490E+00  2.42826861E+00
  2.43687655E+00  2.45557159E+00  2.48889316E+00  2.50703213E+00  2.56008633E+00
  2.60114682E+00  2.60547593E+00  2.61855722E+00  2.64407946E+00  2.65956960E+00
  2.67940637E+00  2.74555191E+00  2.75675212E+00  2.88481400E+00  2.89890215E+00
  2.96150297E+00  3.01992226E+00  3.02255591E+00  3.06414925E+00  3.09060197E+00
  3.15706463E+00  3.20251877E+00  3.26733113E+00  3.37629801E+00  3.56943429E+00
  3.81143066E+00  4.48085321E+00  4.52548965E+00  4.54989982E+00  4.62398445E+00
  4.69734236E+00  4.74910470E+00  4.83829028E+00  4.93345295E+00  5.19218253E+00
Alpha MO coefficients                      R   N=       24025
  9.94642029E-01  2.12169133E-02 -3.51854735E-04 -1.26307959E-03 -1.24312049E-08
  4.01293221E-03 -3.96499822E-05  9.76019939E-04  4.75653967E-09 -4.20971381E-03
 -4.14394088E-03 -3.88702222E-03  6.13204810E-05 -2.45574291E-09 -2.28178826E-09
 -1.24911186E-05 -2.30772105E-05 -1.91997789E-05  2.94668174E-07 -1.18366583E-09
  1.06790193E-03  8.34001106E-04 -6.27121345E-05  2.70681254E-08 -7.84987311E-05
  2.85922083E-06 -3.44863777E-05  2.22971375E-05 -1.83034487E-11  1.79112340E-09
 -9.06672858E-06  3.33299990E-04  3.17923872E-04  1.17877965E-04  3.99876986E-09
 -1.21001294E-04  1.29992695E-04 -1.47276973E-03 -1.28877302E-09 -2.33740311E-05
 -1.59106643E-05 -6.70261962E-05  5.32023169E-07  8.65400615E-10 -6.73610871E-10
  8.97906472E-07 -3.14111155E-06  4.47083316E-06  3.12364012E-06  1.55930992E-10
  2.44163019E-04  2.15416396E-04  9.64113538E-05 -5.64400883E-09  1.71161740E-05
  1.03076673E-05  1.82205836E-07  1.68130192E-05 -1.11194840E-09  7.37938544E-11
  5.54131643E-06  7.70118403E-05 -1.65532616E-05 -2.47373945E-05 -2.61621681E-10
 -9.02867175E-04 -4.38609915E-04 -5.88962055E-04  2.13371373E-09 -5.08082259E-05
 -3.23338060E-05 -2.12506698E-06 -6.04347796E-05 -1.48965778E-10 -3.38858580E-11
  1.47932969E-05  7.71144074E-05  6.05567491E-05 -2.84798174E-05  8.92958241E-09
 -4.04590850E-04 -3.17158694E-04  4.38681702E-04 -5.54659611E-08  4.28012359E-05
 -1.08353787E-05  2.90055180E-06 -6.23813157E-06  5.82786119E-09 -2.83086992E-09
  1.26441201E-06  1.27247469E-05 -4.06126785E-06  2.43950463E-06 -9.34440213E-11
 -1.81750433E-04 -1.34552889E-04  1.51138209E-04  4.26400579E-10 -3.29288822E-06
 -1.02774207E-05  2.85306279E-06  6.41297629E-06 -3.01286041E-11  3.37953429E-10