
    -----------------------------------------------------------------------
          Psi4: An Open-Source Ab Initio Electronic Structure Package
                               Psi4 1.3.2 release

                         Git: Rev {HEAD} ecbda83 


    R. M. Parrish, L. A. Burns, D. G. A. Smith, A. C. Simmonett,
    A. E. DePrince III, E. G. Hohenstein, U. Bozkaya, A. Yu. Sokolov,
    R. Di Remigio, R. M. Richard, J. F. Gonthier, A. M. James,
    H. R. McAlexander, A. Kumar, M. Saitow, X. Wang, B. P. Pritchard,
    P. Verma, H. F. Schaefer III, K. Patkowski, R. A. King, E. F. Valeev,
    F. A. Evangelista, J. M. Turney, T. D. Crawford, and C. D. Sherrill,
    J. Chem. Theory Comput. 13(7) pp 3185--3197 (2017).
    (doi: 10.1021/acs.jctc.7b00174)


                         Additional Contributions by
    P. Kraus, H. Kruse, M. H. Lechner, M. C. Schieber, R. A. Shaw,
    A. Alenaizan, R. Galvelis, Z. L. Glick, S. Lehtola, and J. P. Misiewicz

    -----------------------------------------------------------------------


    Psi4 started on: Thursday, 05 November 2020 04:41PM

    Process ID: 46505
    Host:       node37.bme.utexas.edu
    PSIDATADIR: /home/xy3866/psi4conda/share/psi4
    Memory:     500.0 MiB
    Threads:    8
    
  ==> Input File <==

--------------------------------------------------------------------------
#psi4
#
memory 32 gb

molecule  {
0 1
  N       -1.4514230    -0.0014080    -0.4975550
  C        1.9178760    -0.2820330     0.3003480
  C        0.7301990    -1.0539890    -0.2910100
  C        1.9133330     1.1918710    -0.0951930
  C       -0.5758300    -0.5622950     0.2505430
  C       -2.5057325     0.3880915     0.0653787
  H        1.9034540    -0.3751150     1.3937850
  H        2.8483830    -0.7529800    -0.0365760
  H        0.7089260    -0.9492610    -1.3805420
  H        0.8357330    -2.1215800    -0.0558240
  H        1.9489790     1.2991200    -1.1835390
  H        1.0073910     1.6938590     0.2549320
  H        2.7765220     1.7153350     0.3260680
  H       -0.7349260    -0.6910300     1.3363860
  H       -2.7870910     1.5245690    -0.0148120
  H       -2.6927620     0.2538980     1.2378030
  H       -3.5272530    -0.0486490    -0.3125820
units angstrom
no_reorient  #important for SAPT in psi4, default
symmetry c1  #important for SAPT in psi4, default
}

set PROPERTIES_ORIGIN ["COM"]
properties('MP2/aug-cc-pvtz', properties = ['dipole'])
--------------------------------------------------------------------------

  Memory set to  29.802 GiB by Python driver.
    SCF Algorithm Type (re)set to DF.

*** tstart() called on node37.bme.utexas.edu
*** at Thu Nov  5 16:41:50 2020

   => Loading Basis Set <=

    Name: AUG-CC-PVTZ
    Role: ORBITAL
    Keyword: BASIS
    atoms 1    entry N          line   281 file /home/xy3866/psi4conda/share/psi4/basis/aug-cc-pvtz.gbs 
    atoms 2-6  entry C          line   235 file /home/xy3866/psi4conda/share/psi4/basis/aug-cc-pvtz.gbs 
    atoms 7-17 entry H          line    36 file /home/xy3866/psi4conda/share/psi4/basis/aug-cc-pvtz.gbs 


         ---------------------------------------------------------
                                   SCF
               by Justin Turney, Rob Parrish, Andy Simmonett
                          and Daniel G. A. Smith
                              RHF Reference
                        8 Threads,  30517 MiB Core
         ---------------------------------------------------------

  ==> Geometry <==

    Molecular point group: c1
    Full point group: C1

    Geometry (in Angstrom), charge = 0, multiplicity = 1:

       Center              X                  Y                   Z               Mass       
    ------------   -----------------  -----------------  -----------------  -----------------
         N           -1.448355828119     0.025383781285    -0.466656193795    14.003074004430
         C            1.920943171881    -0.255241218715     0.331246806205    12.000000000000
         C            0.733266171881    -1.027197218715    -0.260111193795    12.000000000000
         C            1.916400171881     1.218662781285    -0.064294193795    12.000000000000
         C           -0.572762828119    -0.535503218715     0.281441806205    12.000000000000
         C           -2.502665328119     0.414883281285     0.096277506205    12.000000000000
         H            1.906521171881    -0.348323218715     1.424683806205     1.007825032230
         H            2.851450171881    -0.726188218715    -0.005677193795     1.007825032230
         H            0.711993171881    -0.922469218715    -1.349643193795     1.007825032230
         H            0.838800171881    -2.094788218715    -0.024925193795     1.007825032230
         H            1.952046171881     1.325911781285    -1.152640193795     1.007825032230
         H            1.010458171881     1.720650781285     0.285830806205     1.007825032230
         H            2.779589171881     1.742126781285     0.356966806205     1.007825032230
         H           -0.731858828119    -0.664238218715     1.367284806205     1.007825032230
         H           -2.784023828119     1.551360781285     0.016086806205     1.007825032230
         H           -2.689694828119     0.280689781285     1.268701806205     1.007825032230
         H           -3.524185828119    -0.021857218715    -0.281683193795     1.007825032230

  Running in c1 symmetry.

  Rotational constants: A =      0.24575  B =      0.06186  C =      0.05424 [cm^-1]
  Rotational constants: A =   7367.51299  B =   1854.44044  C =   1626.11152 [MHz]
  Nuclear repulsion =  238.701835340758038

  Charge       = 0
  Multiplicity = 1
  Electrons    = 48
  Nalpha       = 24
  Nbeta        = 24

  ==> Algorithm <==

  SCF Algorithm Type is DF.
  DIIS enabled.
  MOM disabled.
  Fractional occupation disabled.
  Guess Type is SAD.
  Energy threshold   = 1.00e-10
  Density threshold  = 1.00e-10
  Integral threshold = 0.00e+00

  ==> Primary Basis <==

  Basis Set: AUG-CC-PVTZ
    Blend: AUG-CC-PVTZ
    Number of shells: 183
    Number of basis function: 529
    Number of Cartesian functions: 605
    Spherical Harmonics?: true
    Max angular momentum: 3

   => Loading Basis Set <=

    Name: (AUG-CC-PVTZ AUX)
    Role: JKFIT
    Keyword: DF_BASIS_SCF
    atoms 1    entry N          line   224 file /home/xy3866/psi4conda/share/psi4/basis/aug-cc-pvtz-jkfit.gbs 
    atoms 2-6  entry C          line   162 file /home/xy3866/psi4conda/share/psi4/basis/aug-cc-pvtz-jkfit.gbs 
    atoms 7-17 entry H          line    70 file /home/xy3866/psi4conda/share/psi4/basis/aug-cc-pvtz-jkfit.gbs 

  ==> Pre-Iterations <==

   -------------------------------------------------------
    Irrep   Nso     Nmo     Nalpha   Nbeta   Ndocc  Nsocc
   -------------------------------------------------------
     A        529     529       0       0       0       0
   -------------------------------------------------------
    Total     529     529      24      24      24       0
   -------------------------------------------------------

  ==> Integral Setup <==

  DFHelper Memory: AOs need 2.348 GiB; user supplied 22.352 GiB. Using in-core AOs.

  ==> MemDFJK: Density-Fitted J/K Matrices <==

    J tasked:                   Yes
    K tasked:                   Yes
    wK tasked:                   No
    OpenMP threads:               8
    Memory [MiB]:             22888
    Algorithm:                 Disk
    Schwarz Cutoff:           1E-12
    Mask sparsity (%):       3.8272
    Fitting Condition:        1E-10

   => Auxiliary Basis Set <=

  Basis Set: (AUG-CC-PVTZ AUX)
    Blend: AUG-CC-PVTZ-JKFIT
    Number of shells: 334
    Number of basis function: 1130
    Number of Cartesian functions: 1391
    Spherical Harmonics?: true
    Max angular momentum: 4

  Minimum eigenvalue in the overlap matrix is 4.3515375202E-06.
  Using Symmetric Orthogonalization.

  SCF Guess: Superposition of Atomic Densities via on-the-fly atomic UHF.

  ==> Iterations <==

                           Total Energy        Delta E     RMS |[F,P]|

   @DF-RHF iter SAD:  -249.70361001533195   -2.49704e+02   0.00000e+00 
   @DF-RHF iter   1:  -249.94009145261310   -2.36481e-01   1.25482e-03 DIIS
   @DF-RHF iter   2:  -250.15227195684253   -2.12181e-01   6.60975e-04 DIIS
   @DF-RHF iter   3:  -250.21093785972249   -5.86659e-02   1.31051e-04 DIIS
   @DF-RHF iter   4:  -250.21454305344452   -3.60519e-03   6.01268e-05 DIIS
   @DF-RHF iter   5:  -250.21510408558041   -5.61032e-04   1.05510e-05 DIIS
   @DF-RHF iter   6:  -250.21513211972595   -2.80341e-05   2.88844e-06 DIIS
   @DF-RHF iter   7:  -250.21513415112133   -2.03140e-06   5.95457e-07 DIIS
   @DF-RHF iter   8:  -250.21513425532189   -1.04201e-07   1.74800e-07 DIIS
   @DF-RHF iter   9:  -250.21513426651609   -1.11942e-08   6.59021e-08 DIIS
   @DF-RHF iter  10:  -250.21513426896158   -2.44549e-09   2.83211e-08 DIIS
   @DF-RHF iter  11:  -250.21513426957372   -6.12147e-10   1.01732e-08 DIIS
   @DF-RHF iter  12:  -250.21513426964395   -7.02300e-11   3.27928e-09 DIIS
   @DF-RHF iter  13:  -250.21513426965060   -6.65068e-12   1.08720e-09 DIIS
   @DF-RHF iter  14:  -250.21513426965075   -1.42109e-13   3.69337e-10 DIIS
   @DF-RHF iter  15:  -250.21513426965046    2.84217e-13   1.74525e-10 DIIS
   @DF-RHF iter  16:  -250.21513426965060   -1.42109e-13   5.90981e-11 DIIS
  Energy and wave function converged.


  ==> Post-Iterations <==

    Orbital Energies [Eh]
    ---------------------

    Doubly Occupied:                                                      

       1A    -15.552064     2A    -11.283862     3A    -11.253274  
       4A    -11.230769     5A    -11.229826     6A    -11.214480  
       7A     -1.280258     8A     -1.081261     9A     -0.985259  
      10A     -0.905166    11A     -0.814747    12A     -0.768662  
      13A     -0.680241    14A     -0.641942    15A     -0.616327  
      16A     -0.590209    17A     -0.575459    18A     -0.549900  
      19A     -0.508960    20A     -0.491230    21A     -0.483074  
      22A     -0.470295    23A     -0.397540    24A     -0.376741  

    Virtual:                                                              

      25A      0.028159    26A      0.034992    27A      0.035844  
      28A      0.039479    29A      0.052654    30A      0.054426  
      31A      0.056601    32A      0.059078    33A      0.063632  
      34A      0.078612    35A      0.080615    36A      0.099826  
      37A      0.110877    38A      0.113208    39A      0.117599  
      40A      0.118832    41A      0.124699    42A      0.128904  
      43A      0.130441    44A      0.136989    45A      0.143302  
      46A      0.146316    47A      0.150499    48A      0.156019  
      49A      0.161217    50A      0.164387    51A      0.170622  
      52A      0.179426    53A      0.192331    54A      0.197883  
      55A      0.201151    56A      0.207079    57A      0.222982  
      58A      0.237162    59A      0.242939    60A      0.257630  
      61A      0.260911    62A      0.268671    63A      0.274380  
      64A      0.275726    65A      0.291127    66A      0.291818  
      67A      0.302141    68A      0.305556    69A      0.313830  
      70A      0.318098    71A      0.325637    72A      0.329720  
      73A      0.333767    74A      0.337280    75A      0.346911  
      76A      0.350678    77A      0.354763    78A      0.358416  
      79A      0.361355    80A      0.365220    81A      0.374434  
      82A      0.376577    83A      0.384717    84A      0.394529  
      85A      0.396415    86A      0.405730    87A      0.411088  
      88A      0.412277    89A      0.419878    90A      0.423800  
      91A      0.432141    92A      0.435838    93A      0.440102  
      94A      0.442178    95A      0.449262    96A      0.453165  
      97A      0.460465    98A      0.466957    99A      0.468942  
     100A      0.472765   101A      0.474517   102A      0.482066  
     103A      0.494160   104A      0.501441   105A      0.504450  
     106A      0.511405   107A      0.512758   108A      0.516454  
     109A      0.523124   110A      0.532539   111A      0.534192  
     112A      0.546579   113A      0.553953   114A      0.555587  
     115A      0.561718   116A      0.563225   117A      0.564146  
     118A      0.582093   119A      0.595616   120A      0.601106  
     121A      0.606841   122A      0.607334   123A      0.620350  
     124A      0.623794   125A      0.640216   126A      0.641689  
     127A      0.648339   128A      0.653926   129A      0.667297  
     130A      0.671195   131A      0.689899   132A      0.701927  
     133A      0.719600   134A      0.724815   135A      0.734296  
     136A      0.750364   137A      0.760373   138A      0.768709  
     139A      0.782051   140A      0.787840   141A      0.793594  
     142A      0.810034   143A      0.812366   144A      0.827179  
     145A      0.833072   146A      0.841389   147A      0.846885  
     148A      0.859949   149A      0.861543   150A      0.874812  
     151A      0.876031   152A      0.879186   153A      0.886146  
     154A      0.902338   155A      0.908244   156A      0.913977  
     157A      0.916018   158A      0.922183   159A      0.933051  
     160A      0.937095   161A      0.939888   162A      0.945547  
     163A      0.960895   164A      0.967033   165A      0.974479  
     166A      0.986025   167A      0.988851   168A      0.990620  
     169A      1.000040   170A      1.010174   171A      1.022153  
     172A      1.026311   173A      1.032298   174A      1.043077  
     175A      1.047150   176A      1.054702   177A      1.061007  
     178A      1.069195   179A      1.079821   180A      1.084425  
     181A      1.090987   182A      1.099172   183A      1.110330  
     184A      1.117530   185A      1.122504   186A      1.126962  
     187A      1.134746   188A      1.142622   189A      1.144610  
     190A      1.160664   191A      1.167801   192A      1.174437  
     193A      1.180542   194A      1.185255   195A      1.196037  
     196A      1.206228   197A      1.206699   198A      1.214558  
     199A      1.221598   200A      1.230415   201A      1.244172  
     202A      1.256226   203A      1.263590   204A      1.266188  
     205A      1.274189   206A      1.277895   207A      1.288168  
     208A      1.296192   209A      1.318417   210A      1.321098  
     211A      1.324585   212A      1.331505   213A      1.342210  
     214A      1.352725   215A      1.362803   216A      1.376718  
     217A      1.383064   218A      1.402134   219A      1.412933  
     220A      1.416926   221A      1.428744   222A      1.438497  
     223A      1.450582   224A      1.461635   225A      1.464690  
     226A      1.475326   227A      1.496759   228A      1.503786  
     229A      1.513321   230A      1.517773   231A      1.531992  
     232A      1.537356   233A      1.551849   234A      1.561739  
     235A      1.563522   236A      1.584396   237A      1.601038  
     238A      1.602816   239A      1.616643   240A      1.626919  
     241A      1.638745   242A      1.643860   243A      1.659807  
     244A      1.665992   245A      1.673525   246A      1.678193  
     247A      1.690443   248A      1.702107   249A      1.711432  
     250A      1.718924   251A      1.731460   252A      1.746724  
     253A      1.749168   254A      1.755091   255A      1.764014  
     256A      1.773956   257A      1.784321   258A      1.789638  
     259A      1.799150   260A      1.806794   261A      1.819535  
     262A      1.823576   263A      1.830014   264A      1.848296  
     265A      1.853309   266A      1.857116   267A      1.872527  
     268A      1.888338   269A      1.892827   270A      1.908741  
     271A      1.926890   272A      1.931008   273A      1.936763  
     274A      1.960250   275A      1.962697   276A      1.980372  
     277A      1.993328   278A      2.001482   279A      2.012615  
     280A      2.026408   281A      2.037652   282A      2.041072  
     283A      2.053137   284A      2.058629   285A      2.075514  
     286A      2.093314   287A      2.104089   288A      2.110147  
     289A      2.122230   290A      2.134225   291A      2.151715  
     292A      2.169796   293A      2.177452   294A      2.196369  
     295A      2.211571   296A      2.227420   297A      2.239176  
     298A      2.250963   299A      2.260751   300A      2.271642  
     301A      2.283772   302A      2.308515   303A      2.320388  
     304A      2.334250   305A      2.342660   306A      2.348604  
     307A      2.364604   308A      2.372374   309A      2.403007  
     310A      2.409916   311A      2.427765   312A      2.451876  
     313A      2.466098   314A      2.476491   315A      2.509924  
     316A      2.512061   317A      2.531723   318A      2.537097  
     319A      2.554136   320A      2.609652   321A      2.613243  
     322A      2.634567   323A      2.644599   324A      2.651398  
     325A      2.691336   326A      2.704928   327A      2.795583  
     328A      2.864520   329A      2.885108   330A      2.937334  
     331A      2.964594   332A      3.091043   333A      3.133473  
     334A      3.250026   335A      3.280832   336A      3.303221  
     337A      3.315320   338A      3.340589   339A      3.380807  
     340A      3.397726   341A      3.422284   342A      3.423443  
     343A      3.451176   344A      3.474039   345A      3.501567  
     346A      3.518151   347A      3.526743   348A      3.544315  
     349A      3.575092   350A      3.588330   351A      3.609780  
     352A      3.619748   353A      3.629337   354A      3.640731  
     355A      3.653207   356A      3.664168   357A      3.672717  
     358A      3.681840   359A      3.697038   360A      3.712978  
     361A      3.728371   362A      3.744550   363A      3.751436  
     364A      3.757506   365A      3.766517   366A      3.784490  
     367A      3.794966   368A      3.813721   369A      3.818950  
     370A      3.824990   371A      3.841148   372A      3.853114  
     373A      3.870954   374A      3.889288   375A      3.902062  
     376A      3.916235   377A      3.927341   378A      3.933612  
     379A      3.952838   380A      3.969750   381A      3.978937  
     382A      3.986082   383A      3.999867   384A      4.010814  
     385A      4.016592   386A      4.026329   387A      4.038404  
     388A      4.040992   389A      4.066469   390A      4.081552  
     391A      4.090346   392A      4.104705   393A      4.129288  
     394A      4.137162   395A      4.153995   396A      4.165580  
     397A      4.179402   398A      4.180449   399A      4.199804  
     400A      4.212986   401A      4.225025   402A      4.235677  
     403A      4.254953   404A      4.269606   405A      4.274384  
     406A      4.284087   407A      4.288433   408A      4.296890  
     409A      4.314254   410A      4.338487   411A      4.350559  
     412A      4.369041   413A      4.399706   414A      4.406135  
     415A      4.417292   416A      4.444071   417A      4.471603  
     418A      4.485674   419A      4.536913   420A      4.557417  
     421A      4.576042   422A      4.588417   423A      4.602895  
     424A      4.620228   425A      4.634635   426A      4.662572  
     427A      4.690366   428A      4.705266   429A      4.722480  
     430A      4.729924   431A      4.752475   432A      4.760410  
     433A      4.770079   434A      4.795573   435A      4.807351  
     436A      4.824235   437A      4.840116   438A      4.859485  
     439A      4.873039   440A      4.887513   441A      4.897426  
     442A      4.903969   443A      4.914087   444A      4.936868  
     445A      4.950200   446A      4.961462   447A      4.967182  
     448A      4.997882   449A      5.021643   450A      5.023485  
     451A      5.051623   452A      5.057498   453A      5.082493  
     454A      5.103034   455A      5.116401   456A      5.129591  
     457A      5.149891   458A      5.157488   459A      5.169321  
     460A      5.192467   461A      5.240120   462A      5.255231  
     463A      5.264397   464A      5.274200   465A      5.283978  
     466A      5.316829   467A      5.338485   468A      5.359059  
     469A      5.384079   470A      5.413548   471A      5.417642  
     472A      5.433482   473A      5.457100   474A      5.473100  
     475A      5.487454   476A      5.511705   477A      5.531137  
     478A      5.556073   479A      5.564434   480A      5.581882  
     481A      5.605012   482A      5.655219   483A      5.665797  
     484A      5.669522   485A      5.698851   486A      5.719952  
     487A      5.761282   488A      5.766885   489A      5.791032  
     490A      5.810595   491A      5.816790   492A      5.845883  
     493A      5.859082   494A      5.923944   495A      5.940563  
     496A      5.996527   497A      6.016528   498A      6.061638  
     499A      6.099925   500A      6.119790   501A      6.137892  
     502A      6.174655   503A      6.239026   504A      6.246997  
     505A      6.282499   506A      6.312720   507A      6.335238  
     508A      6.359224   509A      6.439095   510A      6.452895  
     511A      6.531085   512A      6.577822   513A      6.625275  
     514A      6.717489   515A      6.750013   516A      6.780817  
     517A      6.803261   518A      6.835544   519A      6.864824  
     520A      6.913794   521A      6.967991   522A      6.981716  
     523A      7.412230   524A     17.148661   525A     17.604718  
     526A     17.974098   527A     18.295222   528A     18.694233  
     529A     19.799082  

    Final Occupation by Irrep:
              A 
    DOCC [    24 ]

  @DF-RHF Final Energy:  -250.21513426965060

   => Energetics <=

    Nuclear Repulsion Energy =            238.7018353407580378
    One-Electron Energy =                -809.8708484339076676
    Two-Electron Energy =                 320.9538788234989966
    Total Energy =                       -250.2151342696506049

Computation Completed

*** tstop() called on node37.bme.utexas.edu at Thu Nov  5 16:42:42 2020
Module time:
	user time   =     179.78 seconds =       3.00 minutes
	system time =      42.65 seconds =       0.71 minutes
	total time  =         52 seconds =       0.87 minutes
Total time:
	user time   =     179.78 seconds =       3.00 minutes
	system time =      42.65 seconds =       0.71 minutes
	total time  =         52 seconds =       0.87 minutes
   => Loading Basis Set <=

    Name: (AUG-CC-PVTZ AUX)
    Role: RIFIT
    Keyword: DF_BASIS_MP2
    atoms 1    entry N          line   206 file /home/xy3866/psi4conda/share/psi4/basis/aug-cc-pvtz-ri.gbs 
    atoms 2-6  entry C          line   148 file /home/xy3866/psi4conda/share/psi4/basis/aug-cc-pvtz-ri.gbs 
    atoms 7-17 entry H          line    30 file /home/xy3866/psi4conda/share/psi4/basis/aug-cc-pvtz-ri.gbs 


*** tstart() called on node37.bme.utexas.edu
*** at Thu Nov  5 16:42:42 2020


  //>>>>>>>>>>>>>>>>>>>>>>>>>>>>>>>>>>>//
  //               DFMP2               //
  //<<<<<<<<<<<<<<<<<<<<<<<<<<<<<<<<<<<//

	 --------------------------------------------------------
	                          DF-MP2                         
	      2nd-Order Density-Fitted Moller-Plesset Theory     
	              RMP2 Wavefunction,   8 Threads             
	                                                         
	        Rob Parrish, Justin Turney, Andy Simmonett,      
	           Ed Hohenstein, and C. David Sherrill          
	 --------------------------------------------------------

   => Auxiliary Basis Set <=

  Basis Set: (AUG-CC-PVTZ AUX)
    Blend: AUG-CC-PVTZ-RI
    Number of shells: 322
    Number of basis function: 1142
    Number of Cartesian functions: 1421
    Spherical Harmonics?: true
    Max angular momentum: 4

	 --------------------------------------------------------
	                 NBF =   529, NAUX =  1142
	 --------------------------------------------------------
	   CLASS    FOCC     OCC    AOCC    AVIR     VIR    FVIR
	   PAIRS       0      24      24     505     505       0
	 --------------------------------------------------------

  DFHelper Memory: AOs need 2.348 GiB; user supplied 22.352 GiB. Using in-core AOs.


         ------------------------------------------------------------
                                     CPHF                           
                                  Rob Parrish                       
         ------------------------------------------------------------

  ==> Geometry <==

    Molecular point group: c1
    Full point group: C1

    Geometry (in Angstrom), charge = 0, multiplicity = 1:

       Center              X                  Y                   Z               Mass       
    ------------   -----------------  -----------------  -----------------  -----------------
         N           -1.448355828119     0.025383781285    -0.466656193795    14.003074004430
         C            1.920943171881    -0.255241218715     0.331246806205    12.000000000000
         C            0.733266171881    -1.027197218715    -0.260111193795    12.000000000000
         C            1.916400171881     1.218662781285    -0.064294193795    12.000000000000
         C           -0.572762828119    -0.535503218715     0.281441806205    12.000000000000
         C           -2.502665328119     0.414883281285     0.096277506205    12.000000000000
         H            1.906521171881    -0.348323218715     1.424683806205     1.007825032230
         H            2.851450171881    -0.726188218715    -0.005677193795     1.007825032230
         H            0.711993171881    -0.922469218715    -1.349643193795     1.007825032230
         H            0.838800171881    -2.094788218715    -0.024925193795     1.007825032230
         H            1.952046171881     1.325911781285    -1.152640193795     1.007825032230
         H            1.010458171881     1.720650781285     0.285830806205     1.007825032230
         H            2.779589171881     1.742126781285     0.356966806205     1.007825032230
         H           -0.731858828119    -0.664238218715     1.367284806205     1.007825032230
         H           -2.784023828119     1.551360781285     0.016086806205     1.007825032230
         H           -2.689694828119     0.280689781285     1.268701806205     1.007825032230
         H           -3.524185828119    -0.021857218715    -0.281683193795     1.007825032230

  Nuclear repulsion =  238.701835340758038
  Reference energy  = -250.215134269650605

  ==> Basis Set <==

  Basis Set: AUG-CC-PVTZ
    Blend: AUG-CC-PVTZ
    Number of shells: 183
    Number of basis function: 529
    Number of Cartesian functions: 605
    Spherical Harmonics?: true
    Max angular momentum: 3

  ==> CGRSolver (by Rob Parrish) <==

   Number of roots    =         1
   Preconditioning    =    JACOBI
   Convergence cutoff =     1E-06
   Maximum iterations =       100

  ==> CPHFRHamiltonian (by Rob Parrish) <== 

  ==> MemDFJK: Density-Fitted J/K Matrices <==

    J tasked:                   Yes
    K tasked:                   Yes
    wK tasked:                   No
    OpenMP threads:               8
    Memory [MiB]:             22888
    Algorithm:                 Disk
    Schwarz Cutoff:           1E-12
    Mask sparsity (%):       3.8272
    Fitting Condition:        1E-10

   => Auxiliary Basis Set <=

  Basis Set: (AUG-CC-PVTZ AUX)
    Blend: AUG-CC-PVTZ-JKFIT
    Number of shells: 334
    Number of basis function: 1130
    Number of Cartesian functions: 1391
    Spherical Harmonics?: true
    Max angular momentum: 4

  ==> CPHF Iterations <==

  => Iterations <=

             Iter  Converged  Remaining    Residual
  CGR           1          0          1   9.274E-02
  CGR           2          0          1   2.101E-02
  CGR           3          0          1   7.984E-03
  CGR           4          0          1   2.801E-03
  CGR           5          0          1   1.067E-03
  CGR           6          0          1   4.373E-04
  CGR           7          0          1   1.108E-04
  CGR           8          0          1   2.786E-05
  CGR           9          0          1   7.992E-06
  CGR          10          0          1   2.618E-06
  CGR          11          0          1   1.015E-06
  CGR          12          1          0   4.147E-07

    CGRSolver converged.

	-----------------------------------------------------------
	 ==================> DF-MP2 Energies <==================== 
	-----------------------------------------------------------
	 Reference Energy          =    -250.2151342696506049 [Eh]
	 Singles Energy            =      -0.0000000000000000 [Eh]
	 Same-Spin Energy          =      -0.2645238843716974 [Eh]
	 Opposite-Spin Energy      =      -0.9376471921920058 [Eh]
	 Correlation Energy        =      -1.2021710765637033 [Eh]
	 Total Energy              =    -251.4173053462143059 [Eh]
	-----------------------------------------------------------
	 ================> DF-SCS-MP2 Energies <================== 
	-----------------------------------------------------------
	 SCS Same-Spin Scale       =       0.3333333333333333 [-]
	 SCS Opposite-Spin Scale   =       1.2000000000000000 [-]
	 SCS Same-Spin Energy      =      -0.0881746281238991 [Eh]
	 SCS Opposite-Spin Energy  =      -1.1251766306304070 [Eh]
	 SCS Correlation Energy    =      -1.2133512587543061 [Eh]
	 SCS Total Energy          =    -251.4284855284049058 [Eh]
	-----------------------------------------------------------



Properties will be evaluated at   0.000000,  -0.000000,   0.000000 [a0]

Properties computed using the MP2 density matrix

  Nuclear Dipole Moment: [e a0]
     X:     2.1802      Y:     1.7276      Z:     1.7872

  Electronic Dipole Moment: [e a0]
     X:    -1.8715      Y:    -1.9055      Z:    -1.3244

  Dipole Moment: [e a0]
     X:     0.3086      Y:    -0.1780      Z:     0.4628     Total:     0.5841

  Dipole Moment: [D]
     X:     0.7845      Y:    -0.4524      Z:     1.1764     Total:     1.4846


*** tstop() called on node37.bme.utexas.edu at Thu Nov  5 16:44:11 2020
Module time:
	user time   =     425.12 seconds =       7.09 minutes
	system time =      53.25 seconds =       0.89 minutes
	total time  =         89 seconds =       1.48 minutes
Total time:
	user time   =     606.16 seconds =      10.10 minutes
	system time =      96.00 seconds =       1.60 minutes
	total time  =        141 seconds =       2.35 minutes

    Psi4 stopped on: Thursday, 05 November 2020 04:44PM
    Psi4 wall time for execution: 0:02:20.81

*** Psi4 exiting successfully. Buy a developer a beer!
