
    -----------------------------------------------------------------------
          Psi4: An Open-Source Ab Initio Electronic Structure Package
                               Psi4 1.4a3.dev225 

                         Git: Rev {master} 7105e37 


    D. G. A. Smith, L. A. Burns, A. C. Simmonett, R. M. Parrish,
    M. C. Schieber, R. Galvelis, P. Kraus, H. Kruse, R. Di Remigio,
    A. Alenaizan, A. M. James, S. Lehtola, J. P. Misiewicz, M. Scheurer,
    R. A. Shaw, J. B. Schriber, Y. Xie, Z. L. Glick, D. A. Sirianni,
    J. S. O'Brien, J. M. Waldrop, A. Kumar, E. G. Hohenstein,
    B. P. Pritchard, B. R. Brooks, H. F. Schaefer III, A. Yu. Sokolov,
    K. Patkowski, A. E. DePrince III, U. Bozkaya, R. A. King,
    F. A. Evangelista, J. M. Turney, T. D. Crawford, C. D. Sherrill,
    J. Chem. Phys. 152(18) 184108 (2020). https://doi.org/10.1063/5.0006002

                            Additional Code Authors
    E. T. Seidl, C. L. Janssen, E. F. Valeev, M. L. Leininger,
    J. F. Gonthier, R. M. Richard, H. R. McAlexander, M. Saitow, X. Wang,
    P. Verma, and M. H. Lechner

             Previous Authors, Complete List of Code Contributors,
                       and Citations for Specific Modules
    https://github.com/psi4/psi4/blob/master/codemeta.json
    https://github.com/psi4/psi4/graphs/contributors
    http://psicode.org/psi4manual/master/introduction.html#citing-psifour

    -----------------------------------------------------------------------


    Psi4 started on: Saturday, 20 March 2021 04:39AM

    Process ID: 206409
    Host:       c466-083.stampede2.tacc.utexas.edu
    PSIDATADIR: /home1/07844/xy3866/miniconda3/envs/p4env/share/psi4
    Memory:     500.0 MiB
    Threads:    32
    
  ==> Input File <==

--------------------------------------------------------------------------
#psi4
#
memory 32 gb

molecule  {
0 1
  N       -1.4513250    -0.0010140    -0.4975640
  C        1.9178130    -0.2820920     0.3002790
  C        0.7301270    -1.0540560    -0.2910000
  C        1.9134960     1.1918760    -0.0950710
  C       -0.5323619    -0.5787949     0.2323445
  C       -2.6734840     0.4500370     0.1549490
  H        1.9036020    -0.3753030     1.3937060
  H        2.8482930    -0.7529860    -0.0368320
  H        0.7089100    -0.9495730    -1.3805570
  H        0.8355610    -2.1216230    -0.0556080
  H        1.9497200     1.2992090    -1.1833850
  H        1.0073830     1.6938500     0.2545960
  H        2.7764960     1.7152480     0.3266950
  H       -0.7352490    -0.6914900     1.3362220
  H       -2.7876940     1.5244090    -0.0151890
  H       -2.6923780     0.2543160     1.2378980
  H       -3.5271550    -0.0493170    -0.3121090
units angstrom
no_reorient  #important for SAPT in psi4, default
symmetry c1  #important for SAPT in psi4, default
}

set PROPERTIES_ORIGIN ["COM"]
properties('MP2/aug-cc-pvtz', properties = ['dipole'])
--------------------------------------------------------------------------

  Memory set to  29.802 GiB by Python driver.
    SCF Algorithm Type (re)set to DF.

*** tstart() called on c466-083.stampede2.tacc.utexas.edu
*** at Sat Mar 20 04:39:05 2021

   => Loading Basis Set <=

    Name: AUG-CC-PVTZ
    Role: ORBITAL
    Keyword: BASIS
    atoms 1    entry N          line   285 file /home1/07844/xy3866/miniconda3/envs/p4env/share/psi4/basis/aug-cc-pvtz.gbs 
    atoms 2-6  entry C          line   239 file /home1/07844/xy3866/miniconda3/envs/p4env/share/psi4/basis/aug-cc-pvtz.gbs 
    atoms 7-17 entry H          line    40 file /home1/07844/xy3866/miniconda3/envs/p4env/share/psi4/basis/aug-cc-pvtz.gbs 


         ---------------------------------------------------------
                                   SCF
               by Justin Turney, Rob Parrish, Andy Simmonett
                          and Daniel G. A. Smith
                              RHF Reference
                       32 Threads,  30517 MiB Core
         ---------------------------------------------------------

  ==> Geometry <==

    Molecular point group: c1
    Full point group: C1

    Geometry (in Angstrom), charge = 0, multiplicity = 1:

       Center              X                  Y                   Z               Mass       
    ------------   -----------------  -----------------  -----------------  -----------------
         N           -1.430751971388     0.019337767996    -0.476742062863    14.003074004430
         C            1.938386028612    -0.261740232004     0.321100937137    12.000000000000
         C            0.750700028612    -1.033704232004    -0.270178062863    12.000000000000
         C            1.934069028612     1.212227767996    -0.074249062863    12.000000000000
         C           -0.511788871388    -0.558443132004     0.253166437137    12.000000000000
         C           -2.652910971388     0.470388767996     0.175770937137    12.000000000000
         H            1.924175028612    -0.354951232004     1.414527937137     1.007825032230
         H            2.868866028612    -0.732634232004    -0.016010062863     1.007825032230
         H            0.729483028612    -0.929221232004    -1.359735062863     1.007825032230
         H            0.856134028612    -2.101271232004    -0.034786062863     1.007825032230
         H            1.970293028612     1.319560767996    -1.162563062863     1.007825032230
         H            1.027956028612     1.714201767996     0.275417937137     1.007825032230
         H            2.797069028612     1.735599767996     0.347516937137     1.007825032230
         H           -0.714675971388    -0.671138232004     1.357043937137     1.007825032230
         H           -2.767120971388     1.544760767996     0.005632937137     1.007825032230
         H           -2.671804971388     0.274667767996     1.258719937137     1.007825032230
         H           -3.506581971388    -0.028965232004    -0.291287062863     1.007825032230

  Running in c1 symmetry.

  Rotational constants: A =      0.24150  B =      0.05968  C =      0.05245 [cm^-1]
  Rotational constants: A =   7240.04249  B =   1789.18064  C =   1572.53824 [MHz]
  Nuclear repulsion =  235.540571874203749

  Charge       = 0
  Multiplicity = 1
  Electrons    = 48
  Nalpha       = 24
  Nbeta        = 24

  ==> Algorithm <==

  SCF Algorithm Type is DF.
  DIIS enabled.
  MOM disabled.
  Fractional occupation disabled.
  Guess Type is SAD.
  Energy threshold   = 1.00e-10
  Density threshold  = 1.00e-10
  Integral threshold = 1.00e-12

  ==> Primary Basis <==

  Basis Set: AUG-CC-PVTZ
    Blend: AUG-CC-PVTZ
    Number of shells: 183
    Number of basis functions: 529
    Number of Cartesian functions: 605
    Spherical Harmonics?: true
    Max angular momentum: 3

   => Loading Basis Set <=

    Name: (AUG-CC-PVTZ AUX)
    Role: JKFIT
    Keyword: DF_BASIS_SCF
    atoms 1    entry N          line   224 file /home1/07844/xy3866/miniconda3/envs/p4env/share/psi4/basis/aug-cc-pvtz-jkfit.gbs 
    atoms 2-6  entry C          line   162 file /home1/07844/xy3866/miniconda3/envs/p4env/share/psi4/basis/aug-cc-pvtz-jkfit.gbs 
    atoms 7-17 entry H          line    70 file /home1/07844/xy3866/miniconda3/envs/p4env/share/psi4/basis/aug-cc-pvtz-jkfit.gbs 

  ==> Integral Setup <==

  DFHelper Memory: AOs need 2.334 GiB; user supplied 22.352 GiB. Using in-core AOs.

  ==> MemDFJK: Density-Fitted J/K Matrices <==

    J tasked:                   Yes
    K tasked:                   Yes
    wK tasked:                   No
    OpenMP threads:              32
    Memory [MiB]:             22888
    Algorithm:                 Core
    Schwarz Cutoff:           1E-12
    Mask sparsity (%):       6.5702
    Fitting Condition:        1E-10

   => Auxiliary Basis Set <=

  Basis Set: (AUG-CC-PVTZ AUX)
    Blend: AUG-CC-PVTZ-JKFIT
    Number of shells: 334
    Number of basis functions: 1130
    Number of Cartesian functions: 1391
    Spherical Harmonics?: true
    Max angular momentum: 4

  Minimum eigenvalue in the overlap matrix is 4.0018949731E-06.
  Reciprocal condition number of the overlap matrix is 2.0816581783E-07.
    Using symmetric orthogonalization.

  ==> Pre-Iterations <==

  SCF Guess: Superposition of Atomic Densities via on-the-fly atomic UHF (no occupation information).

   -------------------------
    Irrep   Nso     Nmo    
   -------------------------
     A        529     529 
   -------------------------
    Total     529     529
   -------------------------

  ==> Iterations <==

                           Total Energy        Delta E     RMS |[F,P]|

   @DF-RHF iter SAD:  -249.43895419197310   -2.49439e+02   0.00000e+00 
   @DF-RHF iter   1:  -250.00608615686895   -5.67132e-01   1.18966e-03 DIIS
   @DF-RHF iter   2:  -250.20791785780628   -2.01832e-01   5.73660e-04 DIIS
   @DF-RHF iter   3:  -250.25313692662331   -4.52191e-02   1.22268e-04 DIIS
   @DF-RHF iter   4:  -250.25643307736274   -3.29615e-03   5.60574e-05 DIIS
   @DF-RHF iter   5:  -250.25689355173046   -4.60474e-04   1.09755e-05 DIIS
   @DF-RHF iter   6:  -250.25692390056386   -3.03488e-05   3.93022e-06 DIIS
   @DF-RHF iter   7:  -250.25692762686458   -3.72630e-06   1.24482e-06 DIIS
   @DF-RHF iter   8:  -250.25692824990657   -6.23042e-07   5.77954e-07 DIIS
   @DF-RHF iter   9:  -250.25692840621855   -1.56312e-07   1.79414e-07 DIIS
   @DF-RHF iter  10:  -250.25692842362841   -1.74099e-08   4.47795e-08 DIIS
   @DF-RHF iter  11:  -250.25692842443013   -8.01720e-10   1.31776e-08 DIIS
   @DF-RHF iter  12:  -250.25692842450047   -7.03437e-11   5.44208e-09 DIIS
   @DF-RHF iter  13:  -250.25692842451735   -1.68825e-11   2.47746e-09 DIIS
   @DF-RHF iter  14:  -250.25692842452236   -5.00222e-12   9.37721e-10 DIIS
   @DF-RHF iter  15:  -250.25692842452196    3.97904e-13   3.77701e-10 DIIS
   @DF-RHF iter  16:  -250.25692842452287   -9.09495e-13   1.16598e-10 DIIS
   @DF-RHF iter  17:  -250.25692842452338   -5.11591e-13   4.21054e-11 DIIS
  Energy and wave function converged.


  ==> Post-Iterations <==

    Orbital Energies [Eh]
    ---------------------

    Doubly Occupied:                                                      

       1A    -15.555776     2A    -11.276714     3A    -11.242597  
       4A    -11.229006     5A    -11.225174     6A    -11.212255  
       7A     -1.208983     8A     -1.077001     9A     -0.978959  
      10A     -0.909711    11A     -0.819526    12A     -0.753131  
      13A     -0.642576    14A     -0.635759    15A     -0.609205  
      16A     -0.585648    17A     -0.577370    18A     -0.543301  
      19A     -0.520872    20A     -0.493679    21A     -0.482789  
      22A     -0.478000    23A     -0.398697    24A     -0.385724  

    Virtual:                                                              

      25A      0.028755    26A      0.035197    27A      0.036578  
      28A      0.039895    29A      0.053250    30A      0.054883  
      31A      0.056074    32A      0.059660    33A      0.063964  
      34A      0.078063    35A      0.080253    36A      0.101467  
      37A      0.112894    38A      0.115398    39A      0.118805  
      40A      0.119853    41A      0.126121    42A      0.130295  
      43A      0.131380    44A      0.138916    45A      0.146544  
      46A      0.148250    47A      0.151044    48A      0.156643  
      49A      0.164979    50A      0.166497    51A      0.171100  
      52A      0.173996    53A      0.194268    54A      0.195813  
      55A      0.197126    56A      0.206503    57A      0.222513  
      58A      0.238965    59A      0.243382    60A      0.257409  
      61A      0.263879    62A      0.268537    63A      0.270978  
      64A      0.274641    65A      0.292818    66A      0.294458  
      67A      0.303243    68A      0.307132    69A      0.315540  
      70A      0.321014    71A      0.325920    72A      0.333318  
      73A      0.333591    74A      0.339414    75A      0.346497  
      76A      0.349177    77A      0.357398    78A      0.360052  
      79A      0.363662    80A      0.366869    81A      0.373879  
      82A      0.380935    83A      0.384172    84A      0.390712  
      85A      0.398326    86A      0.407541    87A      0.410880  
      88A      0.414193    89A      0.418798    90A      0.422036  
      91A      0.436340    92A      0.437353    93A      0.441004  
      94A      0.446227    95A      0.449315    96A      0.452916  
      97A      0.458926    98A      0.465270    99A      0.468111  
     100A      0.471613   101A      0.476124   102A      0.484769  
     103A      0.490167   104A      0.495409   105A      0.500373  
     106A      0.506922   107A      0.512058   108A      0.515065  
     109A      0.525660   110A      0.532614   111A      0.540684  
     112A      0.545343   113A      0.549950   114A      0.553019  
     115A      0.558609   116A      0.563109   117A      0.563659  
     118A      0.568382   119A      0.590417   120A      0.599976  
     121A      0.601777   122A      0.606874   123A      0.621051  
     124A      0.625244   125A      0.635620   126A      0.644458  
     127A      0.650638   128A      0.654273   129A      0.664447  
     130A      0.676870   131A      0.689101   132A      0.704369  
     133A      0.707774   134A      0.721294   135A      0.730413  
     136A      0.742047   137A      0.754743   138A      0.762489  
     139A      0.778103   140A      0.783871   141A      0.787606  
     142A      0.813317   143A      0.818552   144A      0.824323  
     145A      0.831147   146A      0.838083   147A      0.847553  
     148A      0.858653   149A      0.866017   150A      0.875335  
     151A      0.880662   152A      0.882137   153A      0.886346  
     154A      0.899732   155A      0.906153   156A      0.914078  
     157A      0.916004   158A      0.922234   159A      0.927124  
     160A      0.935072   161A      0.940098   162A      0.944462  
     163A      0.956262   164A      0.962677   165A      0.965530  
     166A      0.978700   167A      0.986423   168A      0.988805  
     169A      0.997223   170A      1.000624   171A      1.016275  
     172A      1.026995   173A      1.031053   174A      1.037502  
     175A      1.042285   176A      1.058649   177A      1.065242  
     178A      1.074473   179A      1.075404   180A      1.080515  
     181A      1.087122   182A      1.094686   183A      1.109370  
     184A      1.119100   185A      1.122916   186A      1.123081  
     187A      1.142804   188A      1.144068   189A      1.149049  
     190A      1.155771   191A      1.171392   192A      1.176123  
     193A      1.184788   194A      1.191655   195A      1.196323  
     196A      1.201029   197A      1.209861   198A      1.211783  
     199A      1.222302   200A      1.228195   201A      1.237995  
     202A      1.258683   203A      1.264333   204A      1.266834  
     205A      1.275037   206A      1.277904   207A      1.287297  
     208A      1.293171   209A      1.310955   210A      1.312782  
     211A      1.325252   212A      1.327397   213A      1.337984  
     214A      1.350275   215A      1.361287   216A      1.376326  
     217A      1.381005   218A      1.397713   219A      1.404510  
     220A      1.424639   221A      1.430615   222A      1.444042  
     223A      1.454600   224A      1.465868   225A      1.470491  
     226A      1.477152   227A      1.494906   228A      1.502668  
     229A      1.508445   230A      1.514775   231A      1.528247  
     232A      1.540058   233A      1.551723   234A      1.562456  
     235A      1.568525   236A      1.583693   237A      1.588677  
     238A      1.606208   239A      1.613066   240A      1.624647  
     241A      1.635979   242A      1.646343   243A      1.654656  
     244A      1.666617   245A      1.674362   246A      1.677972  
     247A      1.688411   248A      1.695840   249A      1.697946  
     250A      1.710542   251A      1.722993   252A      1.745018  
     253A      1.750089   254A      1.752523   255A      1.760292  
     256A      1.771351   257A      1.774537   258A      1.787944  
     259A      1.801240   260A      1.809671   261A      1.818819  
     262A      1.825718   263A      1.836627   264A      1.844117  
     265A      1.858813   266A      1.861988   267A      1.876019  
     268A      1.889289   269A      1.902992   270A      1.909152  
     271A      1.925477   272A      1.932429   273A      1.934519  
     274A      1.950220   275A      1.958138   276A      1.967934  
     277A      1.983732   278A      1.989903   279A      2.005383  
     280A      2.020348   281A      2.039358   282A      2.045624  
     283A      2.056276   284A      2.059266   285A      2.074813  
     286A      2.082951   287A      2.094154   288A      2.102439  
     289A      2.115589   290A      2.132878   291A      2.147920  
     292A      2.151869   293A      2.169252   294A      2.194217  
     295A      2.208739   296A      2.220956   297A      2.230679  
     298A      2.240347   299A      2.257324   300A      2.262875  
     301A      2.279575   302A      2.297703   303A      2.317542  
     304A      2.319446   305A      2.339372   306A      2.342697  
     307A      2.343036   308A      2.374916   309A      2.389587  
     310A      2.408351   311A      2.416955   312A      2.441602  
     313A      2.455863   314A      2.474984   315A      2.496959  
     316A      2.509337   317A      2.514627   318A      2.526345  
     319A      2.553448   320A      2.583399   321A      2.605797  
     322A      2.625339   323A      2.634044   324A      2.653993  
     325A      2.688368   326A      2.713495   327A      2.797695  
     328A      2.800832   329A      2.847498   330A      2.889284  
     331A      2.925252   332A      3.040707   333A      3.104244  
     334A      3.182912   335A      3.242886   336A      3.279732  
     337A      3.289598   338A      3.341685   339A      3.350810  
     340A      3.412171   341A      3.421116   342A      3.431854  
     343A      3.441502   344A      3.462754   345A      3.481766  
     346A      3.507994   347A      3.515022   348A      3.535673  
     349A      3.571111   350A      3.592384   351A      3.595057  
     352A      3.609976   353A      3.630456   354A      3.634670  
     355A      3.640677   356A      3.660121   357A      3.671755  
     358A      3.682804   359A      3.690615   360A      3.697602  
     361A      3.722332   362A      3.727089   363A      3.754537  
     364A      3.761025   365A      3.770356   366A      3.777269  
     367A      3.792668   368A      3.814774   369A      3.830493  
     370A      3.840682   371A      3.852357   372A      3.859721  
     373A      3.878621   374A      3.896105   375A      3.899328  
     376A      3.910338   377A      3.939035   378A      3.942426  
     379A      3.960051   380A      3.966643   381A      3.975036  
     382A      3.977446   383A      3.986164   384A      4.000146  
     385A      4.004719   386A      4.013326   387A      4.025361  
     388A      4.034836   389A      4.051119   390A      4.060372  
     391A      4.078015   392A      4.102003   393A      4.119055  
     394A      4.135143   395A      4.147336   396A      4.160092  
     397A      4.170299   398A      4.176405   399A      4.190365  
     400A      4.198026   401A      4.206314   402A      4.236408  
     403A      4.250273   404A      4.262645   405A      4.270401  
     406A      4.279261   407A      4.302178   408A      4.305774  
     409A      4.315633   410A      4.324637   411A      4.357833  
     412A      4.372711   413A      4.403291   414A      4.413173  
     415A      4.449433   416A      4.468562   417A      4.484977  
     418A      4.493437   419A      4.540406   420A      4.559665  
     421A      4.588680   422A      4.601921   423A      4.604732  
     424A      4.633906   425A      4.650313   426A      4.661873  
     427A      4.679366   428A      4.701259   429A      4.710445  
     430A      4.730475   431A      4.763253   432A      4.779284  
     433A      4.787747   434A      4.793456   435A      4.804577  
     436A      4.847546   437A      4.854982   438A      4.863751  
     439A      4.879023   440A      4.891884   441A      4.899102  
     442A      4.914242   443A      4.922419   444A      4.947079  
     445A      4.964605   446A      4.998471   447A      5.009859  
     448A      5.023821   449A      5.033678   450A      5.048033  
     451A      5.059425   452A      5.076929   453A      5.107101  
     454A      5.127224   455A      5.134083   456A      5.135361  
     457A      5.161765   458A      5.172480   459A      5.203496  
     460A      5.217235   461A      5.246751   462A      5.263524  
     463A      5.277060   464A      5.287177   465A      5.318386  
     466A      5.337228   467A      5.376808   468A      5.398145  
     469A      5.415148   470A      5.421275   471A      5.433945  
     472A      5.445846   473A      5.469336   474A      5.479051  
     475A      5.495333   476A      5.539356   477A      5.550640  
     478A      5.564236   479A      5.587408   480A      5.591691  
     481A      5.612574   482A      5.633600   483A      5.652859  
     484A      5.665199   485A      5.682257   486A      5.700033  
     487A      5.719667   488A      5.734250   489A      5.767488  
     490A      5.785779   491A      5.800094   492A      5.824073  
     493A      5.871395   494A      5.893587   495A      5.967689  
     496A      5.995066   497A      6.009332   498A      6.020518  
     499A      6.045571   500A      6.104712   501A      6.116712  
     502A      6.166362   503A      6.209326   504A      6.232313  
     505A      6.248718   506A      6.271339   507A      6.294155  
     508A      6.336482   509A      6.398992   510A      6.437825  
     511A      6.444549   512A      6.547314   513A      6.649374  
     514A      6.710850   515A      6.735666   516A      6.754060  
     517A      6.782836   518A      6.796812   519A      6.873298  
     520A      6.901250   521A      6.916902   522A      6.948436  
     523A      7.048681   524A     16.192693   525A     17.316953  
     526A     17.682223   527A     17.995625   528A     18.507438  
     529A     19.638217  

    Final Occupation by Irrep:
              A 
    DOCC [    24 ]

  @DF-RHF Final Energy:  -250.25692842452338

   => Energetics <=

    Nuclear Repulsion Energy =            235.5405718742037493
    One-Electron Energy =                -803.9100959461941329
    Two-Electron Energy =                 318.1125956474669465
    Total Energy =                       -250.2569284245233803

Computation Completed

*** tstop() called on c466-083.stampede2.tacc.utexas.edu at Sat Mar 20 04:39:27 2021
Module time:
	user time   =     341.49 seconds =       5.69 minutes
	system time =      23.80 seconds =       0.40 minutes
	total time  =         22 seconds =       0.37 minutes
Total time:
	user time   =     341.49 seconds =       5.69 minutes
	system time =      23.80 seconds =       0.40 minutes
	total time  =         22 seconds =       0.37 minutes
   => Loading Basis Set <=

    Name: (AUG-CC-PVTZ AUX)
    Role: RIFIT
    Keyword: DF_BASIS_MP2
    atoms 1    entry N          line   206 file /home1/07844/xy3866/miniconda3/envs/p4env/share/psi4/basis/aug-cc-pvtz-ri.gbs 
    atoms 2-6  entry C          line   148 file /home1/07844/xy3866/miniconda3/envs/p4env/share/psi4/basis/aug-cc-pvtz-ri.gbs 
    atoms 7-17 entry H          line    30 file /home1/07844/xy3866/miniconda3/envs/p4env/share/psi4/basis/aug-cc-pvtz-ri.gbs 


*** tstart() called on c466-083.stampede2.tacc.utexas.edu
*** at Sat Mar 20 04:39:27 2021


  //>>>>>>>>>>>>>>>>>>>>>>>>>>>>>>>>>>>//
  //               DFMP2               //
  //<<<<<<<<<<<<<<<<<<<<<<<<<<<<<<<<<<<//

	 --------------------------------------------------------
	                          DF-MP2                         
	      2nd-Order Density-Fitted Moller-Plesset Theory     
	              RMP2 Wavefunction,  32 Threads             
	                                                         
	        Rob Parrish, Justin Turney, Andy Simmonett,      
	           Ed Hohenstein, and C. David Sherrill          
	 --------------------------------------------------------

   => Auxiliary Basis Set <=

  Basis Set: (AUG-CC-PVTZ AUX)
    Blend: AUG-CC-PVTZ-RI
    Number of shells: 322
    Number of basis functions: 1142
    Number of Cartesian functions: 1421
    Spherical Harmonics?: true
    Max angular momentum: 4

	 --------------------------------------------------------
	                 NBF =   529, NAUX =  1142
	 --------------------------------------------------------
	   CLASS    FOCC     OCC    AOCC    AVIR     VIR    FVIR
	   PAIRS       0      24      24     505     505       0
	 --------------------------------------------------------

  DFHelper Memory: AOs need 2.394 GiB; user supplied 22.352 GiB. Using in-core AOs.


         ------------------------------------------------------------
                                     CPHF                           
                                  Rob Parrish                       
         ------------------------------------------------------------

  ==> Geometry <==

    Molecular point group: c1
    Full point group: C1

    Geometry (in Angstrom), charge = 0, multiplicity = 1:

       Center              X                  Y                   Z               Mass       
    ------------   -----------------  -----------------  -----------------  -----------------
         N           -1.430751971388     0.019337767996    -0.476742062863    14.003074004430
         C            1.938386028612    -0.261740232004     0.321100937137    12.000000000000
         C            0.750700028612    -1.033704232004    -0.270178062863    12.000000000000
         C            1.934069028612     1.212227767996    -0.074249062863    12.000000000000
         C           -0.511788871388    -0.558443132004     0.253166437137    12.000000000000
         C           -2.652910971388     0.470388767996     0.175770937137    12.000000000000
         H            1.924175028612    -0.354951232004     1.414527937137     1.007825032230
         H            2.868866028612    -0.732634232004    -0.016010062863     1.007825032230
         H            0.729483028612    -0.929221232004    -1.359735062863     1.007825032230
         H            0.856134028612    -2.101271232004    -0.034786062863     1.007825032230
         H            1.970293028612     1.319560767996    -1.162563062863     1.007825032230
         H            1.027956028612     1.714201767996     0.275417937137     1.007825032230
         H            2.797069028612     1.735599767996     0.347516937137     1.007825032230
         H           -0.714675971388    -0.671138232004     1.357043937137     1.007825032230
         H           -2.767120971388     1.544760767996     0.005632937137     1.007825032230
         H           -2.671804971388     0.274667767996     1.258719937137     1.007825032230
         H           -3.506581971388    -0.028965232004    -0.291287062863     1.007825032230

  Nuclear repulsion =  235.540571874203749
  Reference energy  = -250.256928424523380

  ==> Basis Set <==

  Basis Set: AUG-CC-PVTZ
    Blend: AUG-CC-PVTZ
    Number of shells: 183
    Number of basis functions: 529
    Number of Cartesian functions: 605
    Spherical Harmonics?: true
    Max angular momentum: 3

  ==> CGRSolver (by Rob Parrish) <==

   Number of roots    =         1
   Preconditioning    =    JACOBI
   Convergence cutoff =     1E-06
   Maximum iterations =       100

  ==> CPHFRHamiltonian (by Rob Parrish) <== 

  ==> MemDFJK: Density-Fitted J/K Matrices <==

    J tasked:                   Yes
    K tasked:                   Yes
    wK tasked:                   No
    OpenMP threads:              32
    Memory [MiB]:             22888
    Algorithm:                 Core
    Schwarz Cutoff:           1E-12
    Mask sparsity (%):       4.0180
    Fitting Condition:        1E-10

   => Auxiliary Basis Set <=

  Basis Set: (AUG-CC-PVTZ AUX)
    Blend: AUG-CC-PVTZ-JKFIT
    Number of shells: 334
    Number of basis functions: 1130
    Number of Cartesian functions: 1391
    Spherical Harmonics?: true
    Max angular momentum: 4

  ==> CPHF Iterations <==

  => Iterations <=

             Iter  Converged  Remaining    Residual
  CGR           1          0          1   8.977E-02
  CGR           2          0          1   2.225E-02
  CGR           3          0          1   7.650E-03
  CGR           4          0          1   1.959E-03
  CGR           5          0          1   6.032E-04
  CGR           6          0          1   1.967E-04
  CGR           7          0          1   7.724E-05
  CGR           8          0          1   2.999E-05
  CGR           9          0          1   9.884E-06
  CGR          10          0          1   3.789E-06
  CGR          11          0          1   1.447E-06
  CGR          12          1          0   4.868E-07

    CGRSolver converged.

	-----------------------------------------------------------
	 ==================> DF-MP2 Energies <==================== 
	-----------------------------------------------------------
	 Reference Energy          =    -250.2569284245233803 [Eh]
	 Singles Energy            =      -0.0000000000000000 [Eh]
	 Same-Spin Energy          =      -0.2629309152352429 [Eh]
	 Opposite-Spin Energy      =      -0.9377659252545059 [Eh]
	 Correlation Energy        =      -1.2006968404897487 [Eh]
	 Total Energy              =    -251.4576252650131210 [Eh]
	-----------------------------------------------------------
	 ================> DF-SCS-MP2 Energies <================== 
	-----------------------------------------------------------
	 SCS Same-Spin Scale       =       0.3333333333333333 [-]
	 SCS Opposite-Spin Scale   =       1.2000000000000000 [-]
	 SCS Same-Spin Energy      =      -0.0876436384117476 [Eh]
	 SCS Opposite-Spin Energy  =      -1.1253191103054070 [Eh]
	 SCS Correlation Energy    =      -1.2129627487171546 [Eh]
	 SCS Total Energy          =    -251.4698911732405406 [Eh]
	-----------------------------------------------------------



Properties will be evaluated at   0.000000,  -0.000000,  -0.000000 [a0]

Properties computed using the MP2 density matrix

  Nuclear Dipole Moment: [e a0]
     X:     2.3608      Y:     1.6598      Z:     1.6837

  Electronic Dipole Moment: [e a0]
     X:    -2.1566      Y:    -1.8064      Z:    -1.1329

  Dipole Moment: [e a0]
     X:     0.2042      Y:    -0.1465      Z:     0.5507     Total:     0.6054

  Dipole Moment: [D]
     X:     0.5190      Y:    -0.3725      Z:     1.3998     Total:     1.5387


*** tstop() called on c466-083.stampede2.tacc.utexas.edu at Sat Mar 20 04:41:10 2021
Module time:
	user time   =     841.39 seconds =      14.02 minutes
	system time =      23.21 seconds =       0.39 minutes
	total time  =        103 seconds =       1.72 minutes
Total time:
	user time   =    1183.72 seconds =      19.73 minutes
	system time =      47.02 seconds =       0.78 minutes
	total time  =        125 seconds =       2.08 minutes

    Psi4 stopped on: Saturday, 20 March 2021 04:41AM
    Psi4 wall time for execution: 0:02:04.76

*** Psi4 exiting successfully. Buy a developer a beer!
