
    -----------------------------------------------------------------------
          Psi4: An Open-Source Ab Initio Electronic Structure Package
                               Psi4 1.3.2 release

                         Git: Rev {HEAD} ecbda83 


    R. M. Parrish, L. A. Burns, D. G. A. Smith, A. C. Simmonett,
    A. E. DePrince III, E. G. Hohenstein, U. Bozkaya, A. Yu. Sokolov,
    R. Di Remigio, R. M. Richard, J. F. Gonthier, A. M. James,
    H. R. McAlexander, A. Kumar, M. Saitow, X. Wang, B. P. Pritchard,
    P. Verma, H. F. Schaefer III, K. Patkowski, R. A. King, E. F. Valeev,
    F. A. Evangelista, J. M. Turney, T. D. Crawford, and C. D. Sherrill,
    J. Chem. Theory Comput. 13(7) pp 3185--3197 (2017).
    (doi: 10.1021/acs.jctc.7b00174)


                         Additional Contributions by
    P. Kraus, H. Kruse, M. H. Lechner, M. C. Schieber, R. A. Shaw,
    A. Alenaizan, R. Galvelis, Z. L. Glick, S. Lehtola, and J. P. Misiewicz

    -----------------------------------------------------------------------


    Psi4 started on: Thursday, 05 November 2020 04:22PM

    Process ID: 45276
    Host:       node37.bme.utexas.edu
    PSIDATADIR: /home/xy3866/psi4conda/share/psi4
    Memory:     500.0 MiB
    Threads:    8
    
  ==> Input File <==

--------------------------------------------------------------------------
#psi4
#
memory 32 gb

molecule  {
0 1
  N       -1.4514230    -0.0014080    -0.4975550
  C        1.9178760    -0.2820330     0.3003480
  C        0.7301990    -1.0539890    -0.2910100
  C        1.9133330     1.1918710    -0.0951930
  C       -0.7125368    -0.4747234     0.1337420
  C       -2.6734760     0.4500620     0.1549430
  H        1.9034540    -0.3751150     1.3937850
  H        2.8483830    -0.7529800    -0.0365760
  H        0.7089260    -0.9492610    -1.3805420
  H        0.8357330    -2.1215800    -0.0558240
  H        1.9489790     1.2991200    -1.1835390
  H        1.0073910     1.6938590     0.2549320
  H        2.7765220     1.7153350     0.3260680
  H       -0.7349260    -0.6910300     1.3363860
  H       -2.7870910     1.5245690    -0.0148120
  H       -2.6927620     0.2538980     1.2378030
  H       -3.5272530    -0.0486490    -0.3125820
units angstrom
no_reorient  #important for SAPT in psi4, default
symmetry c1  #important for SAPT in psi4, default
}

set PROPERTIES_ORIGIN ["COM"]
properties('MP2/aug-cc-pvtz', properties = ['dipole'])
--------------------------------------------------------------------------

  Memory set to  29.802 GiB by Python driver.
    SCF Algorithm Type (re)set to DF.

*** tstart() called on node37.bme.utexas.edu
*** at Thu Nov  5 16:22:14 2020

   => Loading Basis Set <=

    Name: AUG-CC-PVTZ
    Role: ORBITAL
    Keyword: BASIS
    atoms 1    entry N          line   281 file /home/xy3866/psi4conda/share/psi4/basis/aug-cc-pvtz.gbs 
    atoms 2-6  entry C          line   235 file /home/xy3866/psi4conda/share/psi4/basis/aug-cc-pvtz.gbs 
    atoms 7-17 entry H          line    36 file /home/xy3866/psi4conda/share/psi4/basis/aug-cc-pvtz.gbs 


         ---------------------------------------------------------
                                   SCF
               by Justin Turney, Rob Parrish, Andy Simmonett
                          and Daniel G. A. Smith
                              RHF Reference
                        8 Threads,  30517 MiB Core
         ---------------------------------------------------------

  ==> Geometry <==

    Molecular point group: c1
    Full point group: C1

    Geometry (in Angstrom), charge = 0, multiplicity = 1:

       Center              X                  Y                   Z               Mass       
    ------------   -----------------  -----------------  -----------------  -----------------
         N           -1.405419641454     0.004294074624    -0.462815041281    14.003074004430
         C            1.963879358546    -0.276330925376     0.335087958719    12.000000000000
         C            0.776202358546    -1.048286925376    -0.256270041281    12.000000000000
         C            1.959336358546     1.197573074624    -0.060453041281    12.000000000000
         C           -0.666533441454    -0.469021325376     0.168481958719    12.000000000000
         C           -2.627472641454     0.455764074624     0.189682958719    12.000000000000
         H            1.949457358546    -0.369412925376     1.428524958719     1.007825032230
         H            2.894386358546    -0.747277925376    -0.001836041281     1.007825032230
         H            0.754929358546    -0.943558925376    -1.345802041281     1.007825032230
         H            0.881736358546    -2.115877925376    -0.021084041281     1.007825032230
         H            1.994982358546     1.304822074624    -1.148799041281     1.007825032230
         H            1.053394358546     1.699561074624     0.289671958719     1.007825032230
         H            2.822525358546     1.721037074624     0.360807958719     1.007825032230
         H           -0.688922641454    -0.685327925376     1.371125958719     1.007825032230
         H           -2.741087641454     1.530271074624     0.019927958719     1.007825032230
         H           -2.646758641454     0.259600074624     1.272542958719     1.007825032230
         H           -3.481249641454    -0.042946925376    -0.277842041281     1.007825032230

  Running in c1 symmetry.

  Rotational constants: A =      0.24786  B =      0.05926  C =      0.05224 [cm^-1]
  Rotational constants: A =   7430.72315  B =   1776.49627  C =   1566.22794 [MHz]
  Nuclear repulsion =  237.535910411482092

  Charge       = 0
  Multiplicity = 1
  Electrons    = 48
  Nalpha       = 24
  Nbeta        = 24

  ==> Algorithm <==

  SCF Algorithm Type is DF.
  DIIS enabled.
  MOM disabled.
  Fractional occupation disabled.
  Guess Type is SAD.
  Energy threshold   = 1.00e-10
  Density threshold  = 1.00e-10
  Integral threshold = 0.00e+00

  ==> Primary Basis <==

  Basis Set: AUG-CC-PVTZ
    Blend: AUG-CC-PVTZ
    Number of shells: 183
    Number of basis function: 529
    Number of Cartesian functions: 605
    Spherical Harmonics?: true
    Max angular momentum: 3

   => Loading Basis Set <=

    Name: (AUG-CC-PVTZ AUX)
    Role: JKFIT
    Keyword: DF_BASIS_SCF
    atoms 1    entry N          line   224 file /home/xy3866/psi4conda/share/psi4/basis/aug-cc-pvtz-jkfit.gbs 
    atoms 2-6  entry C          line   162 file /home/xy3866/psi4conda/share/psi4/basis/aug-cc-pvtz-jkfit.gbs 
    atoms 7-17 entry H          line    70 file /home/xy3866/psi4conda/share/psi4/basis/aug-cc-pvtz-jkfit.gbs 

  ==> Pre-Iterations <==

   -------------------------------------------------------
    Irrep   Nso     Nmo     Nalpha   Nbeta   Ndocc  Nsocc
   -------------------------------------------------------
     A        529     529       0       0       0       0
   -------------------------------------------------------
    Total     529     529      24      24      24       0
   -------------------------------------------------------

  ==> Integral Setup <==

  DFHelper Memory: AOs need 2.343 GiB; user supplied 22.352 GiB. Using in-core AOs.

  ==> MemDFJK: Density-Fitted J/K Matrices <==

    J tasked:                   Yes
    K tasked:                   Yes
    wK tasked:                   No
    OpenMP threads:               8
    Memory [MiB]:             22888
    Algorithm:                 Disk
    Schwarz Cutoff:           1E-12
    Mask sparsity (%):       4.0344
    Fitting Condition:        1E-10

   => Auxiliary Basis Set <=

  Basis Set: (AUG-CC-PVTZ AUX)
    Blend: AUG-CC-PVTZ-JKFIT
    Number of shells: 334
    Number of basis function: 1130
    Number of Cartesian functions: 1391
    Spherical Harmonics?: true
    Max angular momentum: 4

  Minimum eigenvalue in the overlap matrix is 5.7645531588E-06.
  Using Symmetric Orthogonalization.

  SCF Guess: Superposition of Atomic Densities via on-the-fly atomic UHF.

  ==> Iterations <==

                           Total Energy        Delta E     RMS |[F,P]|

   @DF-RHF iter SAD:  -249.63240801855369   -2.49632e+02   0.00000e+00 
   @DF-RHF iter   1:  -249.92850625493656   -2.96098e-01   1.25899e-03 DIIS
   @DF-RHF iter   2:  -250.13963179179413   -2.11126e-01   6.04111e-04 DIIS
   @DF-RHF iter   3:  -250.18941540993285   -4.97836e-02   1.13347e-04 DIIS
   @DF-RHF iter   4:  -250.19263058944881   -3.21518e-03   3.60704e-05 DIIS
   @DF-RHF iter   5:  -250.19286080031765   -2.30211e-04   9.28607e-06 DIIS
   @DF-RHF iter   6:  -250.19288207601113   -2.12757e-05   2.90069e-06 DIIS
   @DF-RHF iter   7:  -250.19288398777786   -1.91177e-06   7.74020e-07 DIIS
   @DF-RHF iter   8:  -250.19288419330860   -2.05531e-07   2.83825e-07 DIIS
   @DF-RHF iter   9:  -250.19288422202075   -2.87122e-08   7.92207e-08 DIIS
   @DF-RHF iter  10:  -250.19288422472727   -2.70651e-09   2.37742e-08 DIIS
   @DF-RHF iter  11:  -250.19288422495356   -2.26294e-10   7.80384e-09 DIIS
   @DF-RHF iter  12:  -250.19288422498022   -2.66596e-11   2.97450e-09 DIIS
   @DF-RHF iter  13:  -250.19288422498292   -2.70006e-12   1.03691e-09 DIIS
   @DF-RHF iter  14:  -250.19288422498408   -1.16529e-12   3.13372e-10 DIIS
   @DF-RHF iter  15:  -250.19288422498417   -8.52651e-14   1.26028e-10 DIIS
   @DF-RHF iter  16:  -250.19288422498630   -2.13163e-12   4.33916e-11 DIIS
  Energy and wave function converged.


  ==> Post-Iterations <==

    Orbital Energies [Eh]
    ---------------------

    Doubly Occupied:                                                      

       1A    -15.535392     2A    -11.257215     3A    -11.254190  
       4A    -11.222943     5A    -11.221619     6A    -11.209969  
       7A     -1.313803     8A     -1.058849     9A     -0.974693  
      10A     -0.922779    11A     -0.808835    12A     -0.725908  
      13A     -0.660092    14A     -0.636840    15A     -0.618413  
      16A     -0.594623    17A     -0.585990    18A     -0.547054  
      19A     -0.505305    20A     -0.492805    21A     -0.489694  
      22A     -0.469501    23A     -0.454308    24A     -0.361449  

    Virtual:                                                              

      25A      0.030274    26A      0.034759    27A      0.037368  
      28A      0.039907    29A      0.052237    30A      0.055073  
      31A      0.056484    32A      0.060505    33A      0.064519  
      34A      0.077762    35A      0.081836    36A      0.101856  
      37A      0.112775    38A      0.116946    39A      0.119064  
      40A      0.121184    41A      0.128446    42A      0.131078  
      43A      0.132893    44A      0.136306    45A      0.147437  
      46A      0.148706    47A      0.155278    48A      0.156837  
      49A      0.164885    50A      0.168464    51A      0.173872  
      52A      0.190256    53A      0.191930    54A      0.200757  
      55A      0.202078    56A      0.211573    57A      0.224375  
      58A      0.241063    59A      0.247368    60A      0.257087  
      61A      0.262817    62A      0.264660    63A      0.267933  
      64A      0.272108    65A      0.293276    66A      0.295490  
      67A      0.304467    68A      0.308670    69A      0.316736  
      70A      0.319046    71A      0.329175    72A      0.332717  
      73A      0.334423    74A      0.339002    75A      0.345465  
      76A      0.349447    77A      0.358592    78A      0.360201  
      79A      0.364628    80A      0.365284    81A      0.372998  
      82A      0.382332    83A      0.382980    84A      0.387807  
      85A      0.396848    86A      0.404081    87A      0.409108  
      88A      0.414454    89A      0.416946    90A      0.421112  
      91A      0.428565    92A      0.436721    93A      0.439238  
      94A      0.444094    95A      0.448511    96A      0.452388  
      97A      0.456657    98A      0.464564    99A      0.466931  
     100A      0.475123   101A      0.477355   102A      0.481997  
     103A      0.487107   104A      0.493970   105A      0.500482  
     106A      0.505425   107A      0.511151   108A      0.515086  
     109A      0.525854   110A      0.534311   111A      0.537462  
     112A      0.540829   113A      0.547107   114A      0.551797  
     115A      0.558073   116A      0.560073   117A      0.565566  
     118A      0.573283   119A      0.589748   120A      0.595257  
     121A      0.604448   122A      0.608881   123A      0.620157  
     124A      0.626365   125A      0.636833   126A      0.638799  
     127A      0.650252   128A      0.653855   129A      0.669054  
     130A      0.677444   131A      0.683691   132A      0.689081  
     133A      0.703249   134A      0.725157   135A      0.734451  
     136A      0.744465   137A      0.762213   138A      0.776227  
     139A      0.782494   140A      0.788340   141A      0.801070  
     142A      0.806840   143A      0.814751   144A      0.823141  
     145A      0.835763   146A      0.840507   147A      0.850954  
     148A      0.868157   149A      0.869283   150A      0.874817  
     151A      0.878917   152A      0.891636   153A      0.896152  
     154A      0.901527   155A      0.904267   156A      0.914060  
     157A      0.917638   158A      0.920817   159A      0.924512  
     160A      0.935257   161A      0.942345   162A      0.945243  
     163A      0.950748   164A      0.963462   165A      0.967344  
     166A      0.976679   167A      0.987011   168A      0.992867  
     169A      1.002133   170A      1.014529   171A      1.015429  
     172A      1.027462   173A      1.032533   174A      1.041354  
     175A      1.052493   176A      1.063145   177A      1.069946  
     178A      1.076105   179A      1.081025   180A      1.087241  
     181A      1.096434   182A      1.101348   183A      1.117959  
     184A      1.119377   185A      1.125243   186A      1.132477  
     187A      1.140847   188A      1.147804   189A      1.154811  
     190A      1.168203   191A      1.169959   192A      1.176443  
     193A      1.188549   194A      1.195205   195A      1.204293  
     196A      1.207022   197A      1.209677   198A      1.218591  
     199A      1.222177   200A      1.228235   201A      1.245258  
     202A      1.251272   203A      1.261727   204A      1.269732  
     205A      1.280625   206A      1.282932   207A      1.288884  
     208A      1.294286   209A      1.306887   210A      1.315804  
     211A      1.326939   212A      1.329496   213A      1.344725  
     214A      1.354671   215A      1.363364   216A      1.368045  
     217A      1.380387   218A      1.393283   219A      1.411548  
     220A      1.425302   221A      1.433321   222A      1.446804  
     223A      1.451055   224A      1.461805   225A      1.468606  
     226A      1.479758   227A      1.502972   228A      1.507121  
     229A      1.509013   230A      1.517222   231A      1.533565  
     232A      1.547524   233A      1.558358   234A      1.566160  
     235A      1.570636   236A      1.582729   237A      1.588453  
     238A      1.608890   239A      1.611820   240A      1.622219  
     241A      1.625654   242A      1.646964   243A      1.657768  
     244A      1.665342   245A      1.673880   246A      1.684437  
     247A      1.690541   248A      1.698351   249A      1.700710  
     250A      1.709483   251A      1.732528   252A      1.742389  
     253A      1.747679   254A      1.760854   255A      1.771507  
     256A      1.775088   257A      1.778473   258A      1.795062  
     259A      1.805219   260A      1.810819   261A      1.823831  
     262A      1.829404   263A      1.838044   264A      1.851414  
     265A      1.854004   266A      1.871181   267A      1.878157  
     268A      1.884502   269A      1.903333   270A      1.907846  
     271A      1.922215   272A      1.933286   273A      1.941873  
     274A      1.949570   275A      1.965630   276A      1.977015  
     277A      1.987664   278A      1.994834   279A      2.003509  
     280A      2.018594   281A      2.039212   282A      2.045644  
     283A      2.052275   284A      2.062351   285A      2.070170  
     286A      2.089711   287A      2.099245   288A      2.111948  
     289A      2.131623   290A      2.143600   291A      2.148076  
     292A      2.156863   293A      2.180711   294A      2.191330  
     295A      2.210816   296A      2.222977   297A      2.233664  
     298A      2.246228   299A      2.254738   300A      2.268165  
     301A      2.291896   302A      2.298763   303A      2.305555  
     304A      2.320683   305A      2.328410   306A      2.340435  
     307A      2.349742   308A      2.368383   309A      2.388930  
     310A      2.392434   311A      2.413890   312A      2.448500  
     313A      2.464558   314A      2.490442   315A      2.495649  
     316A      2.509567   317A      2.510488   318A      2.531197  
     319A      2.552406   320A      2.585003   321A      2.601832  
     322A      2.624678   323A      2.632121   324A      2.665832  
     325A      2.687722   326A      2.739421   327A      2.788868  
     328A      2.808400   329A      2.860472   330A      2.920911  
     331A      3.014186   332A      3.084698   333A      3.116120  
     334A      3.151177   335A      3.223378   336A      3.260775  
     337A      3.294596   338A      3.345014   339A      3.391820  
     340A      3.401808   341A      3.426912   342A      3.436282  
     343A      3.450481   344A      3.477095   345A      3.480544  
     346A      3.515618   347A      3.535633   348A      3.551511  
     349A      3.572826   350A      3.593553   351A      3.607420  
     352A      3.620165   353A      3.630065   354A      3.649259  
     355A      3.660795   356A      3.665181   357A      3.677482  
     358A      3.682779   359A      3.699944   360A      3.706342  
     361A      3.723896   362A      3.726340   363A      3.744077  
     364A      3.761048   365A      3.780426   366A      3.789596  
     367A      3.801565   368A      3.822026   369A      3.829167  
     370A      3.842833   371A      3.863613   372A      3.872109  
     373A      3.882727   374A      3.887644   375A      3.903119  
     376A      3.914382   377A      3.923052   378A      3.930977  
     379A      3.944328   380A      3.952924   381A      3.970171  
     382A      3.983049   383A      3.985956   384A      3.998970  
     385A      4.009641   386A      4.019402   387A      4.030963  
     388A      4.035255   389A      4.047444   390A      4.077095  
     391A      4.087288   392A      4.094598   393A      4.121784  
     394A      4.134075   395A      4.139847   396A      4.153461  
     397A      4.174413   398A      4.191832   399A      4.201003  
     400A      4.212863   401A      4.239156   402A      4.252402  
     403A      4.265148   404A      4.276053   405A      4.282603  
     406A      4.301022   407A      4.304496   408A      4.324630  
     409A      4.344990   410A      4.357440   411A      4.368045  
     412A      4.387186   413A      4.392727   414A      4.413452  
     415A      4.421030   416A      4.457968   417A      4.473356  
     418A      4.509714   419A      4.540238   420A      4.552625  
     421A      4.578840   422A      4.592544   423A      4.605080  
     424A      4.635194   425A      4.643039   426A      4.661342  
     427A      4.698354   428A      4.709763   429A      4.728145  
     430A      4.756240   431A      4.770813   432A      4.786907  
     433A      4.802678   434A      4.807544   435A      4.824292  
     436A      4.836959   437A      4.840888   438A      4.864851  
     439A      4.869154   440A      4.887414   441A      4.894615  
     442A      4.900938   443A      4.924343   444A      4.948289  
     445A      4.971927   446A      4.991232   447A      5.004499  
     448A      5.019076   449A      5.040822   450A      5.058010  
     451A      5.068171   452A      5.080919   453A      5.095331  
     454A      5.111843   455A      5.125643   456A      5.142761  
     457A      5.154634   458A      5.169255   459A      5.194444  
     460A      5.221745   461A      5.235104   462A      5.249933  
     463A      5.254085   464A      5.272475   465A      5.303277  
     466A      5.339683   467A      5.353876   468A      5.393831  
     469A      5.416843   470A      5.425472   471A      5.434971  
     472A      5.438006   473A      5.467251   474A      5.489419  
     475A      5.505435   476A      5.519615   477A      5.553028  
     478A      5.571600   479A      5.587004   480A      5.600376  
     481A      5.617237   482A      5.629270   483A      5.647195  
     484A      5.662099   485A      5.673936   486A      5.716008  
     487A      5.734294   488A      5.752660   489A      5.785105  
     490A      5.809890   491A      5.824134   492A      5.871593  
     493A      5.934952   494A      5.947854   495A      5.998821  
     496A      6.011640   497A      6.039458   498A      6.053900  
     499A      6.106332   500A      6.131204   501A      6.160532  
     502A      6.211584   503A      6.239785   504A      6.247834  
     505A      6.259615   506A      6.274808   507A      6.356941  
     508A      6.397188   509A      6.458087   510A      6.519406  
     511A      6.574155   512A      6.606167   513A      6.635733  
     514A      6.744138   515A      6.764609   516A      6.782318  
     517A      6.846784   518A      6.890318   519A      6.924176  
     520A      6.957056   521A      7.047597   522A      7.089640  
     523A      7.299226   524A     17.404170   525A     17.779108  
     526A     18.063936   527A     18.430002   528A     18.973524  
     529A     22.708950  

    Final Occupation by Irrep:
              A 
    DOCC [    24 ]

  @DF-RHF Final Energy:  -250.19288422498630

   => Energetics <=

    Nuclear Repulsion Energy =            237.5359104114820923
    One-Electron Energy =                -807.6130570533420041
    Two-Electron Energy =                 319.8842624168736393
    Total Energy =                       -250.1928842249863010

Computation Completed

*** tstop() called on node37.bme.utexas.edu at Thu Nov  5 16:23:05 2020
Module time:
	user time   =     180.45 seconds =       3.01 minutes
	system time =      39.45 seconds =       0.66 minutes
	total time  =         51 seconds =       0.85 minutes
Total time:
	user time   =     180.45 seconds =       3.01 minutes
	system time =      39.45 seconds =       0.66 minutes
	total time  =         51 seconds =       0.85 minutes
   => Loading Basis Set <=

    Name: (AUG-CC-PVTZ AUX)
    Role: RIFIT
    Keyword: DF_BASIS_MP2
    atoms 1    entry N          line   206 file /home/xy3866/psi4conda/share/psi4/basis/aug-cc-pvtz-ri.gbs 
    atoms 2-6  entry C          line   148 file /home/xy3866/psi4conda/share/psi4/basis/aug-cc-pvtz-ri.gbs 
    atoms 7-17 entry H          line    30 file /home/xy3866/psi4conda/share/psi4/basis/aug-cc-pvtz-ri.gbs 


*** tstart() called on node37.bme.utexas.edu
*** at Thu Nov  5 16:23:05 2020


  //>>>>>>>>>>>>>>>>>>>>>>>>>>>>>>>>>>>//
  //               DFMP2               //
  //<<<<<<<<<<<<<<<<<<<<<<<<<<<<<<<<<<<//

	 --------------------------------------------------------
	                          DF-MP2                         
	      2nd-Order Density-Fitted Moller-Plesset Theory     
	              RMP2 Wavefunction,   8 Threads             
	                                                         
	        Rob Parrish, Justin Turney, Andy Simmonett,      
	           Ed Hohenstein, and C. David Sherrill          
	 --------------------------------------------------------

   => Auxiliary Basis Set <=

  Basis Set: (AUG-CC-PVTZ AUX)
    Blend: AUG-CC-PVTZ-RI
    Number of shells: 322
    Number of basis function: 1142
    Number of Cartesian functions: 1421
    Spherical Harmonics?: true
    Max angular momentum: 4

	 --------------------------------------------------------
	                 NBF =   529, NAUX =  1142
	 --------------------------------------------------------
	   CLASS    FOCC     OCC    AOCC    AVIR     VIR    FVIR
	   PAIRS       0      24      24     505     505       0
	 --------------------------------------------------------

  DFHelper Memory: AOs need 2.343 GiB; user supplied 22.352 GiB. Using in-core AOs.


         ------------------------------------------------------------
                                     CPHF                           
                                  Rob Parrish                       
         ------------------------------------------------------------

  ==> Geometry <==

    Molecular point group: c1
    Full point group: C1

    Geometry (in Angstrom), charge = 0, multiplicity = 1:

       Center              X                  Y                   Z               Mass       
    ------------   -----------------  -----------------  -----------------  -----------------
         N           -1.405419641454     0.004294074624    -0.462815041281    14.003074004430
         C            1.963879358546    -0.276330925376     0.335087958719    12.000000000000
         C            0.776202358546    -1.048286925376    -0.256270041281    12.000000000000
         C            1.959336358546     1.197573074624    -0.060453041281    12.000000000000
         C           -0.666533441454    -0.469021325376     0.168481958719    12.000000000000
         C           -2.627472641454     0.455764074624     0.189682958719    12.000000000000
         H            1.949457358546    -0.369412925376     1.428524958719     1.007825032230
         H            2.894386358546    -0.747277925376    -0.001836041281     1.007825032230
         H            0.754929358546    -0.943558925376    -1.345802041281     1.007825032230
         H            0.881736358546    -2.115877925376    -0.021084041281     1.007825032230
         H            1.994982358546     1.304822074624    -1.148799041281     1.007825032230
         H            1.053394358546     1.699561074624     0.289671958719     1.007825032230
         H            2.822525358546     1.721037074624     0.360807958719     1.007825032230
         H           -0.688922641454    -0.685327925376     1.371125958719     1.007825032230
         H           -2.741087641454     1.530271074624     0.019927958719     1.007825032230
         H           -2.646758641454     0.259600074624     1.272542958719     1.007825032230
         H           -3.481249641454    -0.042946925376    -0.277842041281     1.007825032230

  Nuclear repulsion =  237.535910411482092
  Reference energy  = -250.192884224986301

  ==> Basis Set <==

  Basis Set: AUG-CC-PVTZ
    Blend: AUG-CC-PVTZ
    Number of shells: 183
    Number of basis function: 529
    Number of Cartesian functions: 605
    Spherical Harmonics?: true
    Max angular momentum: 3

  ==> CGRSolver (by Rob Parrish) <==

   Number of roots    =         1
   Preconditioning    =    JACOBI
   Convergence cutoff =     1E-06
   Maximum iterations =       100

  ==> CPHFRHamiltonian (by Rob Parrish) <== 

  ==> MemDFJK: Density-Fitted J/K Matrices <==

    J tasked:                   Yes
    K tasked:                   Yes
    wK tasked:                   No
    OpenMP threads:               8
    Memory [MiB]:             22888
    Algorithm:                 Disk
    Schwarz Cutoff:           1E-12
    Mask sparsity (%):       4.0344
    Fitting Condition:        1E-10

   => Auxiliary Basis Set <=

  Basis Set: (AUG-CC-PVTZ AUX)
    Blend: AUG-CC-PVTZ-JKFIT
    Number of shells: 334
    Number of basis function: 1130
    Number of Cartesian functions: 1391
    Spherical Harmonics?: true
    Max angular momentum: 4

  ==> CPHF Iterations <==

  => Iterations <=

             Iter  Converged  Remaining    Residual
  CGR           1          0          1   8.460E-02
  CGR           2          0          1   1.694E-02
  CGR           3          0          1   6.876E-03
  CGR           4          0          1   2.100E-03
  CGR           5          0          1   7.394E-04
  CGR           6          0          1   2.369E-04
  CGR           7          0          1   6.187E-05
  CGR           8          0          1   1.907E-05
  CGR           9          0          1   6.057E-06
  CGR          10          0          1   2.193E-06
  CGR          11          1          0   7.846E-07

    CGRSolver converged.

	-----------------------------------------------------------
	 ==================> DF-MP2 Energies <==================== 
	-----------------------------------------------------------
	 Reference Energy          =    -250.1928842249863010 [Eh]
	 Singles Energy            =      -0.0000000000000000 [Eh]
	 Same-Spin Energy          =      -0.2596670361577349 [Eh]
	 Opposite-Spin Energy      =      -0.9295373509968696 [Eh]
	 Correlation Energy        =      -1.1892043871546045 [Eh]
	 Total Energy              =    -251.3820886121409046 [Eh]
	-----------------------------------------------------------
	 ================> DF-SCS-MP2 Energies <================== 
	-----------------------------------------------------------
	 SCS Same-Spin Scale       =       0.3333333333333333 [-]
	 SCS Opposite-Spin Scale   =       1.2000000000000000 [-]
	 SCS Same-Spin Energy      =      -0.0865556787192450 [Eh]
	 SCS Opposite-Spin Energy  =      -1.1154448211962436 [Eh]
	 SCS Correlation Energy    =      -1.2020004999154885 [Eh]
	 SCS Total Energy          =    -251.3948847249018002 [Eh]
	-----------------------------------------------------------



Properties will be evaluated at   0.000000,  -0.000000,   0.000000 [a0]

Properties computed using the MP2 density matrix

  Nuclear Dipole Moment: [e a0]
     X:     2.6228      Y:     1.5101      Z:     1.8268

  Electronic Dipole Moment: [e a0]
     X:    -2.6866      Y:    -1.5229      Z:    -1.4424

  Dipole Moment: [e a0]
     X:    -0.0638      Y:    -0.0127      Z:     0.3844     Total:     0.3899

  Dipole Moment: [D]
     X:    -0.1623      Y:    -0.0323      Z:     0.9770     Total:     0.9909


*** tstop() called on node37.bme.utexas.edu at Thu Nov  5 16:24:38 2020
Module time:
	user time   =     435.58 seconds =       7.26 minutes
	system time =      51.34 seconds =       0.86 minutes
	total time  =         93 seconds =       1.55 minutes
Total time:
	user time   =     617.27 seconds =      10.29 minutes
	system time =      90.87 seconds =       1.51 minutes
	total time  =        144 seconds =       2.40 minutes

    Psi4 stopped on: Thursday, 05 November 2020 04:24PM
    Psi4 wall time for execution: 0:02:23.33

*** Psi4 exiting successfully. Buy a developer a beer!
