561092                                                                  
Freq      RMP2-FC                                                     6-31G(d)            
Number of atoms                            I               18
Info1-9                                    I   N=           9
          30          28        1002           0           0         100
           6           2           1
Charge                                     I                0
Multiplicity                               I                1
Number of electrons                        I              106
Number of alpha electrons                  I               53
Number of beta electrons                   I               53
Number of basis functions                  I              191
Number of independent functions            I              191
Number of point charges in /Mol/           I                0
Number of translation vectors              I                0
Atomic numbers                             I   N=          18
          17          17          17           6           6           6
           6           6           6           6           6           1
           1           1           1           1           1           1
Nuclear charges                            R   N=          18
  1.70000000E+01  1.70000000E+01  1.70000000E+01  6.00000000E+00  6.00000000E+00
  6.00000000E+00  6.00000000E+00  6.00000000E+00  6.00000000E+00  6.00000000E+00
  6.00000000E+00  1.00000000E+00  1.00000000E+00  1.00000000E+00  1.00000000E+00
  1.00000000E+00  1.00000000E+00  1.00000000E+00
Current cartesian coordinates              R   N=          54
 -5.61392136E+00 -6.67762853E-06  1.58456544E+00 -2.32654291E+00 -2.73721617E+00
 -1.83179379E+00 -2.32655218E+00  2.73722224E+00 -1.83178738E+00 -5.59803129E-01
  8.01613338E-07  2.16133454E+00  2.12646483E+00  5.61527503E-07  1.23301844E+00
 -2.58783025E+00  2.06314932E-08  9.30936476E-02  3.40815363E+00 -2.28152889E+00
  8.27589597E-01  3.40815475E+00  2.28152958E+00  8.27590621E-01  5.90684656E+00
 -2.28214610E+00 -1.29891279E-02  5.90684772E+00  2.28214584E+00 -1.29880549E-02
  7.16096452E+00 -3.20442255E-07 -4.40373470E-01 -9.20609605E-01  1.66854177E+00
  3.33150018E+00 -9.20609224E-01 -1.66854021E+00  3.33150027E+00  2.44614899E+00
 -4.06441754E+00  1.17553431E+00  2.44615114E+00  4.06441858E+00  1.17553632E+00
  6.87965411E+00 -4.06587121E+00 -3.19169294E-01  6.87965599E+00  4.06587070E+00
 -3.19167361E-01  9.11009659E+00 -6.60830099E-07 -1.09012419E+00
Force Field                                I                0
Int Atom Types                             I   N=          18
           0           0           0           0           0           0
           0           0           0           0           0           0
           0           0           0           0           0           0
MM charges                                 R   N=          18
  0.00000000E+00  0.00000000E+00  0.00000000E+00  0.00000000E+00  0.00000000E+00
  0.00000000E+00  0.00000000E+00  0.00000000E+00  0.00000000E+00  0.00000000E+00
  0.00000000E+00  0.00000000E+00  0.00000000E+00  0.00000000E+00  0.00000000E+00
  0.00000000E+00  0.00000000E+00  0.00000000E+00
Integer atomic weights                     I   N=          18
          35          35          35          12          12          12
          12          12          12          12          12           1
           1           1           1           1           1           1
Real atomic weights                        R   N=          18
  3.49688527E+01  3.49688527E+01  3.49688527E+01  1.20000000E+01  1.20000000E+01
  1.20000000E+01  1.20000000E+01  1.20000000E+01  1.20000000E+01  1.20000000E+01
  1.20000000E+01  1.00782504E+00  1.00782504E+00  1.00782504E+00  1.00782504E+00
  1.00782504E+00  1.00782504E+00  1.00782504E+00
Atom fragment info                         I   N=          18
           0           0           0           0           0           0
           0           0           0           0           0           0
           0           0           0           0           0           0
Atom residue num                           I   N=          18
           0           0           0           0           0           0
           0           0           0           0           0           0
           0           0           0           0           0           0
Nuclear spins                              I   N=          18
           3           3           3           0           0           0
           0           0           0           0           0           1
           1           1           1           1           1           1
Nuclear ZEff                               R   N=          18
 -1.42400000E+01 -1.42400000E+01 -1.42400000E+01 -3.60000000E+00 -3.60000000E+00
 -3.60000000E+00 -3.60000000E+00 -3.60000000E+00 -3.60000000E+00 -3.60000000E+00
 -3.60000000E+00 -1.00000000E+00 -1.00000000E+00 -1.00000000E+00 -1.00000000E+00
 -1.00000000E+00 -1.00000000E+00 -1.00000000E+00
Nuclear QMom                               R   N=          18
 -8.16500000E+00 -8.16500000E+00 -8.16500000E+00  0.00000000E+00  0.00000000E+00
  0.00000000E+00  0.00000000E+00  0.00000000E+00  0.00000000E+00  0.00000000E+00
  0.00000000E+00  0.00000000E+00  0.00000000E+00  0.00000000E+00  0.00000000E+00
  0.00000000E+00  0.00000000E+00  0.00000000E+00
Nuclear GFac                               R   N=          18
  8.21874000E-01  8.21874000E-01  8.21874000E-01  0.00000000E+00  0.00000000E+00
  0.00000000E+00  0.00000000E+00  0.00000000E+00  0.00000000E+00  0.00000000E+00
  0.00000000E+00  2.79284600E+00  2.79284600E+00  2.79284600E+00  2.79284600E+00
  2.79284600E+00  2.79284600E+00  2.79284600E+00
MicOpt                                     I   N=          18
          -1          -1          -1          -1          -1          -1
          -1          -1          -1          -1          -1          -1
          -1          -1          -1          -1          -1          -1
Number of contracted shells                I               61
Number of primitive shells                 I              167
Pure/Cartesian d shells                    I                1
Pure/Cartesian f shells                    I                0
Highest angular momentum                   I                2
Largest degree of contraction              I                6
Shell types                                I   N=          61
           0          -1          -1          -1           2           0
          -1          -1          -1           2           0          -1
          -1          -1           2           0          -1          -1
           2           0          -1          -1           2           0
          -1          -1           2           0          -1          -1
           2           0          -1          -1           2           0
          -1          -1           2           0          -1          -1
           2           0          -1          -1           2           0
           0           0           0           0           0           0
           0           0           0           0           0           0
           0
Number of primitives per shell             I   N=          61
           6           6           3           1           1           6
           6           3           1           1           6           6
           3           1           1           6           3           1
           1           6           3           1           1           6
           3           1           1           6           3           1
           1           6           3           1           1           6
           3           1           1           6           3           1
           1           6           3           1           1           3
           1           3           1           3           1           3
           1           3           1           3           1           3
           1
Shell to atom map                          I   N=          61
           1           1           1           1           1           2
           2           2           2           2           3           3
           3           3           3           4           4           4
           4           5           5           5           5           6
           6           6           6           7           7           7
           7           8           8           8           8           9
           9           9           9          10          10          10
          10          11          11          11          11          12
          12          13          13          14          14          15
          15          16          16          17          17          18
          18
Primitive exponents                        R   N=         167
  2.51801000E+04  3.78035000E+03  8.60474000E+02  2.42145000E+02  7.73349000E+01
  2.62470000E+01  4.91765000E+02  1.16984000E+02  3.74153000E+01  1.37834000E+01
  5.45215000E+00  2.22588000E+00  3.18649000E+00  1.14427000E+00  4.20377000E-01
  1.42657000E-01  7.50000000E-01  2.51801000E+04  3.78035000E+03  8.60474000E+02
  2.42145000E+02  7.73349000E+01  2.62470000E+01  4.91765000E+02  1.16984000E+02
  3.74153000E+01  1.37834000E+01  5.45215000E+00  2.22588000E+00  3.18649000E+00
  1.14427000E+00  4.20377000E-01  1.42657000E-01  7.50000000E-01  2.51801000E+04
  3.78035000E+03  8.60474000E+02  2.42145000E+02  7.73349000E+01  2.62470000E+01
  4.91765000E+02  1.16984000E+02  3.74153000E+01  1.37834000E+01  5.45215000E+00
  2.22588000E+00  3.18649000E+00  1.14427000E+00  4.20377000E-01  1.42657000E-01
  7.50000000E-01  3.04752488E+03  4.57369518E+02  1.03948685E+02  2.92101553E+01
  9.28666296E+00  3.16392696E+00  7.86827235E+00  1.88128854E+00  5.44249258E-01
  1.68714478E-01  8.00000000E-01  3.04752488E+03  4.57369518E+02  1.03948685E+02
  2.92101553E+01  9.28666296E+00  3.16392696E+00  7.86827235E+00  1.88128854E+00
  5.44249258E-01  1.68714478E-01  8.00000000E-01  3.04752488E+03  4.57369518E+02
  1.03948685E+02  2.92101553E+01  9.28666296E+00  3.16392696E+00  7.86827235E+00
  1.88128854E+00  5.44249258E-01  1.68714478E-01  8.00000000E-01  3.04752488E+03
  4.57369518E+02  1.03948685E+02  2.92101553E+01  9.28666296E+00  3.16392696E+00
  7.86827235E+00  1.88128854E+00  5.44249258E-01  1.68714478E-01  8.00000000E-01
  3.04752488E+03  4.57369518E+02  1.03948685E+02  2.92101553E+01  9.28666296E+00
  3.16392696E+00  7.86827235E+00  1.88128854E+00  5.44249258E-01  1.68714478E-01
  8.00000000E-01  3.04752488E+03  4.57369518E+02  1.03948685E+02  2.92101553E+01
  9.28666296E+00  3.16392696E+00  7.86827235E+00  1.88128854E+00  5.44249258E-01
  1.68714478E-01  8.00000000E-01  3.04752488E+03  4.57369518E+02  1.03948685E+02
  2.92101553E+01  9.28666296E+00  3.16392696E+00  7.86827235E+00  1.88128854E+00
  5.44249258E-01  1.68714478E-01  8.00000000E-01  3.04752488E+03  4.57369518E+02
  1.03948685E+02  2.92101553E+01  9.28666296E+00  3.16392696E+00  7.86827235E+00
  1.88128854E+00  5.44249258E-01  1.68714478E-01  8.00000000E-01  1.87311370E+01
  2.82539436E+00  6.40121692E-01  1.61277759E-01  1.87311370E+01  2.82539436E+00
  6.40121692E-01  1.61277759E-01  1.87311370E+01  2.82539436E+00  6.40121692E-01
  1.61277759E-01  1.87311370E+01  2.82539436E+00  6.40121692E-01  1.61277759E-01
  1.87311370E+01  2.82539436E+00  6.40121692E-01  1.61277759E-01  1.87311370E+01
  2.82539436E+00  6.40121692E-01  1.61277759E-01  1.87311370E+01  2.82539436E+00
  6.40121692E-01  1.61277759E-01
Contraction coefficients                   R   N=         167
  1.83295985E-03  1.40341988E-02  6.90973943E-02  2.37451980E-01  4.83033960E-01
  3.39855972E-01 -2.29739142E-03 -3.07137189E-02 -1.12528069E-01  4.50163278E-02
  5.89353363E-01  4.65206287E-01 -2.51828028E-01  6.15892514E-02  1.06018433E+00
  1.00000000E+00  1.00000000E+00  1.83295985E-03  1.40341988E-02  6.90973943E-02
  2.37451980E-01  4.83033960E-01  3.39855972E-01 -2.29739142E-03 -3.07137189E-02
 -1.12528069E-01  4.50163278E-02  5.89353363E-01  4.65206287E-01 -2.51828028E-01
  6.15892514E-02  1.06018433E+00  1.00000000E+00  1.00000000E+00  1.83295985E-03
  1.40341988E-02  6.90973943E-02  2.37451980E-01  4.83033960E-01  3.39855972E-01
 -2.29739142E-03 -3.07137189E-02 -1.12528069E-01  4.50163278E-02  5.89353363E-01
  4.65206287E-01 -2.51828028E-01  6.15892514E-02  1.06018433E+00  1.00000000E+00
  1.00000000E+00  1.83473713E-03  1.40373228E-02  6.88426223E-02  2.32184443E-01
  4.67941348E-01  3.62311985E-01 -1.19332420E-01 -1.60854152E-01  1.14345644E+00
  1.00000000E+00  1.00000000E+00  1.83473713E-03  1.40373228E-02  6.88426223E-02
  2.32184443E-01  4.67941348E-01  3.62311985E-01 -1.19332420E-01 -1.60854152E-01
  1.14345644E+00  1.00000000E+00  1.00000000E+00  1.83473713E-03  1.40373228E-02
  6.88426223E-02  2.32184443E-01  4.67941348E-01  3.62311985E-01 -1.19332420E-01
 -1.60854152E-01  1.14345644E+00  1.00000000E+00  1.00000000E+00  1.83473713E-03
  1.40373228E-02  6.88426223E-02  2.32184443E-01  4.67941348E-01  3.62311985E-01
 -1.19332420E-01 -1.60854152E-01  1.14345644E+00  1.00000000E+00  1.00000000E+00
  1.83473713E-03  1.40373228E-02  6.88426223E-02  2.32184443E-01  4.67941348E-01
  3.62311985E-01 -1.19332420E-01 -1.60854152E-01  1.14345644E+00  1.00000000E+00
  1.00000000E+00  1.83473713E-03  1.40373228E-02  6.88426223E-02  2.32184443E-01
  4.67941348E-01  3.62311985E-01 -1.19332420E-01 -1.60854152E-01  1.14345644E+00
  1.00000000E+00  1.00000000E+00  1.83473713E-03  1.40373228E-02  6.88426223E-02
  2.32184443E-01  4.67941348E-01  3.62311985E-01 -1.19332420E-01 -1.60854152E-01
  1.14345644E+00  1.00000000E+00  1.00000000E+00  1.83473713E-03  1.40373228E-02
  6.88426223E-02  2.32184443E-01  4.67941348E-01  3.62311985E-01 -1.19332420E-01
 -1.60854152E-01  1.14345644E+00  1.00000000E+00  1.00000000E+00  3.34946043E-02
  2.34726953E-01  8.13757326E-01  1.00000000E+00  3.34946043E-02  2.34726953E-01
  8.13757326E-01  1.00000000E+00  3.34946043E-02  2.34726953E-01  8.13757326E-01
  1.00000000E+00  3.34946043E-02  2.34726953E-01  8.13757326E-01  1.00000000E+00
  3.34946043E-02  2.34726953E-01  8.13757326E-01  1.00000000E+00  3.34946043E-02
  2.34726953E-01  8.13757326E-01  1.00000000E+00  3.34946043E-02  2.34726953E-01
  8.13757326E-01  1.00000000E+00
P(S=P) Contraction coefficients            R   N=         167
  0.00000000E+00  0.00000000E+00  0.00000000E+00  0.00000000E+00  0.00000000E+00
  0.00000000E+00  3.98940088E-03  3.03177067E-02  1.29880029E-01  3.27951072E-01
  4.53527100E-01  2.52154056E-01 -1.42993147E-02  3.23572333E-01  7.43507765E-01
  1.00000000E+00  0.00000000E+00  0.00000000E+00  0.00000000E+00  0.00000000E+00
  0.00000000E+00  0.00000000E+00  0.00000000E+00  3.98940088E-03  3.03177067E-02
  1.29880029E-01  3.27951072E-01  4.53527100E-01  2.52154056E-01 -1.42993147E-02
  3.23572333E-01  7.43507765E-01  1.00000000E+00  0.00000000E+00  0.00000000E+00
  0.00000000E+00  0.00000000E+00  0.00000000E+00  0.00000000E+00  0.00000000E+00
  3.98940088E-03  3.03177067E-02  1.29880029E-01  3.27951072E-01  4.53527100E-01
  2.52154056E-01 -1.42993147E-02  3.23572333E-01  7.43507765E-01  1.00000000E+00
  0.00000000E+00  0.00000000E+00  0.00000000E+00  0.00000000E+00  0.00000000E+00
  0.00000000E+00  0.00000000E+00  6.89990666E-02  3.16423961E-01  7.44308291E-01
  1.00000000E+00  0.00000000E+00  0.00000000E+00  0.00000000E+00  0.00000000E+00
  0.00000000E+00  0.00000000E+00  0.00000000E+00  6.89990666E-02  3.16423961E-01
  7.44308291E-01  1.00000000E+00  0.00000000E+00  0.00000000E+00  0.00000000E+00
  0.00000000E+00  0.00000000E+00  0.00000000E+00  0.00000000E+00  6.89990666E-02
  3.16423961E-01  7.44308291E-01  1.00000000E+00  0.00000000E+00  0.00000000E+00
  0.00000000E+00  0.00000000E+00  0.00000000E+00  0.00000000E+00  0.00000000E+00
  6.89990666E-02  3.16423961E-01  7.44308291E-01  1.00000000E+00  0.00000000E+00
  0.00000000E+00  0.00000000E+00  0.00000000E+00  0.00000000E+00  0.00000000E+00
  0.00000000E+00  6.89990666E-02  3.16423961E-01  7.44308291E-01  1.00000000E+00
  0.00000000E+00  0.00000000E+00  0.00000000E+00  0.00000000E+00  0.00000000E+00
  0.00000000E+00  0.00000000E+00  6.89990666E-02  3.16423961E-01  7.44308291E-01
  1.00000000E+00  0.00000000E+00  0.00000000E+00  0.00000000E+00  0.00000000E+00
  0.00000000E+00  0.00000000E+00  0.00000000E+00  6.89990666E-02  3.16423961E-01
  7.44308291E-01  1.00000000E+00  0.00000000E+00  0.00000000E+00  0.00000000E+00
  0.00000000E+00  0.00000000E+00  0.00000000E+00  0.00000000E+00  6.89990666E-02
  3.16423961E-01  7.44308291E-01  1.00000000E+00  0.00000000E+00  0.00000000E+00
  0.00000000E+00  0.00000000E+00  0.00000000E+00  0.00000000E+00  0.00000000E+00
  0.00000000E+00  0.00000000E+00  0.00000000E+00  0.00000000E+00  0.00000000E+00
  0.00000000E+00  0.00000000E+00  0.00000000E+00  0.00000000E+00  0.00000000E+00
  0.00000000E+00  0.00000000E+00  0.00000000E+00  0.00000000E+00  0.00000000E+00
  0.00000000E+00  0.00000000E+00  0.00000000E+00  0.00000000E+00  0.00000000E+00
  0.00000000E+00  0.00000000E+00
Coordinates of each shell                  R   N=         183
 -5.61392136E+00 -6.67762853E-06  1.58456544E+00 -5.61392136E+00 -6.67762853E-06
  1.58456544E+00 -5.61392136E+00 -6.67762853E-06  1.58456544E+00 -5.61392136E+00
 -6.67762853E-06  1.58456544E+00 -5.61392136E+00 -6.67762853E-06  1.58456544E+00
 -2.32654291E+00 -2.73721617E+00 -1.83179379E+00 -2.32654291E+00 -2.73721617E+00
 -1.83179379E+00 -2.32654291E+00 -2.73721617E+00 -1.83179379E+00 -2.32654291E+00
 -2.73721617E+00 -1.83179379E+00 -2.32654291E+00 -2.73721617E+00 -1.83179379E+00
 -2.32655218E+00  2.73722224E+00 -1.83178738E+00 -2.32655218E+00  2.73722224E+00
 -1.83178738E+00 -2.32655218E+00  2.73722224E+00 -1.83178738E+00 -2.32655218E+00
  2.73722224E+00 -1.83178738E+00 -2.32655218E+00  2.73722224E+00 -1.83178738E+00
 -5.59803129E-01  8.01613338E-07  2.16133454E+00 -5.59803129E-01  8.01613338E-07
  2.16133454E+00 -5.59803129E-01  8.01613338E-07  2.16133454E+00 -5.59803129E-01
  8.01613338E-07  2.16133454E+00  2.12646483E+00  5.61527503E-07  1.23301844E+00
  2.12646483E+00  5.61527503E-07  1.23301844E+00  2.12646483E+00  5.61527503E-07
  1.23301844E+00  2.12646483E+00  5.61527503E-07  1.23301844E+00 -2.58783025E+00
  2.06314932E-08  9.30936476E-02 -2.58783025E+00  2.06314932E-08  9.30936476E-02
 -2.58783025E+00  2.06314932E-08  9.30936476E-02 -2.58783025E+00  2.06314932E-08
  9.30936476E-02  3.40815363E+00 -2.28152889E+00  8.27589597E-01  3.40815363E+00
 -2.28152889E+00  8.27589597E-01  3.40815363E+00 -2.28152889E+00  8.27589597E-01
  3.40815363E+00 -2.28152889E+00  8.27589597E-01  3.40815475E+00  2.28152958E+00
  8.27590621E-01  3.40815475E+00  2.28152958E+00  8.27590621E-01  3.40815475E+00
  2.28152958E+00  8.27590621E-01  3.40815475E+00  2.28152958E+00  8.27590621E-01
  5.90684656E+00 -2.28214610E+00 -1.29891279E-02  5.90684656E+00 -2.28214610E+00
 -1.29891279E-02  5.90684656E+00 -2.28214610E+00 -1.29891279E-02  5.90684656E+00
 -2.28214610E+00 -1.29891279E-02  5.90684772E+00  2.28214584E+00 -1.29880549E-02
  5.90684772E+00  2.28214584E+00 -1.29880549E-02  5.90684772E+00  2.28214584E+00
 -1.29880549E-02  5.90684772E+00  2.28214584E+00 -1.29880549E-02  7.16096452E+00
 -3.20442255E-07 -4.40373470E-01  7.16096452E+00 -3.20442255E-07 -4.40373470E-01
  7.16096452E+00 -3.20442255E-07 -4.40373470E-01  7.16096452E+00 -3.20442255E-07
 -4.40373470E-01 -9.20609605E-01  1.66854177E+00  3.33150018E+00 -9.20609605E-01
  1.66854177E+00  3.33150018E+00 -9.20609224E-01 -1.66854021E+00  3.33150027E+00
 -9.20609224E-01 -1.66854021E+00  3.33150027E+00  2.44614899E+00 -4.06441754E+00
  1.17553431E+00  2.44614899E+00 -4.06441754E+00  1.17553431E+00  2.44615114E+00
  4.06441858E+00  1.17553632E+00  2.44615114E+00  4.06441858E+00  1.17553632E+00
  6.87965411E+00 -4.06587121E+00 -3.19169294E-01  6.87965411E+00 -4.06587121E+00
 -3.19169294E-01  6.87965599E+00  4.06587070E+00 -3.19167361E-01  6.87965599E+00
  4.06587070E+00 -3.19167361E-01  9.11009659E+00 -6.60830099E-07 -1.09012419E+00
  9.11009659E+00 -6.60830099E-07 -1.09012419E+00
Constraint Structure                       R   N=          54
 -5.61392136E+00 -6.67762853E-06  1.58456544E+00 -2.32654291E+00 -2.73721617E+00
 -1.83179379E+00 -2.32655218E+00  2.73722224E+00 -1.83178738E+00 -5.59803129E-01
  8.01613338E-07  2.16133454E+00  2.12646483E+00  5.61527503E-07  1.23301844E+00
 -2.58783025E+00  2.06314932E-08  9.30936476E-02  3.40815363E+00 -2.28152889E+00
  8.27589597E-01  3.40815475E+00  2.28152958E+00  8.27590621E-01  5.90684656E+00
 -2.28214610E+00 -1.29891279E-02  5.90684772E+00  2.28214584E+00 -1.29880549E-02
  7.16096452E+00 -3.20442255E-07 -4.40373470E-01 -9.20609605E-01  1.66854177E+00
  3.33150018E+00 -9.20609224E-01 -1.66854021E+00  3.33150027E+00  2.44614899E+00
 -4.06441754E+00  1.17553431E+00  2.44615114E+00  4.06441858E+00  1.17553632E+00
  6.87965411E+00 -4.06587121E+00 -3.19169294E-01  6.87965599E+00  4.06587070E+00
 -3.19167361E-01  9.11009659E+00 -6.60830099E-07 -1.09012419E+00
Num ILSW                                   I              100
ILSW                                       I   N=         100
           0           1           0           0           2           0
           0           0           0           0           0          -1
           0           0           0           0           0           0
           0           0           0           0           1           0
           1           0           0           0           0           0
           0           0      100000           0          -1           0
           0           0           0           0           0           0
           0           0           0           1           1           0
           0           0           1           0           0           0
           0           0           4          40           0           0
           0           0           0           0           0           0
           0           0           0           0           0           0
           0           0           0           0           0           0
           0           0           0           0           0           0
           0           0           0           0           0           0
           0           0           0           0           0           0
           0           0           0           0
Num RLSW                                   I               40
RLSW                                       R   N=          40
  1.00000000E+00  1.00000000E+00  1.00000000E+00  1.00000000E+00  1.00000000E+00
  0.00000000E+00  0.00000000E+00  1.00000000E+00  0.00000000E+00  0.00000000E+00
  0.00000000E+00  0.00000000E+00  1.00000000E+00  0.00000000E+00  0.00000000E+00
  0.00000000E+00  0.00000000E+00  1.00000000E+00  0.00000000E+00  0.00000000E+00
  0.00000000E+00  0.00000000E+00  1.00000000E+00  0.00000000E+00  0.00000000E+00
  0.00000000E+00  0.00000000E+00  1.00000000E+00  0.00000000E+00  0.00000000E+00
  0.00000000E+00  0.00000000E+00  0.00000000E+00  0.00000000E+00  0.00000000E+00
  0.00000000E+00  0.00000000E+00  0.00000000E+00  1.00000000E+00  1.00000000E+00
MxBond                                     I                4
NBond                                      I   N=          18
           1           1           1           4           3           4
           3           3           3           3           3           1
           1           1           1           1           1           1
IBond                                      I   N=          72
           6           0           0           0           6           0
           0           0           6           0           0           0
           5           6          12          13           4           7
           8           0           1           2           3           4
           5           9          14           0           5          10
          15           0           7          11          16           0
           8          11          17           0           9          10
          18           0           4           0           0           0
           4           0           0           0           7           0
           0           0           8           0           0           0
           9           0           0           0          10           0
           0           0          11           0           0           0
RBond                                      R   N=          72
  1.00000000E+00  0.00000000E+00  0.00000000E+00  0.00000000E+00  1.00000000E+00
  0.00000000E+00  0.00000000E+00  0.00000000E+00  1.00000000E+00  0.00000000E+00
  0.00000000E+00  0.00000000E+00  1.00000000E+00  1.00000000E+00  1.00000000E+00
  1.00000000E+00  1.00000000E+00  1.50000000E+00  1.50000000E+00  0.00000000E+00
  1.00000000E+00  1.00000000E+00  1.00000000E+00  1.00000000E+00  1.50000000E+00
  1.50000000E+00  1.00000000E+00  0.00000000E+00  1.50000000E+00  1.50000000E+00
  1.00000000E+00  0.00000000E+00  1.50000000E+00  1.50000000E+00  1.00000000E+00
  0.00000000E+00  1.50000000E+00  1.50000000E+00  1.00000000E+00  0.00000000E+00
  1.50000000E+00  1.50000000E+00  1.00000000E+00  0.00000000E+00  1.00000000E+00
  0.00000000E+00  0.00000000E+00  0.00000000E+00  1.00000000E+00  0.00000000E+00
  0.00000000E+00  0.00000000E+00  1.00000000E+00  0.00000000E+00  0.00000000E+00
  0.00000000E+00  1.00000000E+00  0.00000000E+00  0.00000000E+00  0.00000000E+00
  1.00000000E+00  0.00000000E+00  0.00000000E+00  0.00000000E+00  1.00000000E+00
  0.00000000E+00  0.00000000E+00  0.00000000E+00  1.00000000E+00  0.00000000E+00
  0.00000000E+00  0.00000000E+00
Virial Ratio                               R      2.000628256039180E+00
SCF Energy                                 R     -1.685449099539161E+03
MP2 Energy                                 R     -1.686871761942405E+03
Total Energy                               R     -1.686871761942405E+03
Post-SCF wavefunction norm                 R      1.745182747223353E+00
RMS Force                                  R      1.210797309850974E-06
RMS Density                                R      2.105335148320813E-09
External E-field                           R   N=          35
  0.00000000E+00  0.00000000E+00  0.00000000E+00  0.00000000E+00  0.00000000E+00
  0.00000000E+00  0.00000000E+00  0.00000000E+00  0.00000000E+00  0.00000000E+00
  0.00000000E+00  0.00000000E+00  0.00000000E+00  0.00000000E+00  0.00000000E+00
  0.00000000E+00  0.00000000E+00  0.00000000E+00  0.00000000E+00  0.00000000E+00
  0.00000000E+00  0.00000000E+00  0.00000000E+00  0.00000000E+00  0.00000000E+00
  0.00000000E+00  0.00000000E+00  0.00000000E+00  0.00000000E+00  0.00000000E+00
  0.00000000E+00  0.00000000E+00  0.00000000E+00  0.00000000E+00  0.00000000E+00
IOpCl                                      I                0
IROHF                                      I                0
Alpha Orbital Energies                     R   N=         191
 -1.04844077E+02 -1.04843230E+02 -1.04843229E+02 -1.14345621E+01 -1.12728240E+01
 -1.12544663E+01 -1.12453023E+01 -1.12452502E+01 -1.12443870E+01 -1.12424675E+01
 -1.12421304E+01 -1.05783555E+01 -1.05775525E+01 -1.05775367E+01 -8.04767311E+00
 -8.04690077E+00 -8.04689164E+00 -8.04399924E+00 -8.04398543E+00 -8.04319626E+00
 -8.04319589E+00 -8.04313823E+00 -8.04313610E+00 -1.25008786E+00 -1.15966184E+00
 -1.10815978E+00 -1.10734885E+00 -1.06524818E+00 -1.01897427E+00 -9.73664729E-01
 -8.33677308E-01 -8.32451706E-01 -7.86951151E-01 -7.02774718E-01 -6.68280067E-01
 -6.56604127E-01 -6.44189030E-01 -6.21186002E-01 -6.14641427E-01 -5.91836041E-01
 -5.71203364E-01 -5.48636998E-01 -5.09885811E-01 -5.02523839E-01 -4.98907644E-01
 -4.92504934E-01 -4.87272434E-01 -4.59412384E-01 -4.55066670E-01 -4.54111454E-01
 -4.42451572E-01 -3.38563587E-01 -3.36728937E-01  1.12993899E-01  1.35850383E-01
  1.44090931E-01  1.83087845E-01  1.83238892E-01  2.29024275E-01  2.60901115E-01
  2.69534328E-01  3.05550049E-01  3.10102249E-01  3.29096523E-01  3.31489641E-01
  3.35740334E-01  3.71560118E-01  3.96502415E-01  4.68794193E-01  4.70634368E-01
  4.84291368E-01  5.07949216E-01  5.13681999E-01  5.43129647E-01  5.49029617E-01
  5.91257427E-01  5.94735709E-01  6.26803050E-01  6.27234020E-01  6.44478018E-01
  6.67389551E-01  6.86304262E-01  6.93477634E-01  6.99826937E-01  7.08946375E-01
  7.15292419E-01  7.32079755E-01  7.57451741E-01  7.62131398E-01  7.79316265E-01
  7.93738202E-01  8.23609180E-01  8.27483246E-01  8.30294487E-01  8.37161351E-01
  8.38078193E-01  8.48656466E-01  8.89895633E-01  8.94706966E-01  9.11465442E-01
  9.36016919E-01  9.56528449E-01  1.00727836E+00  1.02329816E+00  1.05499298E+00
  1.08672747E+00  1.09059663E+00  1.10474429E+00  1.10477084E+00  1.11622689E+00
  1.11655603E+00  1.13106975E+00  1.14230977E+00  1.14483056E+00  1.16050451E+00
  1.16743899E+00  1.16884739E+00  1.17693754E+00  1.17857627E+00  1.20327566E+00
  1.21658078E+00  1.23656455E+00  1.24023796E+00  1.26537765E+00  1.29426141E+00
  1.32111096E+00  1.34770579E+00  1.35325914E+00  1.36344641E+00  1.40046970E+00
  1.41632918E+00  1.43744123E+00  1.49049048E+00  1.51511301E+00  1.53396502E+00
  1.61495504E+00  1.62055577E+00  1.69076677E+00  1.71281782E+00  1.73972592E+00
  1.75349038E+00  1.76074393E+00  1.78570470E+00  1.81039525E+00  1.88245075E+00
  1.98023059E+00  1.99026618E+00  2.10238016E+00  2.10463818E+00  2.12810170E+00
  2.16292417E+00  2.21701271E+00  2.23594416E+00  2.28087454E+00  2.28324316E+00
  2.31787036E+00  2.37493168E+00  2.42900408E+00  2.44464528E+00  2.44903357E+00
  2.45717592E+00  2.46506582E+00  2.51299322E+00  2.56001284E+00  2.60906982E+00
  2.62809083E+00  2.69021567E+00  2.70360927E+00  2.74219240E+00  2.89625170E+00
  2.90263712E+00  2.95584038E+00  2.99317220E+00  3.06881039E+00  3.09245153E+00
  3.09506670E+00  3.12535479E+00  3.23318624E+00  3.41696426E+00  3.77807329E+00