
    -----------------------------------------------------------------------
          Psi4: An Open-Source Ab Initio Electronic Structure Package
                               Psi4 1.4a3.dev225 

                         Git: Rev {master} 7105e37 


    D. G. A. Smith, L. A. Burns, A. C. Simmonett, R. M. Parrish,
    M. C. Schieber, R. Galvelis, P. Kraus, H. Kruse, R. Di Remigio,
    A. Alenaizan, A. M. James, S. Lehtola, J. P. Misiewicz, M. Scheurer,
    R. A. Shaw, J. B. Schriber, Y. Xie, Z. L. Glick, D. A. Sirianni,
    J. S. O'Brien, J. M. Waldrop, A. Kumar, E. G. Hohenstein,
    B. P. Pritchard, B. R. Brooks, H. F. Schaefer III, A. Yu. Sokolov,
    K. Patkowski, A. E. DePrince III, U. Bozkaya, R. A. King,
    F. A. Evangelista, J. M. Turney, T. D. Crawford, C. D. Sherrill,
    J. Chem. Phys. 152(18) 184108 (2020). https://doi.org/10.1063/5.0006002

                            Additional Code Authors
    E. T. Seidl, C. L. Janssen, E. F. Valeev, M. L. Leininger,
    J. F. Gonthier, R. M. Richard, H. R. McAlexander, M. Saitow, X. Wang,
    P. Verma, and M. H. Lechner

             Previous Authors, Complete List of Code Contributors,
                       and Citations for Specific Modules
    https://github.com/psi4/psi4/blob/master/codemeta.json
    https://github.com/psi4/psi4/graphs/contributors
    http://psicode.org/psi4manual/master/introduction.html#citing-psifour

    -----------------------------------------------------------------------


    Psi4 started on: Saturday, 06 March 2021 11:09PM

    Process ID: 244382
    Host:       c420-011.stampede2.tacc.utexas.edu
    PSIDATADIR: /home1/07844/xy3866/miniconda3/envs/p4env/share/psi4
    Memory:     500.0 MiB
    Threads:    32
    
  ==> Input File <==

--------------------------------------------------------------------------
#psi4
#
memory 32 gb

molecule  {
0 1
  O        0.1020250    -0.5936610     0.2432790
  O        2.2583290    -0.7266490     0.4785580
  O        1.4190320     0.9870310    -0.7687790
  C       -1.2039215     0.1648951    -0.3325914
  C       -2.1583360    -1.0099580    -0.2947280
  C       -1.4377530     1.2430580     0.6217300
  C        1.2597240    -0.0090520    -0.0847670
  H       -0.8680500     0.4152130    -1.2840580
  H       -3.0925200    -0.6019470    -0.6907100
  H       -1.8459410    -1.8462780    -0.9239700
  H       -2.3397190    -1.3819350     0.7169650
  H       -2.3557360     1.7247410     0.2719260
  H       -0.6338990     1.9813890     0.6069580
  H       -1.5931290     0.8972140     1.6473570
  H        3.0793230    -0.2701740     0.2118980
units angstrom
no_reorient  #important for SAPT in psi4, default
symmetry c1  #important for SAPT in psi4, default
}

set PROPERTIES_ORIGIN ["COM"]
properties('MP2/aug-cc-pvtz', properties = ['dipole'])
--------------------------------------------------------------------------

  Memory set to  29.802 GiB by Python driver.
    SCF Algorithm Type (re)set to DF.

*** tstart() called on c420-011.stampede2.tacc.utexas.edu
*** at Sat Mar  6 23:09:50 2021

   => Loading Basis Set <=

    Name: AUG-CC-PVTZ
    Role: ORBITAL
    Keyword: BASIS
    atoms 1-3  entry O          line   331 file /home1/07844/xy3866/miniconda3/envs/p4env/share/psi4/basis/aug-cc-pvtz.gbs 
    atoms 4-7  entry C          line   239 file /home1/07844/xy3866/miniconda3/envs/p4env/share/psi4/basis/aug-cc-pvtz.gbs 
    atoms 8-15 entry H          line    40 file /home1/07844/xy3866/miniconda3/envs/p4env/share/psi4/basis/aug-cc-pvtz.gbs 


         ---------------------------------------------------------
                                   SCF
               by Justin Turney, Rob Parrish, Andy Simmonett
                          and Daniel G. A. Smith
                              RHF Reference
                       32 Threads,  30517 MiB Core
         ---------------------------------------------------------

  ==> Geometry <==

    Molecular point group: c1
    Full point group: C1

    Geometry (in Angstrom), charge = 0, multiplicity = 1:

       Center              X                  Y                   Z               Mass       
    ------------   -----------------  -----------------  -----------------  -----------------
         O            0.022807808367    -0.596178663255     0.255527179048    15.994914619570
         O            2.179111808367    -0.729166663255     0.490806179048    15.994914619570
         O            1.339814808367     0.984513336745    -0.756530820952    15.994914619570
         C           -1.283138691633     0.162377436745    -0.320343220952    12.000000000000
         C           -2.237553191633    -1.012475663255    -0.282479820952    12.000000000000
         C           -1.516970191633     1.240540336745     0.633978179048    12.000000000000
         C            1.180506808367    -0.011569663255    -0.072518820952    12.000000000000
         H           -0.947267191633     0.412695336745    -1.271809820952     1.007825032230
         H           -3.171737191633    -0.604464663255    -0.678461820952     1.007825032230
         H           -1.925158191633    -1.848795663255    -0.911721820952     1.007825032230
         H           -2.418936191633    -1.384452663255     0.729213179048     1.007825032230
         H           -2.434953191633     1.722223336745     0.284174179048     1.007825032230
         H           -0.713116191633     1.978871336745     0.619206179048     1.007825032230
         H           -1.672346191633     0.894696336745     1.659605179048     1.007825032230
         H            3.000105808367    -0.272691663255     0.224146179048     1.007825032230

  Running in c1 symmetry.

  Rotational constants: A =      0.16467  B =      0.05706  C =      0.04918 [cm^-1]
  Rotational constants: A =   4936.54702  B =   1710.49451  C =   1474.38445 [MHz]
  Nuclear repulsion =  322.590869929073790

  Charge       = 0
  Multiplicity = 1
  Electrons    = 56
  Nalpha       = 28
  Nbeta        = 28

  ==> Algorithm <==

  SCF Algorithm Type is DF.
  DIIS enabled.
  MOM disabled.
  Fractional occupation disabled.
  Guess Type is SAD.
  Energy threshold   = 1.00e-10
  Density threshold  = 1.00e-10
  Integral threshold = 1.00e-12

  ==> Primary Basis <==

  Basis Set: AUG-CC-PVTZ
    Blend: AUG-CC-PVTZ
    Number of shells: 170
    Number of basis functions: 506
    Number of Cartesian functions: 585
    Spherical Harmonics?: true
    Max angular momentum: 3

   => Loading Basis Set <=

    Name: (AUG-CC-PVTZ AUX)
    Role: JKFIT
    Keyword: DF_BASIS_SCF
    atoms 1-3  entry O          line   286 file /home1/07844/xy3866/miniconda3/envs/p4env/share/psi4/basis/aug-cc-pvtz-jkfit.gbs 
    atoms 4-7  entry C          line   162 file /home1/07844/xy3866/miniconda3/envs/p4env/share/psi4/basis/aug-cc-pvtz-jkfit.gbs 
    atoms 8-15 entry H          line    70 file /home1/07844/xy3866/miniconda3/envs/p4env/share/psi4/basis/aug-cc-pvtz-jkfit.gbs 

  ==> Integral Setup <==

  DFHelper Memory: AOs need 2.085 GiB; user supplied 22.352 GiB. Using in-core AOs.

  ==> MemDFJK: Density-Fitted J/K Matrices <==

    J tasked:                   Yes
    K tasked:                   Yes
    wK tasked:                   No
    OpenMP threads:              32
    Memory [MiB]:             22888
    Algorithm:                 Core
    Schwarz Cutoff:           1E-12
    Mask sparsity (%):       6.0663
    Fitting Condition:        1E-10

   => Auxiliary Basis Set <=

  Basis Set: (AUG-CC-PVTZ AUX)
    Blend: AUG-CC-PVTZ-JKFIT
    Number of shells: 322
    Number of basis functions: 1096
    Number of Cartesian functions: 1357
    Spherical Harmonics?: true
    Max angular momentum: 4

  Minimum eigenvalue in the overlap matrix is 6.1157240452E-06.
  Reciprocal condition number of the overlap matrix is 3.3853376207E-07.
    Using symmetric orthogonalization.

  ==> Pre-Iterations <==

  SCF Guess: Superposition of Atomic Densities via on-the-fly atomic UHF (no occupation information).

   -------------------------
    Irrep   Nso     Nmo    
   -------------------------
     A        506     506 
   -------------------------
    Total     506     506
   -------------------------

  ==> Iterations <==

                           Total Energy        Delta E     RMS |[F,P]|

   @DF-RHF iter SAD:  -379.76905436386068   -3.79769e+02   0.00000e+00 
   @DF-RHF iter   1:  -380.60035120552055   -8.31297e-01   1.53128e-03 DIIS
   @DF-RHF iter   2:  -380.80799567466141   -2.07644e-01   8.90604e-04 DIIS
   @DF-RHF iter   3:  -380.87702549807085   -6.90298e-02   1.40370e-04 DIIS
   @DF-RHF iter   4:  -380.88037657718286   -3.35108e-03   5.74778e-05 DIIS
   @DF-RHF iter   5:  -380.88087921937722   -5.02642e-04   1.56017e-05 DIIS
   @DF-RHF iter   6:  -380.88092295067526   -4.37313e-05   6.75307e-06 DIIS
   @DF-RHF iter   7:  -380.88093219435285   -9.24368e-06   1.91002e-06 DIIS
   @DF-RHF iter   8:  -380.88093343488458   -1.24053e-06   9.29148e-07 DIIS
   @DF-RHF iter   9:  -380.88093366196063   -2.27076e-07   3.06292e-07 DIIS
   @DF-RHF iter  10:  -380.88093369070879   -2.87482e-08   1.05377e-07 DIIS
   @DF-RHF iter  11:  -380.88093369407324   -3.36445e-09   3.59932e-08 DIIS
   @DF-RHF iter  12:  -380.88093369442856   -3.55328e-10   1.18309e-08 DIIS
   @DF-RHF iter  13:  -380.88093369446636   -3.78009e-11   2.61472e-09 DIIS
   @DF-RHF iter  14:  -380.88093369446858   -2.21689e-12   9.32996e-10 DIIS
   @DF-RHF iter  15:  -380.88093369446943   -8.52651e-13   2.89365e-10 DIIS
   @DF-RHF iter  16:  -380.88093369446841    1.02318e-12   8.90573e-11 DIIS
  Energy and wave function converged.


  ==> Post-Iterations <==

    Orbital Energies [Eh]
    ---------------------

    Doubly Occupied:                                                      

       1A    -20.611780     2A    -20.587323     3A    -20.540207  
       4A    -11.425974     5A    -11.311283     6A    -11.234251  
       7A    -11.230211     8A     -1.484967     9A     -1.370648  
      10A     -1.346131    11A     -1.092157    12A     -0.963770  
      13A     -0.860797    14A     -0.800093    15A     -0.722794  
      16A     -0.705083    17A     -0.668662    18A     -0.639931  
      19A     -0.628059    20A     -0.597247    21A     -0.576528  
      22A     -0.558032    23A     -0.535295    24A     -0.513657  
      25A     -0.505781    26A     -0.499799    27A     -0.465516  
      28A     -0.460815  

    Virtual:                                                              

      29A      0.027990    30A      0.035256    31A      0.037852  
      32A      0.040675    33A      0.052607    34A      0.060354  
      35A      0.062356    36A      0.065020    37A      0.091294  
      38A      0.104557    39A      0.110842    40A      0.117925  
      41A      0.121843    42A      0.124079    43A      0.127932  
      44A      0.131357    45A      0.136442    46A      0.144502  
      47A      0.150435    48A      0.154670    49A      0.161682  
      50A      0.165694    51A      0.187861    52A      0.188921  
      53A      0.192016    54A      0.204956    55A      0.211761  
      56A      0.221512    57A      0.227553    58A      0.232079  
      59A      0.241335    60A      0.244604    61A      0.252108  
      62A      0.260400    63A      0.270424    64A      0.281073  
      65A      0.290418    66A      0.291857    67A      0.296999  
      68A      0.305987    69A      0.312554    70A      0.325864  
      71A      0.328640    72A      0.336221    73A      0.339096  
      74A      0.343867    75A      0.351632    76A      0.353925  
      77A      0.362225    78A      0.363726    79A      0.372715  
      80A      0.381748    81A      0.384340    82A      0.388031  
      83A      0.392658    84A      0.403123    85A      0.411378  
      86A      0.415857    87A      0.424459    88A      0.430878  
      89A      0.431763    90A      0.445519    91A      0.446538  
      92A      0.455785    93A      0.462054    94A      0.470812  
      95A      0.474432    96A      0.476180    97A      0.485192  
      98A      0.490924    99A      0.496565   100A      0.505170  
     101A      0.514737   102A      0.520081   103A      0.525159  
     104A      0.530865   105A      0.535001   106A      0.542956  
     107A      0.562094   108A      0.566509   109A      0.568767  
     110A      0.574335   111A      0.593906   112A      0.598162  
     113A      0.605058   114A      0.613545   115A      0.615153  
     116A      0.621944   117A      0.631127   118A      0.644149  
     119A      0.661583   120A      0.673903   121A      0.681834  
     122A      0.696612   123A      0.707040   124A      0.713766  
     125A      0.731702   126A      0.747124   127A      0.755966  
     128A      0.762995   129A      0.783640   130A      0.795616  
     131A      0.803921   132A      0.810001   133A      0.819406  
     134A      0.824994   135A      0.834994   136A      0.845122  
     137A      0.846671   138A      0.853033   139A      0.860872  
     140A      0.873244   141A      0.878378   142A      0.879958  
     143A      0.888055   144A      0.894132   145A      0.902974  
     146A      0.917357   147A      0.921311   148A      0.929423  
     149A      0.935303   150A      0.945899   151A      0.950767  
     152A      0.953897   153A      0.966842   154A      0.969335  
     155A      0.973644   156A      0.987910   157A      0.999431  
     158A      1.004060   159A      1.013204   160A      1.017719  
     161A      1.026895   162A      1.040501   163A      1.042570  
     164A      1.050629   165A      1.062114   166A      1.066528  
     167A      1.077579   168A      1.094369   169A      1.102628  
     170A      1.119754   171A      1.122212   172A      1.127219  
     173A      1.136894   174A      1.144849   175A      1.150333  
     176A      1.161670   177A      1.167811   178A      1.180218  
     179A      1.182974   180A      1.193676   181A      1.207600  
     182A      1.218975   183A      1.221127   184A      1.230970  
     185A      1.249803   186A      1.258874   187A      1.264259  
     188A      1.271330   189A      1.290615   190A      1.297814  
     191A      1.311628   192A      1.319886   193A      1.331168  
     194A      1.340989   195A      1.357006   196A      1.361825  
     197A      1.371285   198A      1.382593   199A      1.397630  
     200A      1.406137   201A      1.412179   202A      1.428448  
     203A      1.436979   204A      1.444084   205A      1.463154  
     206A      1.464600   207A      1.480614   208A      1.482943  
     209A      1.506480   210A      1.514743   211A      1.532106  
     212A      1.534199   213A      1.547266   214A      1.557585  
     215A      1.559980   216A      1.579987   217A      1.595270  
     218A      1.606011   219A      1.613842   220A      1.620565  
     221A      1.639234   222A      1.657363   223A      1.661517  
     224A      1.679764   225A      1.694158   226A      1.706663  
     227A      1.713960   228A      1.721390   229A      1.724857  
     230A      1.734936   231A      1.740433   232A      1.751407  
     233A      1.760300   234A      1.772520   235A      1.777201  
     236A      1.801671   237A      1.804672   238A      1.814402  
     239A      1.826395   240A      1.841241   241A      1.858290  
     242A      1.860401   243A      1.874606   244A      1.886184  
     245A      1.892382   246A      1.898695   247A      1.916481  
     248A      1.921628   249A      1.953075   250A      1.968834  
     251A      1.982822   252A      2.004531   253A      2.013380  
     254A      2.031369   255A      2.037433   256A      2.053729  
     257A      2.064911   258A      2.104621   259A      2.113011  
     260A      2.129176   261A      2.157308   262A      2.163356  
     263A      2.209719   264A      2.217652   265A      2.232235  
     266A      2.234627   267A      2.249049   268A      2.265019  
     269A      2.270015   270A      2.284813   271A      2.295248  
     272A      2.322224   273A      2.345979   274A      2.352155  
     275A      2.360317   276A      2.364106   277A      2.379811  
     278A      2.395133   279A      2.418730   280A      2.438779  
     281A      2.486427   282A      2.497991   283A      2.508500  
     284A      2.508821   285A      2.523528   286A      2.558939  
     287A      2.575485   288A      2.584559   289A      2.594787  
     290A      2.603080   291A      2.634740   292A      2.650590  
     293A      2.666652   294A      2.689871   295A      2.722568  
     296A      2.724887   297A      2.752529   298A      2.766603  
     299A      2.802725   300A      2.824810   301A      2.835838  
     302A      2.856425   303A      2.873245   304A      2.878453  
     305A      2.895067   306A      2.949963   307A      2.965928  
     308A      2.975289   309A      2.982771   310A      3.023751  
     311A      3.054809   312A      3.081682   313A      3.091415  
     314A      3.112051   315A      3.140121   316A      3.183063  
     317A      3.202411   318A      3.275812   319A      3.299361  
     320A      3.322142   321A      3.335929   322A      3.376393  
     323A      3.401842   324A      3.434149   325A      3.462041  
     326A      3.472098   327A      3.495007   328A      3.501567  
     329A      3.508929   330A      3.546980   331A      3.580755  
     332A      3.618163   333A      3.631478   334A      3.640517  
     335A      3.661884   336A      3.667958   337A      3.685168  
     338A      3.699134   339A      3.712195   340A      3.726572  
     341A      3.737145   342A      3.769287   343A      3.781075  
     344A      3.787308   345A      3.826274   346A      3.830606  
     347A      3.846786   348A      3.856775   349A      3.870312  
     350A      3.897401   351A      3.906403   352A      3.917146  
     353A      3.924865   354A      3.958754   355A      3.979760  
     356A      3.984641   357A      3.986397   358A      4.019001  
     359A      4.026087   360A      4.073896   361A      4.085115  
     362A      4.096898   363A      4.108854   364A      4.131856  
     365A      4.161206   366A      4.168591   367A      4.175996  
     368A      4.185902   369A      4.195644   370A      4.205672  
     371A      4.219920   372A      4.234434   373A      4.267208  
     374A      4.285245   375A      4.306552   376A      4.312946  
     377A      4.326003   378A      4.341708   379A      4.353366  
     380A      4.364909   381A      4.379933   382A      4.389321  
     383A      4.434684   384A      4.475394   385A      4.481875  
     386A      4.511267   387A      4.515606   388A      4.533220  
     389A      4.565625   390A      4.579944   391A      4.607672  
     392A      4.622798   393A      4.631491   394A      4.673665  
     395A      4.687621   396A      4.710110   397A      4.743150  
     398A      4.757571   399A      4.771519   400A      4.787906  
     401A      4.837681   402A      4.849497   403A      4.872252  
     404A      4.892259   405A      4.905832   406A      4.935582  
     407A      4.944047   408A      4.968474   409A      4.998370  
     410A      5.010980   411A      5.043263   412A      5.082790  
     413A      5.099831   414A      5.123099   415A      5.125991  
     416A      5.157688   417A      5.171087   418A      5.202144  
     419A      5.217173   420A      5.264291   421A      5.283371  
     422A      5.292323   423A      5.296781   424A      5.314702  
     425A      5.357346   426A      5.363528   427A      5.387048  
     428A      5.415854   429A      5.428243   430A      5.437270  
     431A      5.469925   432A      5.486742   433A      5.519967  
     434A      5.524718   435A      5.578482   436A      5.589998  
     437A      5.658063   438A      5.683833   439A      5.692041  
     440A      5.746942   441A      5.758760   442A      5.792299  
     443A      5.837578   444A      5.880440   445A      5.999611  
     446A      6.019369   447A      6.067102   448A      6.095113  
     449A      6.107111   450A      6.162805   451A      6.218297  
     452A      6.262401   453A      6.268912   454A      6.279235  
     455A      6.375460   456A      6.436488   457A      6.573136  
     458A      6.605585   459A      6.627969   460A      6.759748  
     461A      6.791385   462A      6.807644   463A      6.811736  
     464A      6.835892   465A      6.851305   466A      6.870802  
     467A      6.888363   468A      6.902044   469A      6.940063  
     470A      6.972050   471A      7.024543   472A      7.057788  
     473A      7.106704   474A      7.169934   475A      7.197825  
     476A      7.218392   477A      7.245103   478A      7.270587  
     479A      7.318486   480A      7.374631   481A      7.392718  
     482A      7.418663   483A      7.462980   484A      7.484724  
     485A      7.507362   486A      7.574007   487A      7.605076  
     488A      7.653531   489A      7.708701   490A      7.778447  
     491A      7.894658   492A      7.927345   493A      7.945532  
     494A      7.995609   495A      8.164193   496A      8.234847  
     497A      8.332266   498A      8.552524   499A      8.619666  
     500A     14.705686   501A     15.430648   502A     16.346142  
     503A     17.876781   504A     18.336184   505A     18.931055  
     506A     20.105660  

    Final Occupation by Irrep:
              A 
    DOCC [    28 ]

  @DF-RHF Final Energy:  -380.88093369446841

   => Energetics <=

    Nuclear Repulsion Energy =            322.5908699290737900
    One-Electron Energy =               -1161.0700281814329173
    Two-Electron Energy =                 457.5982245578907737
    Total Energy =                       -380.8809336944684105

Computation Completed

*** tstop() called on c420-011.stampede2.tacc.utexas.edu at Sat Mar  6 23:10:11 2021
Module time:
	user time   =     325.89 seconds =       5.43 minutes
	system time =      27.94 seconds =       0.47 minutes
	total time  =         21 seconds =       0.35 minutes
Total time:
	user time   =     325.89 seconds =       5.43 minutes
	system time =      27.94 seconds =       0.47 minutes
	total time  =         21 seconds =       0.35 minutes
   => Loading Basis Set <=

    Name: (AUG-CC-PVTZ AUX)
    Role: RIFIT
    Keyword: DF_BASIS_MP2
    atoms 1-3  entry O          line   264 file /home1/07844/xy3866/miniconda3/envs/p4env/share/psi4/basis/aug-cc-pvtz-ri.gbs 
    atoms 4-7  entry C          line   148 file /home1/07844/xy3866/miniconda3/envs/p4env/share/psi4/basis/aug-cc-pvtz-ri.gbs 
    atoms 8-15 entry H          line    30 file /home1/07844/xy3866/miniconda3/envs/p4env/share/psi4/basis/aug-cc-pvtz-ri.gbs 


*** tstart() called on c420-011.stampede2.tacc.utexas.edu
*** at Sat Mar  6 23:10:12 2021


  //>>>>>>>>>>>>>>>>>>>>>>>>>>>>>>>>>>>//
  //               DFMP2               //
  //<<<<<<<<<<<<<<<<<<<<<<<<<<<<<<<<<<<//

	 --------------------------------------------------------
	                          DF-MP2                         
	      2nd-Order Density-Fitted Moller-Plesset Theory     
	              RMP2 Wavefunction,  32 Threads             
	                                                         
	        Rob Parrish, Justin Turney, Andy Simmonett,      
	           Ed Hohenstein, and C. David Sherrill          
	 --------------------------------------------------------

   => Auxiliary Basis Set <=

  Basis Set: (AUG-CC-PVTZ AUX)
    Blend: AUG-CC-PVTZ-RI
    Number of shells: 308
    Number of basis functions: 1110
    Number of Cartesian functions: 1392
    Spherical Harmonics?: true
    Max angular momentum: 4

	 --------------------------------------------------------
	                 NBF =   506, NAUX =  1110
	 --------------------------------------------------------
	   CLASS    FOCC     OCC    AOCC    AVIR     VIR    FVIR
	   PAIRS       0      28      28     478     478       0
	 --------------------------------------------------------

  DFHelper Memory: AOs need 2.136 GiB; user supplied 22.352 GiB. Using in-core AOs.


         ------------------------------------------------------------
                                     CPHF                           
                                  Rob Parrish                       
         ------------------------------------------------------------

  ==> Geometry <==

    Molecular point group: c1
    Full point group: C1

    Geometry (in Angstrom), charge = 0, multiplicity = 1:

       Center              X                  Y                   Z               Mass       
    ------------   -----------------  -----------------  -----------------  -----------------
         O            0.022807808367    -0.596178663255     0.255527179048    15.994914619570
         O            2.179111808367    -0.729166663255     0.490806179048    15.994914619570
         O            1.339814808367     0.984513336745    -0.756530820952    15.994914619570
         C           -1.283138691633     0.162377436745    -0.320343220952    12.000000000000
         C           -2.237553191633    -1.012475663255    -0.282479820952    12.000000000000
         C           -1.516970191633     1.240540336745     0.633978179048    12.000000000000
         C            1.180506808367    -0.011569663255    -0.072518820952    12.000000000000
         H           -0.947267191633     0.412695336745    -1.271809820952     1.007825032230
         H           -3.171737191633    -0.604464663255    -0.678461820952     1.007825032230
         H           -1.925158191633    -1.848795663255    -0.911721820952     1.007825032230
         H           -2.418936191633    -1.384452663255     0.729213179048     1.007825032230
         H           -2.434953191633     1.722223336745     0.284174179048     1.007825032230
         H           -0.713116191633     1.978871336745     0.619206179048     1.007825032230
         H           -1.672346191633     0.894696336745     1.659605179048     1.007825032230
         H            3.000105808367    -0.272691663255     0.224146179048     1.007825032230

  Nuclear repulsion =  322.590869929073790
  Reference energy  = -380.880933694468411

  ==> Basis Set <==

  Basis Set: AUG-CC-PVTZ
    Blend: AUG-CC-PVTZ
    Number of shells: 170
    Number of basis functions: 506
    Number of Cartesian functions: 585
    Spherical Harmonics?: true
    Max angular momentum: 3

  ==> CGRSolver (by Rob Parrish) <==

   Number of roots    =         1
   Preconditioning    =    JACOBI
   Convergence cutoff =     1E-06
   Maximum iterations =       100

  ==> CPHFRHamiltonian (by Rob Parrish) <== 

  ==> MemDFJK: Density-Fitted J/K Matrices <==

    J tasked:                   Yes
    K tasked:                   Yes
    wK tasked:                   No
    OpenMP threads:              32
    Memory [MiB]:             22888
    Algorithm:                 Core
    Schwarz Cutoff:           1E-12
    Mask sparsity (%):       3.6604
    Fitting Condition:        1E-10

   => Auxiliary Basis Set <=

  Basis Set: (AUG-CC-PVTZ AUX)
    Blend: AUG-CC-PVTZ-JKFIT
    Number of shells: 322
    Number of basis functions: 1096
    Number of Cartesian functions: 1357
    Spherical Harmonics?: true
    Max angular momentum: 4

  ==> CPHF Iterations <==

  => Iterations <=

             Iter  Converged  Remaining    Residual
  CGR           1          0          1   1.071E-01
  CGR           2          0          1   2.843E-02
  CGR           3          0          1   1.062E-02
  CGR           4          0          1   2.854E-03
  CGR           5          0          1   1.133E-03
  CGR           6          0          1   3.125E-04
  CGR           7          0          1   1.307E-04
  CGR           8          0          1   4.427E-05
  CGR           9          0          1   1.469E-05
  CGR          10          0          1   4.896E-06
  CGR          11          0          1   1.752E-06
  CGR          12          1          0   5.112E-07

    CGRSolver converged.

	-----------------------------------------------------------
	 ==================> DF-MP2 Energies <==================== 
	-----------------------------------------------------------
	 Reference Energy          =    -380.8809336944684105 [Eh]
	 Singles Energy            =      -0.0000000000000000 [Eh]
	 Same-Spin Energy          =      -0.3690215522992900 [Eh]
	 Opposite-Spin Energy      =      -1.1649647984022651 [Eh]
	 Correlation Energy        =      -1.5339863507015550 [Eh]
	 Total Energy              =    -382.4149200451699926 [Eh]
	-----------------------------------------------------------
	 ================> DF-SCS-MP2 Energies <================== 
	-----------------------------------------------------------
	 SCS Same-Spin Scale       =       0.3333333333333333 [-]
	 SCS Opposite-Spin Scale   =       1.2000000000000000 [-]
	 SCS Same-Spin Energy      =      -0.1230071840997633 [Eh]
	 SCS Opposite-Spin Energy  =      -1.3979577580827180 [Eh]
	 SCS Correlation Energy    =      -1.5209649421824813 [Eh]
	 SCS Total Energy          =    -382.4018986366509125 [Eh]
	-----------------------------------------------------------



Properties will be evaluated at  -0.000000,  -0.000000,  -0.000000 [a0]

Properties computed using the MP2 density matrix

  Nuclear Dipole Moment: [e a0]
     X:    -9.6234      Y:     0.8403      Z:     0.6134

  Electronic Dipole Moment: [e a0]
     X:     8.9642      Y:    -0.7952      Z:    -0.5923

  Dipole Moment: [e a0]
     X:    -0.6592      Y:     0.0451      Z:     0.0211     Total:     0.6611

  Dipole Moment: [D]
     X:    -1.6755      Y:     0.1146      Z:     0.0537     Total:     1.6803


*** tstop() called on c420-011.stampede2.tacc.utexas.edu at Sat Mar  6 23:12:01 2021
Module time:
	user time   =     833.57 seconds =      13.89 minutes
	system time =      36.51 seconds =       0.61 minutes
	total time  =        109 seconds =       1.82 minutes
Total time:
	user time   =    1160.21 seconds =      19.34 minutes
	system time =      64.47 seconds =       1.07 minutes
	total time  =        131 seconds =       2.18 minutes

    Psi4 stopped on: Saturday, 06 March 2021 11:12PM
    Psi4 wall time for execution: 0:02:11.88

*** Psi4 exiting successfully. Buy a developer a beer!
